Title
81359
    1CHL1    C3    1   3.578   0.974  10.144 -0.1368  0.2822  0.3012
    1CHL1    H3    2   3.473   0.942  10.127  0.1098 -0.2808 -0.1753
    1CHL1    O3    3   3.610   0.952  10.283 -0.0664  0.2841 -0.1020
    1CHL1   H3'    4   3.598   0.858  10.299 -2.3635  0.3745 -0.8423
    1CHL1    C4    5   3.653   0.866  10.060 -0.7050  0.1082 -0.7751
    1CHL1   H4A    6   3.762   0.869  10.082 -1.0724  0.6194  1.1034
    1CHL1   H4B    7   3.614   0.768  10.096 -0.7741  0.2979 -0.3343
    1CHL1    C5    8   3.631   0.871   9.914 -0.7717  0.3989  0.6306
    1CHL1    C6    9   3.596   0.769   9.834  0.7014 -0.8729  0.4166
    1CHL1    H6   10   3.589   0.672   9.885 -0.8231 -1.1034 -0.1780
    1CHL1    C7   11   3.563   0.769   9.688  0.1910  0.1096 -0.2904
    1CHL1   H7A   12   3.591   0.672   9.641 -3.6623 -1.3919  0.1462
    1CHL1   H7B   13   3.453   0.771   9.681 -0.1365  0.5766  3.1253
    1CHL1    C8   14   3.616   0.903   9.628  0.2249 -0.0076 -0.7041
    1CHL1    H8   15   3.725   0.909   9.611  0.0465  1.2255 -1.5638
    1CHL1   C14   16   3.550   0.915   9.493  0.1734  0.1303 -0.4875
    1CHL1   H14   17   3.443   0.915   9.526  0.6681 -1.0853  1.2902
    1CHL1   C15   18   3.565   0.804   9.390 -0.0725 -0.2849  0.3460
    1CHL1  H15A   19   3.664   0.754   9.397  1.2562  2.3070  1.2910
    1CHL1  H15B   20   3.486   0.728   9.408  0.4115 -0.8876  0.0020
    1CHL1   C16   21   3.548   0.877   9.254  0.2272 -0.0932 -0.1392
    1CHL1  H16A   22   3.645   0.880   9.201 -0.1008 -0.6542 -0.7864
    1CHL1  H16B   23   3.460   0.829   9.206 -0.5506 -0.3875  1.4965
    1CHL1   C17   24   3.511   1.022   9.293  0.0316  0.3063 -0.4840
    1CHL1   H17   25   3.402   1.019   9.311  0.0366 -0.6493 -0.5416
    1CHL1   C13   26   3.586   1.049   9.431 -0.1484 -0.5498  0.6361
    1CHL1   C18   27   3.734   1.067   9.391 -0.4522 -0.1770  0.5482
    1CHL1  H18A   28   3.753   1.165   9.341 -1.2545 -0.1465  0.2976
    1CHL1  H18B   29   3.803   1.055   9.477  0.3163 -1.8620 -0.2591
    1CHL1  H18C   30   3.774   0.986   9.326  0.2790  0.2512  0.4432
    1CHL1   C12   31   3.537   1.159   9.516 -0.5192 -0.0633 -0.7568
    1CHL1  H12A   32   3.568   1.257   9.473 -3.0390  2.1194  1.9615
    1CHL1  H12B   33   3.426   1.149   9.518 -0.5676  0.5741  0.1268
    1CHL1   C11   34   3.593   1.152   9.656  0.0766  0.6052 -0.2671
    1CHL1  H11A   35   3.703   1.166   9.647 -0.0401  0.0878 -3.7756
    1CHL1  H11B   36   3.545   1.224   9.726 -1.1456 -1.4971  1.1725
    1CHL1    C9   37   3.576   1.017   9.724  0.6964 -0.3845 -0.2854
    1CHL1    H9   38   3.466   1.005   9.733  0.9672 -1.4641  2.6973
    1CHL1   C10   39   3.637   1.014   9.862  0.3535 -0.6543 -0.1717
    1CHL1   C19   40   3.783   1.056   9.857 -1.1149  0.3809 -0.2991
    1CHL1  H19A   41   3.802   1.163   9.838  0.4863 -0.0702 -1.4588
    1CHL1  H19B   42   3.841   1.038   9.951 -0.4780  0.0201 -0.7508
    1CHL1  H19C   43   3.841   1.010   9.774  1.1887  0.0409  1.3647
    1CHL1    C1   44   3.557   1.119   9.947  0.6752 -0.1126 -0.8146
    1CHL1   H1A   45   3.586   1.221   9.914  1.9179 -0.1415  0.0871
    1CHL1   H1B   46   3.447   1.109   9.935  0.4930 -0.6401  0.9735
    1CHL1    C2   47   3.596   1.115  10.093 -0.2445  0.0675 -0.8552
    1CHL1   H2A   48   3.537   1.186  10.155 -2.0756 -3.1610  1.4256
    1CHL1   H2B   49   3.701   1.149  10.093 -0.0824 -0.3148  0.8261
    1CHL1   C20   50   3.525   1.123   9.182 -0.4384  0.1367 -0.0910
    1CHL1   H20   51   3.625   1.166   9.163 -1.3449  2.1827 -0.5177
    1CHL1   C21   52   3.432   1.245   9.204  0.3411  0.1501 -0.0694
    1CHL1  H21A   53   3.429   1.312   9.115  0.7805  1.9639  1.2355
    1CHL1  H21B   54   3.485   1.312   9.275 -1.6669  2.8759 -0.9478
    1CHL1  H21C   55   3.336   1.203   9.242 -0.2081 -0.5513 -2.0943
    1CHL1   C22   56   3.491   1.064   9.039  0.7042 -0.7114  0.8560
    1CHL1  H22A   57   3.571   0.989   9.022  1.7623  0.1476  1.8114
    1CHL1  H22B   58   3.387   1.027   9.041  0.2718  0.3717 -0.3397
    1CHL1   C23   59   3.511   1.160   8.914 -0.5656  0.0696  0.2532
    1CHL1  H23A   60   3.432   1.238   8.922  0.1368  0.5934  3.5635
    1CHL1  H23B   61   3.606   1.217   8.921  0.6115 -0.9122 -4.2133
    1CHL1   C24   62   3.503   1.088   8.782  0.7235 -0.2312 -0.1747
    1CHL1  H24A   63   3.580   1.010   8.763 -0.3336 -0.8704 -2.0871
    1CHL1  H24B   64   3.403   1.041   8.787  0.8200 -0.3922  0.2142
    1CHL1   C25   65   3.502   1.189   8.671  0.6872  0.4988  0.1477
    1CHL1   H25   66   3.428   1.268   8.695 -0.1017  0.2518 -1.3779
    1CHL1   C26   67   3.643   1.255   8.650 -0.3442 -0.6262  0.7029
    1CHL1  H26A   68   3.664   1.304   8.747 -0.8308 -0.7512  0.8742
    1CHL1  H26B   69   3.720   1.178   8.627  1.1890  0.6287  1.4310
    1CHL1  H26C   70   3.638   1.327   8.565  2.6269 -2.4134 -1.1790
    1CHL1   C27   71   3.440   1.130   8.542  0.1924  0.0626  0.0047
    1CHL1  H27A   72   3.476   1.026   8.525 -0.4427 -0.3890  1.2567
    1CHL1  H27B   73   3.330   1.122   8.556 -0.2030  2.5837 -1.2460
    1CHL1  H27C   74   3.464   1.196   8.456  1.5737 -1.5943 -0.9470
    2CHL1    C3   75   4.013   5.992  10.170 -0.2797  0.0598  0.4596
    2CHL1    H3   76   3.964   5.895  10.151 -1.1695  0.7507 -0.8979
    2CHL1    O3   77   4.030   6.002  10.309 -0.2702  0.4451  0.1132
    2CHL1   H3'   78   4.066   6.091  10.320 -1.3146  0.7270  1.6026
    2CHL1    C4   79   4.146   5.999  10.096  0.5414  0.2724  0.6204
    2CHL1   H4A   80   4.190   6.094  10.133 -1.3162  0.5279  2.3682
    2CHL1   H4B   81   4.209   5.917  10.136  3.6976  2.2889  0.0765
    2CHL1    C5   82   4.132   5.990   9.942 -0.2463  0.3504 -0.3432
    2CHL1    C6   83   4.200   5.892   9.873  0.2106  0.1170 -0.8257
    2CHL1    H6   84   4.283   5.835   9.918 -0.2861 -0.4628 -0.6420
    2CHL1    C7   85   4.179   5.888   9.720 -0.1623  0.1649 -1.0925
    2CHL1   H7A   86   4.282   5.892   9.677  1.3267 -0.9116  2.0339
    2CHL1   H7B   87   4.130   5.790   9.702 -0.9606  0.0224  1.5244
    2CHL1    C8   88   4.097   5.997   9.642 -0.2248 -0.5693 -0.8696
    2CHL1    H8   89   4.159   6.086   9.617  0.4336 -0.2928  1.4684
    2CHL1   C14   90   4.038   5.936   9.514 -0.5948 -0.2980 -0.7180
    2CHL1   H14   91   3.991   5.842   9.549  1.0500 -1.8793 -2.4757
    2CHL1   C15   92   4.136   5.888   9.407 -0.3725  0.6164 -0.2390
    2CHL1  H15A   93   4.212   5.969   9.399 -0.1574  0.2797 -1.9509
    2CHL1  H15B   94   4.183   5.790   9.431 -1.6268  0.0670  0.0464
    2CHL1   C16   95   4.055   5.879   9.278 -0.0341 -0.1807  0.5182
    2CHL1  H16A   96   4.095   5.959   9.211 -1.8762  0.3698  0.0113
    2CHL1  H16B   97   4.054   5.780   9.227 -0.5968  0.8452 -1.6011
    2CHL1   C17   98   3.913   5.933   9.318 -0.0644  0.1093 -0.0538
    2CHL1   H17   99   3.859   5.843   9.353  0.3981  0.5175  1.7688
    2CHL1   C13  100   3.941   6.028   9.440 -0.0964 -0.4647  0.1978
    2CHL1   C18  101   4.004   6.164   9.391 -0.1458 -0.2217  0.3360
    2CHL1  H18A  102   3.927   6.224   9.338  1.4457  1.1902 -0.4329
    2CHL1  H18B  103   4.053   6.230   9.465 -0.9493  1.0208 -0.2159
    2CHL1  H18C  104   4.078   6.143   9.311 -2.3971 -1.1131 -1.6640
    2CHL1   C12  105   3.823   6.063   9.528  0.2494  0.0365 -0.0338
    2CHL1  H12A  106   3.755   6.137   9.480  1.5214 -0.3329 -2.5662
    2CHL1  H12B  107   3.768   5.968   9.543  2.1717 -1.1019  0.0705
    2CHL1   C11  108   3.872   6.123   9.666  0.0784  0.6682  0.7512
    2CHL1  H11A  109   3.909   6.227   9.650 -1.5135  1.0578 -0.6935
    2CHL1  H11B  110   3.780   6.125   9.728 -3.7223 -1.9267 -4.0466
    2CHL1    C9  111   3.980   6.035   9.734  0.0053  0.2514 -0.2974
    2CHL1    H9  112   3.933   5.935   9.747  0.7515 -0.1689 -0.7697
    2CHL1   C10  113   4.025   6.083   9.878 -0.6075  0.2921  0.0192
    2CHL1   C19  114   4.099   6.216   9.855 -0.1778  0.0549  0.1701
    2CHL1  H19A  115   4.141   6.225   9.753 -1.3152 -0.4784 -0.3564
    2CHL1  H19B  116   4.034   6.306   9.854 -1.5221 -0.8582  1.1515
    2CHL1  H19C  117   4.174   6.233   9.935 -1.3855 -2.0605  1.8666
    2CHL1    C1  118   3.900   6.088   9.971 -0.7091 -0.3372 -0.4764
    2CHL1   H1A  119   3.843   6.182   9.952 -0.2094  0.7411  2.7561
    2CHL1   H1B  120   3.849   5.990   9.956  1.2138 -1.6254  1.0275
    2CHL1    C2  121   3.927   6.107  10.122  0.1179 -0.2821 -0.0838
    2CHL1   H2A  122   3.828   6.120  10.170 -0.8388 -3.4393 -0.9318
    2CHL1   H2B  123   3.980   6.200  10.151 -0.0266 -0.1385 -0.2810
    2CHL1   C20  124   3.846   5.992   9.200 -0.1614 -0.9879 -0.2743
    2CHL1   H20  125   3.903   6.080   9.164  0.3565 -1.0222  0.4457
    2CHL1   C21  126   3.698   6.033   9.231 -0.5635  1.0966  0.3621
    2CHL1  H21A  127   3.650   6.077   9.141 -0.3771  1.5364  0.4776
    2CHL1  H21B  128   3.694   6.120   9.299  0.6831 -0.7921  3.0200
    2CHL1  H21C  129   3.647   5.940   9.265  0.1217 -0.1261 -1.7009
    2CHL1   C22  130   3.826   5.894   9.080 -0.2012  0.5114 -0.3701
    2CHL1  H22A  131   3.921   5.842   9.053 -0.2006  1.5112 -2.4809
    2CHL1  H22B  132   3.737   5.830   9.092 -2.6322  3.1396 -2.8277
    2CHL1   C23  133   3.797   5.964   8.945 -0.1633 -0.0639  0.4606
    2CHL1  H23A  134   3.696   6.008   8.931 -0.6330 -1.1948  0.1540
    2CHL1  H23B  135   3.874   6.045   8.947 -1.6322  1.3921  3.1558
    2CHL1   C24  136   3.824   5.868   8.833 -0.0382  0.1131 -1.0573
    2CHL1  H24A  137   3.923   5.819   8.839 -0.0556  0.2112  0.7376
    2CHL1  H24B  138   3.742   5.793   8.828 -0.6409  0.6697  0.0887
    2CHL1   C25  139   3.816   5.934   8.689 -0.2945 -0.2958 -0.0772
    2CHL1   H25  140   3.722   5.994   8.687  0.3488  0.7275 -0.6744
    2CHL1   C26  141   3.938   6.030   8.671  0.1042  0.3380 -0.1791
    2CHL1  H26A  142   3.941   6.071   8.567  0.3534 -1.8837 -1.0992
    2CHL1  H26B  143   3.948   6.111   8.747  0.5303  0.7900 -0.7037
    2CHL1  H26C  144   4.030   5.968   8.671 -0.6838 -0.8627 -0.9450
    2CHL1   C27  145   3.823   5.818   8.584 -0.7532 -0.5393  0.3366
    2CHL1  H27A  146   3.791   5.847   8.481 -0.5271  0.8561  0.6370
    2CHL1  H27B  147   3.925   5.773   8.589  0.7262  2.2232 -1.6905
    2CHL1  H27C  148   3.749   5.746   8.624 -2.1021  1.4534  1.5596
    3CHL1    C3  149   5.602   5.921  10.402 -0.3034  0.1761  0.2633
    3CHL1    H3  150   5.683   5.858  10.360  1.0446  2.2571 -0.4569
    3CHL1    O3  151   5.588   5.902  10.546 -0.0240 -0.2500 -0.2889
    3CHL1   H3'  152   5.536   5.975  10.581  1.4768  0.6246  0.2233
    3CHL1    C4  153   5.634   6.064  10.369  0.2000  0.3366  0.0407
    3CHL1   H4A  154   5.565   6.131  10.426  2.3353  0.1211  3.1758
    3CHL1   H4B  155   5.730   6.078  10.424  1.1799 -1.4063 -1.1532
    3CHL1    C5  156   5.641   6.086  10.219 -0.1074  0.7317 -0.1027
    3CHL1    C6  157   5.757   6.130  10.164 -0.5525 -0.3769 -1.0433
    3CHL1    H6  158   5.841   6.172  10.222 -1.3897  1.0335 -0.7998
    3CHL1    C7  159   5.776   6.151  10.020  0.7031  0.6719  0.4115
    3CHL1   H7A  160   5.834   6.246  10.017 -2.4137  2.7196 -1.3350
    3CHL1   H7B  161   5.833   6.068   9.972  0.2657  0.2049  0.6973
    3CHL1    C8  162   5.637   6.160   9.949 -1.1406 -0.2966 -0.7078
    3CHL1    H8  163   5.596   6.262   9.965 -1.7040 -0.5236 -0.6763
    3CHL1   C14  164   5.677   6.151   9.805 -0.3656 -0.1593  0.1302
    3CHL1   H14  165   5.726   6.052   9.800 -0.6308 -0.4560  2.2526
    3CHL1   C15  166   5.778   6.244   9.744  0.2566  0.0446 -0.2829
    3CHL1  H15A  167   5.748   6.344   9.782  1.8164  0.6405 -0.5638
    3CHL1  H15B  168   5.881   6.220   9.777 -0.0021  0.1783  0.6509
    3CHL1   C16  169   5.745   6.235   9.592  0.2289  0.0364 -0.0802
    3CHL1  H16A  170   5.704   6.333   9.559 -0.3474 -0.2573 -0.2358
    3CHL1  H16B  171   5.823   6.192   9.526  2.1219  0.6316  1.6583
    3CHL1   C17  172   5.616   6.143   9.575 -0.1907 -0.3799  0.3033
    3CHL1   H17  173   5.659   6.041   9.573  2.1816  0.5185  1.2083
    3CHL1   C13  174   5.552   6.149   9.711  0.6307 -0.7326 -0.1441
    3CHL1   C18  175   5.471   6.284   9.718 -0.2546  0.7500 -0.0573
    3CHL1  H18A  176   5.536   6.367   9.685  1.8910 -0.6373  0.4245
    3CHL1  H18B  177   5.382   6.278   9.652  1.0599 -2.9638 -1.7933
    3CHL1  H18C  178   5.446   6.310   9.823  1.6481  0.4116  0.5112
    3CHL1   C12  179   5.464   6.031   9.753  0.5773  0.1506  0.3386
    3CHL1  H12A  180   5.366   6.034   9.700  0.1927  0.2062  1.0345
    3CHL1  H12B  181   5.513   5.933   9.734 -1.2012 -1.1448  2.0520
    3CHL1   C11  182   5.422   6.045   9.896  0.5760  0.7055 -0.7911
    3CHL1  H11A  183   5.364   6.135   9.924 -0.4338 -0.3032  0.4404
    3CHL1  H11B  184   5.356   5.960   9.922 -0.0827  1.2929 -0.5040
    3CHL1    C9  185   5.543   6.048   9.990 -0.2034  0.0177  0.2778
    3CHL1    H9  186   5.594   5.953   9.963  1.1181  0.7949 -0.0670
    3CHL1   C10  187   5.515   6.049  10.142  0.0824  0.1245 -0.4966
    3CHL1   C19  188   5.388   6.137  10.167  0.0628 -0.0459 -0.2719
    3CHL1  H19A  189   5.378   6.139  10.277  2.9299 -0.7105  0.1019
    3CHL1  H19B  190   5.394   6.238  10.123 -1.4895 -0.9623 -2.8230
    3CHL1  H19C  191   5.297   6.092  10.122 -0.7124  1.3349 -0.1261
    3CHL1    C1  192   5.484   5.905  10.178  0.4973  0.1987 -0.2996
    3CHL1   H1A  193   5.387   5.875  10.133  0.7928 -4.3134  1.4626
    3CHL1   H1B  194   5.559   5.827  10.152 -0.1367 -0.7425  0.5574
    3CHL1    C2  195   5.472   5.879  10.334 -0.6313 -0.3711  0.3444
    3CHL1   H2A  196   5.458   5.770  10.354  1.0711 -0.5973  0.4368
    3CHL1   H2B  197   5.391   5.943  10.373 -0.0458 -0.9250  2.5948
    3CHL1   C20  198   5.550   6.175   9.444 -0.6007  0.2175  0.2653
    3CHL1   H20  199   5.514   6.280   9.439 -1.6694 -0.0614  1.3215
    3CHL1   C21  200   5.424   6.083   9.440  0.0054  0.4384 -0.3286
    3CHL1  H21A  201   5.348   6.109   9.517 -2.0167 -2.6879 -1.0502
    3CHL1  H21B  202   5.448   5.978   9.468 -1.1452  0.0133 -0.8845
    3CHL1  H21C  203   5.372   6.089   9.342  0.8857  0.7709 -0.7872
    3CHL1   C22  204   5.642   6.136   9.321 -0.9102  0.5185 -0.1124
    3CHL1  H22A  205   5.747   6.171   9.338 -0.7800  0.5172 -0.8761
    3CHL1  H22B  206   5.633   6.026   9.314 -0.0886  0.3460  1.1438
    3CHL1   C23  207   5.578   6.190   9.193 -0.1762 -0.1924  0.7623
    3CHL1  H23A  208   5.501   6.117   9.161 -0.0221  0.8656 -2.3297
    3CHL1  H23B  209   5.530   6.288   9.216  0.1909 -0.4973  3.0234
    3CHL1   C24  210   5.690   6.197   9.085  0.0987  1.3592  0.2780
    3CHL1  H24A  211   5.778   6.257   9.118  0.4905  0.2773  1.2832
    3CHL1  H24B  212   5.719   6.090   9.078  0.3202  1.4714 -0.5803
    3CHL1   C25  213   5.642   6.246   8.952  0.2628  0.2848  0.2883
    3CHL1   H25  214   5.559   6.181   8.916  1.6947 -1.3836 -0.1106
    3CHL1   C26  215   5.578   6.378   8.952 -0.3237 -0.0363 -0.3600
    3CHL1  H26A  216   5.496   6.390   9.027  0.1715 -1.3997  0.4229
    3CHL1  H26B  217   5.656   6.452   8.982 -0.5986  0.4224 -0.7742
    3CHL1  H26C  218   5.539   6.410   8.853 -1.8853  1.7431  0.7563
    3CHL1   C27  219   5.749   6.238   8.849 -0.2863 -0.4257  0.7413
    3CHL1  H27A  220   5.704   6.272   8.754 -0.1219 -0.0899  0.7841
    3CHL1  H27B  221   5.835   6.297   8.887  1.0724 -2.3482  0.7794
    3CHL1  H27C  222   5.791   6.136   8.838  3.1349  0.6711  2.2559
    4CHL1    C3  223   5.054   0.559  10.403  0.2656  0.7063  0.6655
    4CHL1    H3  224   5.010   0.650  10.356  4.2315  1.2109 -2.6510
    4CHL1    O3  225   5.066   0.579  10.546 -0.0585  0.4929  0.3587
    4CHL1   H3'  226   5.109   0.507  10.593 -0.1023 -0.1834 -0.6079
    4CHL1    C4  227   4.979   0.432  10.372 -0.8587  0.0439 -0.1231
    4CHL1   H4A  228   5.029   0.338  10.404 -0.7585 -0.8209 -2.6436
    4CHL1   H4B  229   4.890   0.424  10.439 -1.2326 -0.8840 -0.7034
    4CHL1    C5  230   4.947   0.425  10.230 -0.4428  0.5378  0.6203
    4CHL1    C6  231   4.816   0.442  10.191  0.7334  0.1950 -1.2647
    4CHL1    H6  232   4.744   0.456  10.272  1.2724 -2.5231 -0.2076
    4CHL1    C7  233   4.782   0.423  10.046  0.8904 -0.4785  0.5371
    4CHL1   H7A  234   4.689   0.363  10.038  0.3488  0.3212  0.6584
    4CHL1   H7B  235   4.757   0.523  10.005  1.1372 -1.1042 -1.1993
    4CHL1    C8  236   4.891   0.366   9.956 -0.1808 -0.4435  0.5610
    4CHL1    H8  237   4.911   0.257   9.971 -1.1156 -0.8855 -1.0930
    4CHL1   C14  238   4.858   0.387   9.809 -0.0474  0.2778  0.2490
    4CHL1   H14  239   4.842   0.496   9.795 -0.8987  0.3698  1.7194
    4CHL1   C15  240   4.730   0.317   9.766  0.3479  0.1998  0.3695
    4CHL1  H15A  241   4.726   0.214   9.808  2.0183 -0.5036 -1.0807
    4CHL1  H15B  242   4.636   0.361   9.808 -0.6302 -0.8721 -0.6315
    4CHL1   C16  243   4.735   0.333   9.611  0.7979  0.2645 -0.5386
    4CHL1  H16A  244   4.688   0.242   9.567 -0.9933 -0.0895  1.9265
    4CHL1  H16B  245   4.689   0.433   9.598  0.0648 -0.0246 -0.2464
    4CHL1   C17  246   4.888   0.353   9.581  0.2945 -0.4933  0.5788
    4CHL1   H17  247   4.894   0.462   9.559  0.7292 -0.2584  1.7928
    4CHL1   C13  248   4.965   0.332   9.711 -0.4865 -0.3349 -0.3893
    4CHL1   C18  249   4.987   0.182   9.725 -0.4131 -0.0448 -0.2302
    4CHL1  H18A  250   5.022   0.158   9.827 -0.3452 -0.0480 -0.2541
    4CHL1  H18B  251   4.890   0.130   9.708 -1.3933  1.2340  1.2132
    4CHL1  H18C  252   5.072   0.147   9.662  0.5533 -1.4263  1.7242
    4CHL1   C12  253   5.092   0.413   9.725  0.5073  0.0740 -0.4262
    4CHL1  H12A  254   5.178   0.380   9.664  0.4589  1.1057 -1.0855
    4CHL1  H12B  255   5.064   0.520   9.710 -0.0928  0.3760  2.2765
    4CHL1   C11  256   5.133   0.413   9.875  0.1540  0.0146 -0.1455
    4CHL1  H11A  257   5.171   0.310   9.892  0.0774  0.3417  2.4315
    4CHL1  H11B  258   5.212   0.490   9.886  0.9357 -0.1489 -3.4926
    4CHL1    C9  259   5.020   0.450   9.978 -0.4678 -0.1470 -0.2184
    4CHL1    H9  260   4.998   0.558   9.967  2.5975  0.7761  1.4484
    4CHL1   C10  261   5.070   0.424  10.130 -0.0093  0.6317  0.4502
    4CHL1   C19  262   5.130   0.283  10.142 -0.1454 -0.0494 -0.0486
    4CHL1  H19A  263   5.062   0.207  10.099 -0.0572  1.4716 -3.2291
    4CHL1  H19B  264   5.229   0.263  10.095 -0.5494 -2.2002 -0.1001
    4CHL1  H19C  265   5.154   0.254  10.247 -1.4190 -0.5359  0.1196
    4CHL1    C1  266   5.175   0.532  10.179  0.1015 -0.1088  0.0971
    4CHL1   H1A  267   5.272   0.514  10.129  0.0778  1.1121 -0.4002
    4CHL1   H1B  268   5.135   0.630  10.148  2.7139  0.8581 -0.4999
    4CHL1    C2  269   5.189   0.544  10.332 -0.2264 -0.7218 -0.0390
    4CHL1   H2A  270   5.255   0.630  10.356 -1.8241  0.3413  0.6734
    4CHL1   H2B  271   5.237   0.451  10.371 -1.5285 -2.5105 -2.4159
    4CHL1   C20  272   4.938   0.280   9.450 -0.4497 -0.3954  0.1428
    4CHL1   H20  273   4.927   0.171   9.467 -1.4433 -0.7318 -2.2891
    4CHL1   C21  274   5.083   0.311   9.426 -0.1767 -0.2043 -0.0282
    4CHL1  H21A  275   5.138   0.274   9.515 -2.0038 -3.5033 -0.1020
    4CHL1  H21B  276   5.101   0.421   9.424  2.9128 -0.5395  2.3607
    4CHL1  H21C  277   5.128   0.253   9.343  0.7131 -2.0579  1.6692
    4CHL1   C22  278   4.848   0.312   9.318 -0.7033 -0.0056 -0.5519
    4CHL1  H22A  279   4.742   0.289   9.342 -0.5164  0.5481  0.8820
    4CHL1  H22B  280   4.848   0.420   9.293 -1.8820  0.2585  0.4570
    4CHL1   C23  281   4.885   0.224   9.199  0.2593  0.3853  0.0341
    4CHL1  H23A  282   4.996   0.220   9.191  0.4156  2.1042  0.7793
    4CHL1  H23B  283   4.841   0.123   9.213  0.0291  0.5315  0.3751
    4CHL1   C24  284   4.833   0.261   9.065  0.1432  0.4187 -0.4302
    4CHL1  H24A  285   4.722   0.262   9.078  0.1959 -1.5825  0.6874
    4CHL1  H24B  286   4.860   0.361   9.027  3.2661 -0.3710 -0.5310
    4CHL1   C25  287   4.860   0.152   8.950  0.2517  0.3381  0.2627
    4CHL1   H25  288   4.856   0.051   8.996  0.1350  0.5973  0.8333
    4CHL1   C26  289   4.757   0.162   8.831  0.8231  0.5616  0.0524
    4CHL1  H26A  290   4.761   0.261   8.781 -0.2883  0.7977  0.4151
    4CHL1  H26B  291   4.783   0.088   8.752 -2.7814  0.2601 -1.0143
    4CHL1  H26C  292   4.652   0.149   8.863  1.5613  1.6763  3.3330
    4CHL1   C27  293   5.006   0.169   8.898  0.3259 -0.4645 -0.6616
    4CHL1  H27A  294   5.085   0.159   8.976  1.3834  0.6018 -1.5647
    4CHL1  H27B  295   5.027   0.119   8.801  0.8320 -0.7375 -0.4178
    4CHL1  H27C  296   5.017   0.276   8.872 -0.8142  0.2976  1.6326
    5CHL1    C3  297   5.659   4.519  10.003 -0.5082  0.7806  0.5503
    5CHL1    H3  298   5.755   4.574   9.992  0.6557 -1.2349  0.2669
    5CHL1    O3  299   5.640   4.479  10.142  0.1955 -0.1236 -0.0650
    5CHL1   H3'  300   5.549   4.451  10.136  0.5212 -0.9994 -1.6682
    5CHL1    C4  301   5.543   4.614   9.971  0.3966  0.1939  0.7246
    5CHL1   H4A  302   5.456   4.545   9.979 -0.2747  0.7281 -1.3587
    5CHL1   H4B  303   5.534   4.701  10.040 -0.5783  0.9805 -0.3698
    5CHL1    C5  304   5.553   4.657   9.823  0.0133  0.4818 -0.2911
    5CHL1    C6  305   5.558   4.783   9.790 -0.1183  0.0114  0.0737
    5CHL1    H6  306   5.563   4.863   9.866 -0.1218 -0.6399  0.7736
    5CHL1    C7  307   5.550   4.830   9.647  0.1266  0.1619 -0.4499
    5CHL1   H7A  308   5.473   4.910   9.637  1.2214  1.2309 -0.4997
    5CHL1   H7B  309   5.644   4.884   9.624 -0.5299  1.1513 -0.8846
    5CHL1    C8  310   5.515   4.720   9.548 -0.0930 -0.0955 -0.5283
    5CHL1    H8  311   5.406   4.701   9.560 -0.4722  1.5365 -1.0478
    5CHL1   C14  312   5.545   4.762   9.406  0.1660  0.1613 -0.5194
    5CHL1   H14  313   5.655   4.775   9.398  0.0626  0.5433 -1.3668
    5CHL1   C15  314   5.476   4.889   9.365  0.1372 -0.2312  0.4951
    5CHL1  H15A  315   5.370   4.894   9.396 -0.3722  0.9160 -1.3184
    5CHL1  H15B  316   5.516   4.985   9.403 -0.8660  0.6266 -0.5645
    5CHL1   C16  317   5.495   4.898   9.215  0.3936  0.3924 -0.3135
    5CHL1  H16A  318   5.406   4.936   9.161 -1.2042 -2.2267  0.2862
    5CHL1  H16B  319   5.578   4.972   9.208  1.8115 -1.0209  0.8468
    5CHL1   C17  320   5.525   4.749   9.175 -0.4178  0.3839 -0.0907
    5CHL1   H17  321   5.634   4.762   9.158 -0.0621 -2.0400 -0.0620
    5CHL1   C13  322   5.506   4.661   9.297  0.3693  0.0474 -0.4196
    5CHL1   C18  323   5.355   4.612   9.303  0.3286 -0.0460  0.4667
    5CHL1  H18A  324   5.281   4.691   9.281 -0.8981 -1.4602 -0.7048
    5CHL1  H18B  325   5.337   4.524   9.237  2.5269  0.8760 -1.5016
    5CHL1  H18C  326   5.327   4.577   9.404 -1.5353 -1.1581 -0.3808
    5CHL1   C12  327   5.605   4.542   9.325 -0.2562 -0.0235  0.6870
    5CHL1  H12A  328   5.580   4.452   9.264 -2.9907  1.3990 -0.4656
    5CHL1  H12B  329   5.713   4.563   9.311  0.1605 -0.5238  2.8351
    5CHL1   C11  330   5.580   4.487   9.467  0.4438  0.5678 -0.7188
    5CHL1  H11A  331   5.474   4.456   9.476  0.4351 -0.2230 -2.8993
    5CHL1  H11B  332   5.650   4.402   9.483  2.5930  1.7637 -2.9226
    5CHL1    C9  333   5.592   4.594   9.581 -0.2010  0.2788 -0.3646
    5CHL1    H9  334   5.700   4.619   9.575 -0.5429  1.6397 -1.2017
    5CHL1   C10  335   5.557   4.538   9.721 -0.2063  0.3119 -0.1300
    5CHL1   C19  336   5.424   4.467   9.727  0.7401  0.3936 -0.0519
    5CHL1  H19A  337   5.412   4.385   9.653  0.9652 -2.3365  2.7279
    5CHL1  H19B  338   5.426   4.409   9.822 -0.0324 -0.5314 -0.5874
    5CHL1  H19C  339   5.345   4.543   9.745  1.1827  0.6018  1.1170
    5CHL1    C1  340   5.665   4.426   9.755  0.1969 -0.3055  0.2029
    5CHL1   H1A  341   5.658   4.337   9.690  2.0512  0.5271 -1.2408
    5CHL1   H1B  342   5.759   4.471   9.717 -0.0588 -1.2457 -1.6649
    5CHL1    C2  343   5.667   4.399   9.904 -0.0046 -0.1713 -0.4511
    5CHL1   H2A  344   5.762   4.348   9.931 -1.3912 -2.2535  0.7588
    5CHL1   H2B  345   5.586   4.329   9.933 -0.6002  0.6838 -0.0137
    5CHL1   C20  346   5.470   4.702   9.040  0.3434  0.1735  0.1167
    5CHL1   H20  347   5.360   4.715   9.050  0.3124 -0.3345  0.4666
    5CHL1   C21  348   5.505   4.554   9.015 -0.5063  0.1963 -0.6903
    5CHL1  H21A  349   5.457   4.473   9.073 -4.2339 -1.1531 -5.0917
    5CHL1  H21B  350   5.615   4.538   9.010 -0.5251 -0.4236  0.5901
    5CHL1  H21C  351   5.467   4.529   8.914 -2.6589 -1.7484  0.5044
    5CHL1   C22  352   5.507   4.792   8.923  0.5352  0.2026  0.3575
    5CHL1  H22A  353   5.533   4.896   8.954 -0.2805  1.2161 -2.1304
    5CHL1  H22B  354   5.603   4.761   8.876  0.1317  2.1735 -1.9538
    5CHL1   C23  355   5.401   4.804   8.812 -0.7343 -0.0094  0.5013
    5CHL1  H23A  356   5.393   4.702   8.768  1.8080  0.0106 -0.1905
    5CHL1  H23B  357   5.300   4.822   8.853 -0.4798 -2.0411  2.1623
    5CHL1   C24  358   5.447   4.900   8.697  0.4247 -0.3240  0.2785
    5CHL1  H24A  359   5.550   4.874   8.665  0.3536 -0.1771 -0.0702
    5CHL1  H24B  360   5.386   4.900   8.604  0.6020 -3.3765  0.0768
    5CHL1   C25  361   5.446   5.050   8.746 -0.1305  1.1047  0.1763
    5CHL1   H25  362   5.520   5.054   8.829 -0.2416 -1.6378  0.5033
    5CHL1   C26  363   5.505   5.148   8.654 -0.8132  0.1332  0.0026
    5CHL1  H26A  364   5.502   5.252   8.693 -0.8211  0.2935 -0.4208
    5CHL1  H26B  365   5.610   5.118   8.635 -0.8494 -0.8876  1.2558
    5CHL1  H26C  366   5.459   5.159   8.553  0.7386  1.3836 -0.6191
    5CHL1   C27  367   5.304   5.094   8.787 -0.8745  0.1568  0.3424
    5CHL1  H27A  368   5.243   5.054   8.703 -0.5775 -0.4788  0.4215
    5CHL1  H27B  369   5.272   5.046   8.883  0.9472 -1.3711  0.2505
    5CHL1  H27C  370   5.290   5.203   8.804  0.3912  0.3889  0.0112
    6CHL1    C3  371   4.221   2.085  10.256  0.4960 -0.1514 -0.5232
    6CHL1    H3  372   4.278   2.173  10.220  0.6952 -0.8889 -2.0760
    6CHL1    O3  373   4.215   2.075  10.396 -0.4725  0.4587  1.0831
    6CHL1   H3'  374   4.307   2.089  10.422 -0.4414  3.6907 -0.2714
    6CHL1    C4  375   4.075   2.097  10.203 -0.1384 -0.2894 -0.2437
    6CHL1   H4A  376   4.017   2.009  10.241  1.8546 -0.6840  2.1350
    6CHL1   H4B  377   4.032   2.186  10.253 -0.1951 -0.9222  0.8636
    6CHL1    C5  378   4.075   2.107  10.052 -0.0223 -0.2130 -0.0496
    6CHL1    C6  379   4.004   2.208   9.994 -0.3841 -0.1502 -0.1974
    6CHL1    H6  380   3.948   2.267  10.068 -1.4420 -0.6384 -0.5823
    6CHL1    C7  381   4.000   2.226   9.842  0.1235  0.6116 -0.3997
    6CHL1   H7A  382   3.899   2.251   9.802 -0.1888 -1.5497 -1.0590
    6CHL1   H7B  383   4.080   2.299   9.816  2.1896 -1.5940 -0.5199
    6CHL1    C8  384   4.051   2.106   9.757 -0.4911 -0.2119  0.1794
    6CHL1    H8  385   3.968   2.032   9.754 -0.3042 -0.4181  0.0108
    6CHL1   C14  386   4.076   2.153   9.610 -0.0675 -0.2931 -0.0677
    6CHL1   H14  387   4.176   2.200   9.620 -0.5308  0.2051  4.3205
    6CHL1   C15  388   3.981   2.243   9.532  0.6242  0.7363 -0.0048
    6CHL1  H15A  389   3.875   2.214   9.551 -0.0180  2.5722 -0.5361
    6CHL1  H15B  390   3.990   2.351   9.557  2.3508  0.7849 -0.6953
    6CHL1   C16  391   4.025   2.225   9.388 -0.5680  0.4910  0.1758
    6CHL1  H16A  392   3.939   2.201   9.321  0.2539  0.9693 -1.0954
    6CHL1  H16B  393   4.076   2.314   9.346 -0.3626  1.5153  2.4778
    6CHL1   C17  394   4.119   2.098   9.382  0.5061  0.3148 -0.0783
    6CHL1   H17  395   4.222   2.140   9.377  1.5748 -2.2672 -1.7679
    6CHL1   C13  396   4.104   2.031   9.522  0.1966 -0.0715  0.0234
    6CHL1   C18  397   3.987   1.935   9.511  0.4348 -0.7402 -0.0961
    6CHL1  H18A  398   3.968   1.894   9.612  2.0096 -0.6664  0.2657
    6CHL1  H18B  399   3.893   1.980   9.475  0.2392 -0.5278  0.6630
    6CHL1  H18C  400   4.012   1.851   9.443  1.2540 -1.9146  1.5667
    6CHL1   C12  401   4.230   1.958   9.582  0.2735  0.4139  0.7549
    6CHL1  H12A  402   4.252   1.867   9.523  0.0794  0.3121  0.8424
    6CHL1  H12B  403   4.317   2.027   9.574 -0.4746  1.2364 -0.9487
    6CHL1   C11  404   4.211   1.920   9.729 -0.3008  0.4706 -0.0120
    6CHL1  H11A  405   4.130   1.844   9.726 -1.0775  1.2888 -0.0140
    6CHL1  H11B  406   4.301   1.864   9.761 -0.2795  0.2928 -0.3781
    6CHL1    C9  407   4.172   2.031   9.819  0.3914  0.3370 -0.3769
    6CHL1    H9  408   4.254   2.106   9.823  1.4963 -0.8698  2.5173
    6CHL1   C10  409   4.159   1.998   9.967 -0.0603 -0.6721 -0.5751
    6CHL1   C19  410   4.064   1.877   9.989 -0.5623 -0.0708  0.4582
    6CHL1  H19A  411   4.131   1.789   9.988 -0.4622  0.0034  0.5843
    6CHL1  H19B  412   4.013   1.865  10.086 -0.4964  1.9426  0.7859
    6CHL1  H19C  413   3.991   1.884   9.906 -1.4272  0.0307  1.2213
    6CHL1    C1  414   4.299   1.983  10.036 -0.1695  0.3554 -0.3774
    6CHL1   H1A  415   4.347   1.894   9.990  1.7752  0.8058  0.6770
    6CHL1   H1B  416   4.363   2.068  10.007  0.8359 -0.1611  0.2491
    6CHL1    C2  417   4.288   1.966  10.191  0.0528 -0.1721 -0.5523
    6CHL1   H2A  418   4.390   1.957  10.233 -0.3892  0.1872  0.6516
    6CHL1   H2B  419   4.246   1.868  10.224  1.8570 -0.9329 -0.4169
    6CHL1   C20  420   4.100   2.010   9.261  0.1627 -0.0631  0.2494
    6CHL1   H20  421   3.997   1.967   9.261  0.2651 -0.3583 -1.0642
    6CHL1   C21  422   4.196   1.889   9.241  0.0731  0.0869  0.4205
    6CHL1  H21A  423   4.303   1.911   9.223  0.3599  0.0315  1.9320
    6CHL1  H21B  424   4.167   1.843   9.144 -2.3107  0.5419  0.8464
    6CHL1  H21C  425   4.184   1.807   9.315  0.3687 -1.8805 -1.6077
    6CHL1   C22  426   4.095   2.088   9.129 -0.7196 -0.0519 -0.3757
    6CHL1  H22A  427   4.088   2.199   9.138  0.6821  0.1128 -0.9663
    6CHL1  H22B  428   4.197   2.074   9.087  0.2875 -0.5506  2.0909
    6CHL1   C23  429   3.986   2.048   9.031  0.3312  0.7010  0.0408
    6CHL1  H23A  430   4.006   1.945   8.993 -0.1900  0.1325  1.2474
    6CHL1  H23B  431   3.891   2.046   9.089  1.4493 -1.3500  1.9895
    6CHL1   C24  432   3.973   2.135   8.906  0.4796 -0.1544 -0.4513
    6CHL1  H24A  433   3.927   2.231   8.939  0.4275 -0.8578  1.6520
    6CHL1  H24B  434   4.073   2.161   8.866 -0.3489  1.1421 -1.8579
    6CHL1   C25  435   3.890   2.088   8.785  0.0768  0.0416  0.2625
    6CHL1   H25  436   3.789   2.063   8.824  0.1397  1.7712  1.6308
    6CHL1   C26  437   3.884   2.199   8.675  0.0956 -0.2498 -0.4421
    6CHL1  H26A  438   3.989   2.210   8.640  0.7926 -3.1251  0.4942
    6CHL1  H26B  439   3.803   2.177   8.603 -1.0090  0.3626  0.5681
    6CHL1  H26C  440   3.852   2.297   8.716  2.8160 -1.0798  4.4635
    6CHL1   C27  441   3.938   1.963   8.726 -0.4788  0.0772  0.7552
    6CHL1  H27A  442   3.866   1.922   8.652 -0.4449 -1.1800  1.3983
    6CHL1  H27B  443   4.039   1.977   8.680 -0.9736  0.2161 -0.3318
    6CHL1  H27C  444   3.938   1.882   8.802  2.9246  1.2360  2.1740
    7CHL1    C3  445   5.923   0.450  10.443 -0.4710  0.1419 -0.0758
    7CHL1    H3  446   5.814   0.442  10.425 -0.2656  0.2889 -1.4854
    7CHL1    O3  447   5.950   0.426  10.581 -0.1725  0.2877  0.2463
    7CHL1   H3'  448   5.985   0.509  10.615  1.1714 -0.6605  1.3002
    7CHL1    C4  449   6.008   0.360  10.356 -0.2870 -0.2667  1.0338
    7CHL1   H4A  450   6.113   0.379  10.387  0.4359 -2.2434 -0.0185
    7CHL1   H4B  451   5.992   0.254  10.384  0.7269 -1.3554 -2.0829
    7CHL1    C5  452   6.022   0.385  10.206  0.2421 -0.7163 -0.6147
    7CHL1    C6  453   6.007   0.286  10.115  0.2028  0.5518  0.6947
    7CHL1    H6  454   5.994   0.183  10.152 -0.2703  0.6113  0.6980
    7CHL1    C7  455   6.017   0.311   9.966 -0.0026  0.4923  0.4881
    7CHL1   H7A  456   6.093   0.240   9.928  1.4267  0.7046  2.7252
    7CHL1   H7B  457   5.924   0.275   9.917  0.4530  2.1554 -1.7745
    7CHL1    C8  458   6.054   0.460   9.930  0.0962  0.6059  0.3994
    7CHL1    H8  459   6.163   0.450   9.947  0.2680 -0.8239 -1.2734
    7CHL1   C14  460   6.016   0.498   9.787  0.3413  0.0690  0.5171
    7CHL1   H14  461   5.905   0.500   9.781  0.1505  0.7208  3.1413
    7CHL1   C15  462   6.071   0.403   9.669 -0.1166 -0.3191  0.6958
    7CHL1  H15A  463   6.180   0.390   9.685  0.2281  0.0514 -1.0718
    7CHL1  H15B  464   6.013   0.308   9.669 -0.2691 -0.2366 -0.1808
    7CHL1   C16  465   6.039   0.487   9.547  0.2695 -0.5355  0.0796
    7CHL1  H16A  466   6.113   0.477   9.466  0.7733  0.5015  0.3960
    7CHL1  H16B  467   5.941   0.453   9.505 -0.6629  0.0440  1.6918
    7CHL1   C17  468   6.030   0.638   9.590  0.4828 -0.1997 -0.1833
    7CHL1   H17  469   5.919   0.650   9.583  0.4068 -0.2584  0.8464
    7CHL1   C13  470   6.065   0.633   9.742  0.6266 -0.8800  0.1538
    7CHL1   C18  471   6.222   0.641   9.764 -0.1984 -0.0569  0.4100
    7CHL1  H18A  472   6.260   0.592   9.856 -1.1243 -0.8933  0.3671
    7CHL1  H18B  473   6.271   0.596   9.675  1.0467 -0.2985  1.1946
    7CHL1  H18C  474   6.251   0.748   9.762 -0.8577  0.1167 -0.7101
    7CHL1   C12  475   5.983   0.733   9.830  0.2123  0.0412 -0.8111
    7CHL1  H12A  476   6.030   0.831   9.807  0.6474  0.0936  0.2143
    7CHL1  H12B  477   5.874   0.720   9.814  0.0931  0.9957 -0.8224
    7CHL1   C11  478   6.011   0.703   9.980  0.0234 -0.1635 -0.2501
    7CHL1  H11A  479   6.114   0.741   9.997 -0.4879  1.9964 -1.6953
    7CHL1  H11B  480   5.940   0.769  10.034  1.2288  1.7689 -0.9201
    7CHL1    C9  481   5.995   0.559  10.026 -0.4121 -0.0378  0.1143
    7CHL1    H9  482   5.888   0.535  10.013 -0.5621  0.6379  0.0908
    7CHL1   C10  483   6.035   0.539  10.172  0.3223 -0.8595 -0.4911
    7CHL1   C19  484   6.189   0.585  10.188  0.3839  0.3249  0.1450
    7CHL1  H19A  485   6.226   0.582  10.293  0.5988  2.4969  0.1869
    7CHL1  H19B  486   6.249   0.515  10.127 -0.9988  0.2623 -1.2110
    7CHL1  H19C  487   6.200   0.691  10.155 -1.4572  1.4924  2.8440
    7CHL1    C1  488   5.949   0.633  10.264  0.0896  0.1006 -0.1270
    7CHL1   H1A  489   5.974   0.741  10.253 -1.1085  0.4181  0.1782
    7CHL1   H1B  490   5.846   0.610  10.230 -0.0172 -0.4214  0.5305
    7CHL1    C2  491   5.960   0.591  10.416  0.2882  0.2956  0.3760
    7CHL1   H2A  492   5.894   0.664  10.467 -0.2810  1.3840 -1.8104
    7CHL1   H2B  493   6.063   0.605  10.455 -0.0949 -1.9622  2.4112
    7CHL1   C20  494   6.096   0.739   9.492  0.3396  0.3285  0.3114
    7CHL1   H20  495   6.204   0.719   9.476  0.2725  1.0577 -1.2191
    7CHL1   C21  496   6.073   0.883   9.545 -0.5257  1.0481  0.2504
    7CHL1  H21A  497   6.127   0.900   9.641  0.9968  0.3504 -0.4523
    7CHL1  H21B  498   5.964   0.888   9.563 -0.5962 -1.6442  0.9675
    7CHL1  H21C  499   6.098   0.970   9.481  1.9432  1.1177  1.1980
    7CHL1   C22  500   6.035   0.722   9.344 -0.3841 -0.7661 -0.8249
    7CHL1  H22A  501   6.007   0.615   9.336 -0.6262 -0.9598  1.7233
    7CHL1  H22B  502   5.941   0.780   9.357  0.7081  0.5648  2.1814
    7CHL1   C23  503   6.131   0.778   9.242 -0.4277  0.6048  0.4276
    7CHL1  H23A  504   6.152   0.887   9.252 -0.9764  0.5284  3.1320
    7CHL1  H23B  505   6.228   0.727   9.261 -0.3382  0.1111 -1.2360
    7CHL1   C24  506   6.077   0.758   9.095  0.5969  0.0045 -0.0169
    7CHL1  H24A  507   6.060   0.650   9.076 -1.0316  0.5789 -2.1267
    7CHL1  H24B  508   5.970   0.791   9.091 -0.0185 -2.0130 -1.4297
    7CHL1   C25  509   6.161   0.823   8.982 -0.6610  0.2596 -0.4758
    7CHL1   H25  510   6.144   0.933   8.979 -0.1977  0.3071 -2.3577
    7CHL1   C26  511   6.309   0.795   8.995  1.1366 -0.6264 -0.1244
    7CHL1  H26A  512   6.370   0.827   8.907  0.4233  2.3954  0.3584
    7CHL1  H26B  513   6.357   0.859   9.072 -0.5018  1.4852 -0.7626
    7CHL1  H26C  514   6.306   0.687   9.020 -2.3056 -0.3612  1.1928
    7CHL1   C27  515   6.110   0.791   8.838 -0.5196 -0.5325 -0.5639
    7CHL1  H27A  516   6.099   0.681   8.824 -0.5012 -0.5308 -0.5913
    7CHL1  H27B  517   6.010   0.831   8.813 -1.1463 -1.4246  0.4269
    7CHL1  H27C  518   6.185   0.818   8.761 -1.5526 -0.1453 -1.4543
    8CHL1    C3  519   0.583   0.756  10.181  0.0198 -0.3210 -0.1455
    8CHL1    H3  520   0.493   0.820  10.188  0.7736  0.7609 -0.1993
    8CHL1    O3  521   0.623   0.720  10.314 -0.6739 -0.2230  0.1560
    8CHL1   H3'  522   0.541   0.719  10.364 -0.7310  0.1644  0.0719
    8CHL1    C4  523   0.545   0.625  10.111 -0.0167 -0.7740  0.5704
    8CHL1   H4A  524   0.633   0.558  10.116 -0.0038 -0.8082 -0.0338
    8CHL1   H4B  525   0.458   0.579  10.161  0.4807 -1.2982  0.9700
    8CHL1    C5  526   0.514   0.647   9.964  0.6757 -0.1932  0.4671
    8CHL1    C6  527   0.399   0.612   9.900 -0.0193  0.3203 -0.5881
    8CHL1    H6  528   0.314   0.573   9.959 -1.1569  1.2445 -1.5873
    8CHL1    C7  529   0.376   0.615   9.752  0.1479 -0.1904  0.3755
    8CHL1   H7A  530   0.334   0.518   9.718 -0.1729  0.8981 -2.6805
    8CHL1   H7B  531   0.302   0.693   9.722 -1.6607 -2.2057 -0.6271
    8CHL1    C8  532   0.516   0.638   9.677 -0.2428 -0.1376 -0.3349
    8CHL1    H8  533   0.572   0.542   9.682  0.4968  0.3515  2.4427
    8CHL1   C14  534   0.489   0.680   9.527 -0.5797  0.2805 -0.5442
    8CHL1   H14  535   0.422   0.768   9.541 -1.5953 -0.1166 -2.4999
    8CHL1   C15  536   0.394   0.582   9.446 -0.0276 -0.7453 -0.6243
    8CHL1  H15A  537   0.440   0.481   9.453  0.3500 -0.5838 -0.7189
    8CHL1  H15B  538   0.287   0.579   9.473  0.1800 -1.0388  0.2029
    8CHL1   C16  539   0.418   0.637   9.305 -0.0797 -0.2446 -0.0500
    8CHL1  H16A  540   0.452   0.557   9.236 -0.1212  1.2536 -1.8880
    8CHL1  H16B  541   0.322   0.680   9.269  0.4742  0.3431 -0.8486
    8CHL1   C17  542   0.538   0.741   9.307 -0.4571  0.0110 -0.4490
    8CHL1   H17  543   0.487   0.839   9.320  2.5399  1.7282 -0.9225
    8CHL1   C13  544   0.602   0.717   9.440 -0.2347  0.0225  1.0083
    8CHL1   C18  545   0.696   0.597   9.419 -0.3011  0.5445  0.0651
    8CHL1  H18A  546   0.657   0.510   9.362  0.7546 -1.6042  2.4388
    8CHL1  H18B  547   0.792   0.623   9.370 -0.5446  3.4361  0.9569
    8CHL1  H18C  548   0.719   0.558   9.520 -2.5756 -1.1614  0.0147
    8CHL1   C12  549   0.663   0.840   9.504 -1.2080  0.0803  0.1948
    8CHL1  H12A  550   0.753   0.861   9.443  0.4038 -1.3328  1.9733
    8CHL1  H12B  551   0.581   0.915   9.507 -0.0290  1.4134  0.0692
    8CHL1   C11  552   0.703   0.808   9.650  0.6490  0.1621  0.0350
    8CHL1  H11A  553   0.794   0.748   9.630  1.0198  0.3059  1.2283
    8CHL1  H11B  554   0.730   0.905   9.698 -0.8157  0.6028  0.0165
    8CHL1    C9  555   0.593   0.749   9.747 -0.0003 -0.7643  0.0489
    8CHL1    H9  556   0.520   0.832   9.757 -1.2019 -1.8142  0.2628
    8CHL1   C10  557   0.624   0.711   9.888  0.1878 -0.1372 -0.3030
    8CHL1   C19  558   0.758   0.633   9.885  0.0317 -0.6036  0.1607
    8CHL1  H19A  559   0.742   0.540   9.827  0.2916 -0.1448 -0.6621
    8CHL1  H19B  560   0.839   0.695   9.842 -0.8074  0.0192 -0.5522
    8CHL1  H19C  561   0.794   0.613   9.988  0.5377  0.2409  0.1540
    8CHL1    C1  562   0.653   0.849   9.962 -0.0464  0.1273  0.6229
    8CHL1   H1A  563   0.737   0.891   9.903  0.5879 -1.8977 -0.0003
    8CHL1   H1B  564   0.569   0.921   9.951 -0.6837 -0.4867  1.3290
    8CHL1    C2  565   0.694   0.834  10.106 -0.4051 -0.3976 -0.3084
    8CHL1   H2A  566   0.723   0.929  10.156  1.1661 -0.5319 -0.9080
    8CHL1   H2B  567   0.783   0.767  10.107  0.3044  0.4969  1.6296
    8CHL1   C20  568   0.619   0.750   9.173  0.4690  0.3389 -0.2597
    8CHL1   H20  569   0.684   0.662   9.156 -1.0625 -0.9250  0.1097
    8CHL1   C21  570   0.715   0.871   9.189 -0.3645  0.0740  0.0009
    8CHL1  H21A  571   0.794   0.827   9.253  0.1929  0.6213 -0.2964
    8CHL1  H21B  572   0.665   0.954   9.244 -0.2035 -1.4021  2.4966
    8CHL1  H21C  573   0.749   0.895   9.086  0.4088 -2.2194 -0.3302
    8CHL1   C22  574   0.526   0.776   9.053 -0.1897 -0.7471  0.2902
    8CHL1  H22A  575   0.595   0.785   8.967 -0.1128  3.3850  0.5872
    8CHL1  H22B  576   0.454   0.694   9.034  1.4821 -1.9130 -1.2892
    8CHL1   C23  577   0.439   0.896   9.067  0.3573  0.7257 -0.2417
    8CHL1  H23A  578   0.353   0.865   9.130  0.5144 -1.2857 -0.9561
    8CHL1  H23B  579   0.488   0.985   9.113  2.1313  0.4499 -1.4667
    8CHL1   C24  580   0.385   0.936   8.925  0.0773 -0.1049 -0.0869
    8CHL1  H24A  581   0.479   0.954   8.869  0.0831 -0.0746 -0.0671
    8CHL1  H24B  582   0.332   0.851   8.879 -1.7252  1.6809 -1.4411
    8CHL1   C25  583   0.298   1.054   8.916  0.1569 -0.4434  0.1441
    8CHL1   H25  584   0.340   1.130   8.986  1.8693 -1.3547  0.1802
    8CHL1   C26  585   0.292   1.113   8.773  0.5053  0.4074 -0.0651
    8CHL1  H26A  586   0.269   1.034   8.698  0.7936 -0.1211  0.3962
    8CHL1  H26B  587   0.225   1.200   8.790  1.1343  0.4153  2.8660
    8CHL1  H26C  588   0.392   1.150   8.742  0.8612  1.3609  2.0328
    8CHL1   C27  589   0.156   1.008   8.959  0.5761 -0.2395  0.1044
    8CHL1  H27A  590   0.106   1.101   8.994  1.1084 -0.9427  3.0136
    8CHL1  H27B  591   0.106   0.963   8.872 -0.3763 -0.9401  0.9953
    8CHL1  H27C  592   0.171   0.942   9.047  0.6018 -0.1856  0.1410
    9CHL1    C3  593   1.912   4.268  10.150  0.2548 -0.5647 -0.4088
    9CHL1    H3  594   1.867   4.368  10.167 -3.7080 -1.8326 -2.1197
    9CHL1    O3  595   1.968   4.219  10.272  0.4645 -0.0644 -0.1952
    9CHL1   H3'  596   2.023   4.292  10.303  0.7537  0.5051 -1.9318
    9CHL1    C4  597   1.793   4.175  10.104 -0.1339 -0.1080 -0.4026
    9CHL1   H4A  598   1.822   4.069  10.085  1.0800 -0.8119  4.1796
    9CHL1   H4B  599   1.720   4.172  10.187  1.5066  0.9602  1.1654
    9CHL1    C5  600   1.736   4.219   9.972  0.6454  0.3710  0.6190
    9CHL1    C6  601   1.601   4.242   9.962 -0.4690 -0.0974  0.3920
    9CHL1    H6  602   1.540   4.230  10.053  0.3220 -1.2198  0.7959
    9CHL1    C7  603   1.540   4.302   9.839 -0.4315 -0.3829 -0.0436
    9CHL1   H7A  604   1.445   4.248   9.818 -0.4695 -0.8421  1.2309
    9CHL1   H7B  605   1.505   4.406   9.856 -0.6130 -0.2152 -1.3173
    9CHL1    C8  606   1.629   4.301   9.713 -0.5603 -0.2963  0.1503
    9CHL1    H8  607   1.651   4.196   9.684  2.5858  0.1954  0.4476
    9CHL1   C14  608   1.567   4.395   9.609 -0.0452  0.1569  0.1056
    9CHL1   H14  609   1.558   4.498   9.649  0.4020  0.9761 -1.7607
    9CHL1   C15  610   1.425   4.351   9.568 -0.0091 -0.2039 -0.1374
    9CHL1  H15A  611   1.414   4.241   9.564  0.7435 -0.2952  0.2622
    9CHL1  H15B  612   1.343   4.390   9.632  0.7888  0.9342  0.2140
    9CHL1   C16  613   1.405   4.413   9.422 -0.8166  0.4220  0.1914
    9CHL1  H16A  614   1.368   4.338   9.350  0.2110 -0.9830  1.0802
    9CHL1  H16B  615   1.337   4.501   9.423  0.2227  1.2511  1.1045
    9CHL1   C17  616   1.544   4.474   9.388  0.1907 -0.7771  0.1782
    9CHL1   H17  617   1.542   4.581   9.420  1.6602 -0.6121 -0.2272
    9CHL1   C13  618   1.649   4.404   9.481  1.1758 -0.1619  0.1775
    9CHL1   C18  619   1.668   4.265   9.418 -0.2082  0.0364 -0.1535
    9CHL1  H18A  620   1.574   4.216   9.387 -0.6084  0.1215  0.9104
    9CHL1  H18B  621   1.733   4.273   9.328  0.3083  1.3227  0.3096
    9CHL1  H18C  622   1.721   4.202   9.493 -0.5965  0.4932  0.5150
    9CHL1   C12  623   1.784   4.467   9.515  0.6433  0.0724 -0.1102
    9CHL1  H12A  624   1.845   4.464   9.422  1.1394  2.1797  0.0923
    9CHL1  H12B  625   1.775   4.573   9.549 -0.3384 -0.1604  0.3805
    9CHL1   C11  626   1.857   4.387   9.623 -0.4319  0.0025 -0.1114
    9CHL1  H11A  627   1.902   4.300   9.571  1.4637  0.4278  0.7312
    9CHL1  H11B  628   1.944   4.447   9.657 -0.7519 -0.0378  0.8111
    9CHL1    C9  629   1.773   4.354   9.743  0.4266 -0.0149 -0.0738
    9CHL1    H9  630   1.762   4.457   9.785  0.5646  0.6726 -1.6562
    9CHL1   C10  631   1.835   4.261   9.856  0.4834  0.5389  0.9771
    9CHL1   C19  632   1.898   4.136   9.784 -0.0313  0.5222 -0.1489
    9CHL1  H19A  633   1.920   4.058   9.860  2.6763  0.8071 -0.5755
    9CHL1  H19B  634   1.824   4.089   9.715  0.2057 -1.2106  0.7192
    9CHL1  H19C  635   1.995   4.149   9.733  0.8747 -0.5953  1.2237
    9CHL1    C1  636   1.957   4.336   9.913 -0.8267 -0.0956  1.1660
    9CHL1   H1A  637   2.032   4.344   9.831 -3.2422  0.0254 -1.1477
    9CHL1   H1B  638   1.921   4.436   9.944  1.5245  1.7915 -1.6477
    9CHL1    C2  639   2.016   4.272  10.038 -0.1516 -0.1832 -0.8545
    9CHL1   H2A  640   2.097   4.334  10.082  0.9245 -2.2469  0.2175
    9CHL1   H2B  641   2.055   4.174  10.004 -0.0999 -0.8713  1.0822
    9CHL1   C20  642   1.569   4.476   9.230  0.6387 -0.6623 -0.4038
    9CHL1   H20  643   1.606   4.375   9.199  0.6656 -0.5379 -0.7790
    9CHL1   C21  644   1.677   4.576   9.211 -0.2589 -1.5028  0.3380
    9CHL1  H21A  645   1.687   4.611   9.106 -1.9330  2.9449  1.4360
    9CHL1  H21B  646   1.768   4.529   9.253  1.8918  2.0236 -0.0182
    9CHL1  H21C  647   1.645   4.665   9.269 -1.8904  0.1311 -2.7980
    9CHL1   C22  648   1.458   4.504   9.138  0.4789  0.2697 -0.0796
    9CHL1  H22A  649   1.381   4.427   9.160  2.8896 -2.8858 -1.7356
    9CHL1  H22B  650   1.430   4.611   9.146  1.4099  0.3755  5.1414
    9CHL1   C23  651   1.481   4.460   8.988  0.0661  0.0926 -0.0765
    9CHL1  H23A  652   1.568   4.516   8.948  0.3737  2.6792  3.7220
    9CHL1  H23B  653   1.501   4.350   8.986 -1.5653 -0.2657  1.3604
    9CHL1   C24  654   1.356   4.492   8.900  0.5855  0.8584 -0.4558
    9CHL1  H24A  655   1.269   4.495   8.970 -1.1130  0.4884 -2.4542
    9CHL1  H24B  656   1.369   4.590   8.850  0.1343  1.1765  0.0385
    9CHL1   C25  657   1.321   4.392   8.788 -0.7729  0.3244 -0.3953
    9CHL1   H25  658   1.312   4.287   8.824  2.6449  0.7405  2.2115
    9CHL1   C26  659   1.192   4.442   8.726 -0.0468  0.5823 -0.1054
    9CHL1  H26A  660   1.206   4.548   8.696 -0.4564  0.5155 -0.5339
    9CHL1  H26B  661   1.178   4.368   8.644 -4.2364 -1.5564  2.2465
    9CHL1  H26C  662   1.103   4.431   8.791 -1.0197 -1.4126 -1.6623
    9CHL1   C27  663   1.435   4.404   8.695  0.4145 -0.2362  0.8617
    9CHL1  H27A  664   1.519   4.338   8.726  0.0360 -0.1661  2.1042
    9CHL1  H27B  665   1.403   4.385   8.591 -0.1978  1.6036  0.6676
    9CHL1  H27C  666   1.473   4.509   8.693 -1.3890  0.4567 -0.8179
   10CHL1    C3  667   2.718   0.825  10.192  0.3060 -0.3280 -0.1295
   10CHL1    H3  668   2.802   0.894  10.212  1.5795 -1.9041  0.1866
   10CHL1    O3  669   2.661   0.811  10.323  0.5298 -0.3730  0.5209
   10CHL1   H3'  670   2.593   0.747  10.302 -0.5341  1.3739 -1.7344
   10CHL1    C4  671   2.606   0.881  10.103 -0.4146  0.3739  0.2873
   10CHL1   H4A  672   2.516   0.821  10.131 -0.0858  0.3776  1.3830
   10CHL1   H4B  673   2.590   0.986  10.135  0.0735  1.4584 -2.7180
   10CHL1    C5  674   2.629   0.878   9.951  0.6533  0.5743 -0.5170
   10CHL1    C6  675   2.642   0.991   9.875  0.6891  0.4696  0.3371
   10CHL1    H6  676   2.634   1.088   9.927  0.0700  1.1899 -1.0627
   10CHL1    C7  677   2.660   0.993   9.727  0.4282  0.1592 -0.1620
   10CHL1   H7A  678   2.609   1.082   9.684  2.2083  1.0223 -0.5780
   10CHL1   H7B  679   2.764   1.025   9.706  0.0272  4.0677  2.6550
   10CHL1    C8  680   2.626   0.858   9.669  0.1313 -0.1984 -0.0903
   10CHL1    H8  681   2.518   0.840   9.685  0.3570 -1.8810 -0.2049
   10CHL1   C14  682   2.668   0.855   9.524 -0.2291  0.1839 -0.1621
   10CHL1   H14  683   2.779   0.864   9.529 -0.3351  3.5016 -1.4388
   10CHL1   C15  684   2.618   0.973   9.439  0.8606 -0.3885 -0.3414
   10CHL1  H15A  685   2.508   0.975   9.455  0.6884  0.7340 -1.5017
   10CHL1  H15B  686   2.664   1.072   9.460 -0.3148  0.2536 -0.7353
   10CHL1   C16  687   2.639   0.936   9.293 -0.0747 -0.3632  0.7203
   10CHL1  H16A  688   2.542   0.958   9.243  0.1925 -0.5712  0.1014
   10CHL1  H16B  689   2.716   0.989   9.233 -0.2497 -1.5171 -0.5786
   10CHL1   C17  690   2.670   0.785   9.300  0.3225  0.6552 -0.6078
   10CHL1   H17  691   2.780   0.775   9.300  0.5539 -0.6126  5.1757
   10CHL1   C13  692   2.634   0.729   9.443  0.2001  0.1462 -0.4294
   10CHL1   C18  693   2.478   0.709   9.451 -0.3280  0.4762 -0.2037
   10CHL1  H18A  694   2.449   0.650   9.362  4.2604 -0.4681 -1.3267
   10CHL1  H18B  695   2.451   0.664   9.549 -2.4607  1.4453 -0.2857
   10CHL1  H18C  696   2.412   0.799   9.446 -1.7247 -0.4915  0.2935
   10CHL1   C12  697   2.728   0.623   9.508  0.3890 -0.3025  0.1609
   10CHL1  H12A  698   2.716   0.528   9.453  0.3430 -0.5474  0.5878
   10CHL1  H12B  699   2.832   0.658   9.488 -0.4186  1.8557 -0.5318
   10CHL1   C11  700   2.690   0.604   9.658  0.3790  0.4528 -0.1162
   10CHL1  H11A  701   2.586   0.563   9.661  0.1037  1.1574  0.2072
   10CHL1  H11B  702   2.759   0.532   9.705  0.0890  0.1676 -0.1263
   10CHL1    C9  703   2.703   0.739   9.737 -0.3687 -0.0850  0.1845
   10CHL1    H9  704   2.809   0.769   9.744 -0.3251 -0.5929  3.5160
   10CHL1   C10  705   2.659   0.736   9.889  0.3976 -0.6909  0.0194
   10CHL1   C19  706   2.532   0.648   9.895 -0.6067 -0.0051 -0.4238
   10CHL1  H19A  707   2.477   0.655   9.991  0.0146  0.5226 -0.0975
   10CHL1  H19B  708   2.466   0.684   9.813 -0.8406  1.4861  0.3871
   10CHL1  H19C  709   2.551   0.542   9.868  0.1129  0.6431 -2.6931
   10CHL1    C1  710   2.772   0.690   9.981 -0.5128  0.3006 -0.0721
   10CHL1   H1A  711   2.816   0.596   9.941  0.5796  1.4566 -1.7059
   10CHL1   H1B  712   2.858   0.759   9.967  0.7419 -1.5024 -1.7836
   10CHL1    C2  713   2.759   0.686  10.135  0.7314 -0.3303  0.0712
   10CHL1   H2A  714   2.858   0.676  10.184  1.1565  0.5458 -0.6002
   10CHL1   H2B  715   2.693   0.605  10.173  0.1453  0.4985  0.8577
   10CHL1   C20  716   2.614   0.715   9.178  0.1218  0.6106  0.9987
   10CHL1   H20  717   2.503   0.718   9.176  0.1228  0.0393 -0.5543
   10CHL1   C21  718   2.655   0.567   9.188  0.1314  0.0287  0.6146
   10CHL1  H21A  719   2.593   0.517   9.111 -0.2405  1.0231  0.2648
   10CHL1  H21B  720   2.638   0.507   9.280  1.8757 -1.6434 -0.0734
   10CHL1  H21C  721   2.762   0.546   9.165  0.5889  1.2673  1.5004
   10CHL1   C22  722   2.670   0.782   9.049  0.0616 -0.0143 -0.5097
   10CHL1  H22A  723   2.621   0.734   8.962 -0.4969  0.3320 -0.3888
   10CHL1  H22B  724   2.632   0.886   9.048  0.7936  0.2898  0.8353
   10CHL1   C23  725   2.824   0.795   9.031 -0.0232  0.1414  0.6435
   10CHL1  H23A  726   2.869   0.850   9.116  0.0282  0.3620  0.4742
   10CHL1  H23B  727   2.877   0.697   9.026 -1.4078 -0.5936 -2.9827
   10CHL1   C24  728   2.857   0.883   8.910 -0.2277  0.1901 -0.0285
   10CHL1  H24A  729   2.836   0.822   8.819 -1.3742  1.0497 -0.3710
   10CHL1  H24B  730   2.791   0.972   8.910 -0.6411 -0.1016 -0.9214
   10CHL1   C25  731   2.997   0.936   8.895 -0.0714 -0.5240  0.4417
   10CHL1   H25  732   3.031   0.987   8.988  0.3128  0.9561 -0.4619
   10CHL1   C26  733   3.097   0.823   8.872  0.5498  0.7263  0.1617
   10CHL1  H26A  734   3.091   0.750   8.955 -0.0217 -0.4141 -0.8545
   10CHL1  H26B  735   3.072   0.778   8.773 -1.1417  0.6775  0.5762
   10CHL1  H26C  736   3.198   0.867   8.857  0.9118 -0.3823 -0.8165
   10CHL1   C27  737   3.000   1.035   8.777 -0.0770  0.3234 -0.3197
   10CHL1  H27A  738   3.016   0.979   8.682 -0.1036  0.8216 -0.6229
   10CHL1  H27B  739   2.903   1.089   8.775  0.3639  1.1396  0.0740
   10CHL1  H27C  740   3.085   1.106   8.785 -0.6686  1.1163 -0.9374
   11CHL1    C3  741   4.355   5.381  10.056  0.3244 -0.5026  0.4991
   11CHL1    H3  742   4.393   5.472  10.003 -0.6578  0.8341  2.0068
   11CHL1    O3  743   4.380   5.382  10.192  1.1760 -0.3568 -0.6386
   11CHL1   H3'  744   4.332   5.306  10.225  1.0274 -0.2251 -0.5508
   11CHL1    C4  745   4.202   5.377  10.025  0.6317 -0.4109  0.5315
   11CHL1   H4A  746   4.162   5.286  10.075  2.1616 -0.9609  0.8273
   11CHL1   H4B  747   4.162   5.466  10.079  1.4707 -1.5069  3.1275
   11CHL1    C5  748   4.168   5.367   9.875 -0.1621  0.0831 -0.6570
   11CHL1    C6  749   4.086   5.457   9.818  0.4433 -0.0857 -0.0294
   11CHL1    H6  750   4.031   5.527   9.883 -0.0149 -2.0369  1.7902
   11CHL1    C7  751   4.049   5.469   9.675 -0.1521 -0.3614  0.9733
   11CHL1   H7A  752   3.944   5.500   9.655  0.3686 -0.3291 -2.2574
   11CHL1   H7B  753   4.100   5.554   9.626 -0.4793 -0.9064 -0.3640
   11CHL1    C8  754   4.086   5.343   9.594  0.0187 -0.1070 -0.7492
   11CHL1    H8  755   4.011   5.265   9.620  0.8423  0.0673  2.6610
   11CHL1   C14  756   4.079   5.372   9.446  0.3126  0.3165 -0.0970
   11CHL1   H14  757   4.162   5.445   9.431  0.6278 -0.2637 -1.2352
   11CHL1   C15  758   3.952   5.424   9.383  0.1033 -0.2693 -0.0204
   11CHL1  H15A  759   3.868   5.370   9.431 -0.4678  0.3330 -0.3239
   11CHL1  H15B  760   3.937   5.533   9.402 -1.6229 -0.5670  0.5068
   11CHL1   C16  761   3.959   5.397   9.226 -0.1974 -0.3414  0.3652
   11CHL1  H16A  762   3.875   5.339   9.182  0.8093 -0.3347 -1.6985
   11CHL1  H16B  763   3.954   5.498   9.179 -1.9169  0.2720  1.7690
   11CHL1   C17  764   4.094   5.314   9.208  0.0572 -0.1003  0.1043
   11CHL1   H17  765   4.165   5.399   9.198  0.4923 -0.3866  0.6977
   11CHL1   C13  766   4.121   5.256   9.349  0.5549  0.5756  0.6198
   11CHL1   C18  767   4.022   5.135   9.362  0.0183 -0.3258  0.0197
   11CHL1  H18A  768   4.050   5.058   9.287 -0.8560 -0.5430 -0.0941
   11CHL1  H18B  769   4.034   5.096   9.466 -0.8899 -0.9643 -0.0970
   11CHL1  H18C  770   3.913   5.155   9.352 -0.0569 -0.0290  1.2642
   11CHL1   C12  771   4.267   5.217   9.390  0.9862 -0.6568  0.5301
   11CHL1  H12A  772   4.292   5.139   9.315  0.3170  1.2936 -1.8369
   11CHL1  H12B  773   4.327   5.308   9.367 -1.3465  0.4695 -1.4753
   11CHL1   C11  774   4.285   5.186   9.537  0.4866  0.8108  0.7189
   11CHL1  H11A  775   4.236   5.086   9.543  1.6219  0.0945 -0.9570
   11CHL1  H11B  776   4.392   5.160   9.555  0.9835  0.3861 -2.4301
   11CHL1    C9  777   4.229   5.291   9.639  0.8061  0.4326 -0.3112
   11CHL1    H9  778   4.288   5.382   9.615  2.0911  0.0895  1.3453
   11CHL1   C10  779   4.241   5.260   9.793  0.2800  0.2609  0.4864
   11CHL1   C19  780   4.182   5.114   9.812 -0.8617  0.3324  0.1012
   11CHL1  H19A  781   4.247   5.037   9.763 -1.3458  0.3175 -0.5232
   11CHL1  H19B  782   4.182   5.085   9.919  0.1348  2.1880  0.6499
   11CHL1  H19C  783   4.080   5.107   9.769  0.1307 -1.5122 -2.1885
   11CHL1    C1  784   4.390   5.263   9.833 -0.1309  0.0781  0.5894
   11CHL1   H1A  785   4.445   5.180   9.784 -0.2966  2.0713 -3.3466
   11CHL1   H1B  786   4.435   5.352   9.784  0.0189  0.0355  0.6458
   11CHL1    C2  787   4.417   5.264   9.986  0.2210 -0.4030  0.5836
   11CHL1   H2A  788   4.525   5.286   9.999  0.0187 -0.1193  1.9710
   11CHL1   H2B  789   4.394   5.163  10.027  0.5366 -1.0918 -0.8868
   11CHL1   C20  790   4.113   5.234   9.086  0.0928  0.0562  0.7576
   11CHL1   H20  791   4.155   5.136   9.117 -1.4896 -1.4190 -1.4379
   11CHL1   C21  792   4.230   5.301   9.007 -0.0745 -0.1129  0.0458
   11CHL1  H21A  793   4.266   5.247   8.918  0.1668  1.8409 -1.1014
   11CHL1  H21B  794   4.313   5.294   9.081  0.7798 -1.5052 -0.9906
   11CHL1  H21C  795   4.215   5.409   8.986 -1.1263 -0.2864 -0.1616
   11CHL1   C22  796   3.996   5.193   8.991 -0.6896  0.3338 -0.1210
   11CHL1  H22A  797   4.027   5.100   8.938  0.4260 -0.3770  1.6427
   11CHL1  H22B  798   3.912   5.158   9.055 -1.5060 -1.5521 -2.1155
   11CHL1   C23  799   3.943   5.309   8.900  0.2601  0.7097 -0.0712
   11CHL1  H23A  800   3.916   5.401   8.956 -3.2385 -0.4668  0.3769
   11CHL1  H23B  801   4.014   5.330   8.817  0.4609  3.1119  0.6230
   11CHL1   C24  802   3.801   5.268   8.841 -0.3625  0.0222  0.9901
   11CHL1  H24A  803   3.793   5.164   8.803  0.8357 -0.0500  0.8794
   11CHL1  H24B  804   3.728   5.281   8.924 -1.5675  2.7721 -0.3758
   11CHL1   C25  805   3.741   5.371   8.741  0.7676 -0.7265  0.6524
   11CHL1   H25  806   3.816   5.379   8.660  1.0735  1.5631  1.0984
   11CHL1   C26  807   3.613   5.304   8.671 -0.3031  0.1919 -0.0985
   11CHL1  H26A  808   3.653   5.204   8.646  0.2269  0.0591  1.1836
   11CHL1  H26B  809   3.525   5.284   8.736 -1.6470  1.4865 -1.4413
   11CHL1  H26C  810   3.574   5.366   8.588 -1.2599  0.9354  0.8611
   11CHL1   C27  811   3.721   5.510   8.804  0.3020  0.2913  0.5907
   11CHL1  H27A  812   3.816   5.566   8.817  0.5843 -0.1066  0.2959
   11CHL1  H27B  813   3.655   5.574   8.741 -3.2316 -0.8701  2.8462
   11CHL1  H27C  814   3.672   5.507   8.903  1.3784  0.4494  1.1449
   12CHL1    C3  815   1.264   0.156  10.290 -0.6245  0.6767 -0.1898
   12CHL1    H3  816   1.341   0.093  10.240 -1.7523 -0.1203 -0.9625
   12CHL1    O3  817   1.278   0.143  10.430  0.5320  0.0827 -0.3889
   12CHL1   H3'  818   1.238   0.227  10.454  0.6359  0.4645 -1.4757
   12CHL1    C4  819   1.263   0.301  10.246  0.2008  0.2738 -0.4338
   12CHL1   H4A  820   1.179   0.350  10.299 -1.6088 -0.3688 -2.5644
   12CHL1   H4B  821   1.364   0.332  10.281  1.3773 -2.8881 -0.6769
   12CHL1    C5  822   1.246   0.317  10.096  0.2879  0.1643  0.4906
   12CHL1    C6  823   1.339   0.384  10.019 -0.0140 -0.5733 -0.5455
   12CHL1    H6  824   1.421   0.424  10.080 -0.2832 -0.9770  0.1008
   12CHL1    C7  825   1.324   0.420   9.873  0.0149 -0.9844 -0.9451
   12CHL1   H7A  826   1.334   0.531   9.871  0.9593 -1.0646 -1.3025
   12CHL1   H7B  827   1.408   0.376   9.814  1.4526 -2.6253  2.0757
   12CHL1    C8  828   1.178   0.390   9.823  0.0041 -0.5542  0.5923
   12CHL1    H8  829   1.110   0.470   9.860  1.0431  0.6740 -0.0562
   12CHL1   C14  830   1.194   0.385   9.671  0.2376 -0.1274  0.3461
   12CHL1   H14  831   1.266   0.301   9.655 -0.4350 -0.3710 -1.7908
   12CHL1   C15  832   1.249   0.509   9.602 -0.4324 -0.9861 -0.1233
   12CHL1  H15A  833   1.190   0.591   9.647 -0.1906 -0.9883  0.2068
   12CHL1  H15B  834   1.359   0.517   9.621 -0.7005 -0.2009  1.2248
   12CHL1   C16  835   1.213   0.478   9.454  0.3845 -0.0144  0.3103
   12CHL1  H16A  836   1.161   0.569   9.419  2.2648  1.5685  1.3801
   12CHL1  H16B  837   1.302   0.460   9.390 -1.1749 -0.6570 -1.7744
   12CHL1   C17  838   1.114   0.359   9.443  0.3625  0.0362 -0.6385
   12CHL1   H17  839   1.169   0.263   9.426 -0.5523 -0.4743 -0.7874
   12CHL1   C13  840   1.070   0.350   9.594 -0.0921 -0.0508  0.1205
   12CHL1   C18  841   0.961   0.457   9.613  0.5743 -0.5858 -0.7455
   12CHL1  H18A  842   0.863   0.413   9.588 -0.1859 -0.4019  1.6891
   12CHL1  H18B  843   0.947   0.473   9.722 -2.5073  0.4625 -1.1901
   12CHL1  H18C  844   0.976   0.558   9.568 -1.1180 -0.0440 -0.1526
   12CHL1   C12  845   1.011   0.216   9.648 -0.1507  0.3040 -0.4441
   12CHL1  H12A  846   0.912   0.197   9.602  0.4145 -0.6506 -1.2967
   12CHL1  H12B  847   1.072   0.126   9.626  0.8549  0.7646  0.3776
   12CHL1   C11  848   0.988   0.214   9.804  1.2918 -0.7933  0.4396
   12CHL1  H11A  849   0.896   0.271   9.828 -0.6532 -2.6008 -2.1055
   12CHL1  H11B  850   0.962   0.112   9.841  2.4833 -0.8463  1.1686
   12CHL1    C9  851   1.120   0.260   9.877  0.0424  0.5942 -0.2702
   12CHL1    H9  852   1.194   0.178   9.864 -0.9041 -0.4439  0.7150
   12CHL1   C10  853   1.113   0.255  10.038 -0.4496 -0.3588 -0.4283
   12CHL1   C19  854   0.987   0.331  10.081  0.0347 -0.2214  0.5166
   12CHL1  H19A  855   0.977   0.433  10.037 -1.9123  0.0105  1.4100
   12CHL1  H19B  856   0.897   0.268  10.065 -0.6757  0.6150  1.1354
   12CHL1  H19C  857   0.981   0.347  10.190 -0.6202  0.2007  0.4224
   12CHL1    C1  858   1.104   0.108  10.100 -0.7553 -0.0683 -0.0282
   12CHL1   H1A  859   1.011   0.056  10.070 -2.3152  1.8941  1.1626
   12CHL1   H1B  860   1.187   0.051  10.054 -0.8457 -0.2278  0.0043
   12CHL1    C2  861   1.128   0.100  10.249 -0.3145  0.2487  0.4604
   12CHL1   H2A  862   1.126  -0.009  10.270  0.4340 -0.3041 -2.0607
   12CHL1   H2B  863   1.046   0.138  10.314 -1.2535 -2.0905  0.7502
   12CHL1   C20  864   1.002   0.374   9.334  0.2077  0.1230  0.3610
   12CHL1   H20  865   0.931   0.454   9.365 -0.9800 -0.5150 -0.5789
   12CHL1   C21  866   0.921   0.239   9.318  0.1840 -0.2077 -0.0624
   12CHL1  H21A  867   0.847   0.252   9.237  1.4467  0.0700 -1.2006
   12CHL1  H21B  868   0.859   0.218   9.408 -1.3030  1.2479 -0.6995
   12CHL1  H21C  869   0.990   0.158   9.288  2.7443  2.3202 -1.4288
   12CHL1   C22  870   1.068   0.418   9.196  0.1001 -0.3125  0.5123
   12CHL1  H22A  871   1.134   0.505   9.214  1.1124 -1.1022  0.6830
   12CHL1  H22B  872   1.130   0.340   9.148  0.3244  0.6805 -0.8706
   12CHL1   C23  873   0.956   0.477   9.104 -0.2689 -0.5223  0.5039
   12CHL1  H23A  874   0.874   0.404   9.088  1.7946 -2.5727 -1.3457
   12CHL1  H23B  875   0.918   0.568   9.155  0.1308  0.1329 -0.3499
   12CHL1   C24  876   1.006   0.523   8.966  0.4781  0.3590 -0.2978
   12CHL1  H24A  877   1.034   0.426   8.921 -0.8427  0.0160 -0.4139
   12CHL1  H24B  878   0.925   0.569   8.905  1.6895  0.5349 -1.8512
   12CHL1   C25  879   1.122   0.625   8.966  0.1049 -0.1752  0.5753
   12CHL1   H25  880   1.195   0.590   9.042  0.3980 -0.3506  0.2173
   12CHL1   C26  881   1.182   0.627   8.820  0.2324 -0.3983  0.2006
   12CHL1  H26A  882   1.290   0.600   8.824  0.2470 -0.7600 -1.7317
   12CHL1  H26B  883   1.145   0.538   8.765  2.1818 -0.8652 -0.4288
   12CHL1  H26C  884   1.164   0.722   8.764  2.5382 -0.0632 -0.0744
   12CHL1   C27  885   1.078   0.764   8.998  0.4965 -0.0340 -0.1739
   12CHL1  H27A  886   1.161   0.834   9.023 -0.3078  0.3415  1.6323
   12CHL1  H27B  887   1.016   0.812   8.919  0.8759  1.5005  0.4273
   12CHL1  H27C  888   1.015   0.779   9.088 -0.3391  2.7065 -1.1056
   13CHL1    C3  889   0.814   2.822   9.967 -0.5819 -0.3941 -0.2183
   13CHL1    H3  890   0.747   2.777   9.890 -1.6405  1.6412 -0.5749
   13CHL1    O3  891   0.778   2.784  10.091 -0.5160 -0.2880 -0.3287
   13CHL1   H3'  892   0.831   2.707  10.112 -1.3338 -1.0771 -1.0737
   13CHL1    C4  893   0.968   2.789   9.934  0.7025  0.0229 -0.6405
   13CHL1   H4A  894   1.030   2.853   9.999  1.7834 -2.2408  0.6870
   13CHL1   H4B  895   0.996   2.683   9.952 -1.4365 -0.6753 -1.0863
   13CHL1    C5  896   0.994   2.833   9.787 -0.8813 -0.0661 -0.3872
   13CHL1    C6  897   1.020   2.738   9.697  0.3921  0.2521 -0.1562
   13CHL1    H6  898   1.009   2.635   9.735 -0.1740  0.9832  1.7975
   13CHL1    C7  899   1.053   2.755   9.551 -0.3545 -0.3280 -0.0291
   13CHL1   H7A  900   1.144   2.696   9.527  1.1422  0.7962  2.4379
   13CHL1   H7B  901   0.968   2.723   9.487  0.1263 -2.2543  0.2503
   13CHL1    C8  902   1.084   2.907   9.519  0.2006  0.3928  0.4459
   13CHL1    H8  903   1.183   2.928   9.565  0.8193  2.3177 -1.5634
   13CHL1   C14  904   1.086   2.937   9.364 -0.4945  0.5810  0.5328
   13CHL1   H14  905   0.978   2.933   9.339 -0.6179  0.4719  1.0674
   13CHL1   C15  906   1.174   2.854   9.269 -0.0553  0.1457  0.0968
   13CHL1  H15A  907   1.271   2.824   9.315  0.5461  1.5150 -0.2274
   13CHL1  H15B  908   1.127   2.758   9.239 -2.3027  0.3722  2.5939
   13CHL1   C16  909   1.203   2.935   9.148  0.2898 -0.3327  0.4333
   13CHL1  H16A  910   1.311   2.955   9.131 -0.0470  0.8282 -0.4785
   13CHL1  H16B  911   1.170   2.886   9.054 -1.3470 -1.6643  1.6415
   13CHL1   C17  912   1.127   3.072   9.173 -0.2450  0.5041 -0.4496
   13CHL1   H17  913   1.025   3.060   9.131  0.7507 -0.9842 -2.6295
   13CHL1   C13  914   1.109   3.082   9.328  0.6710 -0.9726  0.4058
   13CHL1   C18  915   1.251   3.124   9.378  0.0132 -1.5081 -0.0309
   13CHL1  H18A  916   1.279   3.115   9.485  3.7708  0.7057 -0.6294
   13CHL1  H18B  917   1.329   3.076   9.314 -2.0380  0.5044 -4.4648
   13CHL1  H18C  918   1.273   3.228   9.345 -0.9881 -1.2595  0.0519
   13CHL1   C12  919   0.998   3.167   9.389  0.1129 -0.2933 -1.0926
   13CHL1  H12A  920   0.993   3.275   9.364 -2.6140 -0.2651 -0.7938
   13CHL1  H12B  921   0.898   3.142   9.346 -0.5534  1.2252 -0.5106
   13CHL1   C11  922   0.991   3.144   9.543 -0.3685  0.3390  0.0574
   13CHL1  H11A  923   1.074   3.199   9.593  3.1307 -2.4213 -2.1724
   13CHL1  H11B  924   0.901   3.197   9.581 -0.8542  0.5628 -1.3510
   13CHL1    C9  925   0.979   2.996   9.595 -0.1077 -0.7471  0.0208
   13CHL1    H9  926   0.879   2.968   9.555 -0.7950  1.2273  0.2064
   13CHL1   C10  927   0.973   2.983   9.756 -0.4562  0.4001  0.1089
   13CHL1   C19  928   1.091   3.059   9.817 -0.2165  0.3701 -0.3365
   13CHL1  H19A  929   1.104   3.045   9.927 -1.3005  0.1292 -0.2249
   13CHL1  H19B  930   1.182   3.045   9.755  1.1749  1.4975  1.3672
   13CHL1  H19C  931   1.076   3.167   9.794 -0.7643 -0.1721 -2.8056
   13CHL1    C1  932   0.832   3.018   9.808  0.0713  0.5105 -0.3266
   13CHL1   H1A  933   0.820   3.128   9.798 -1.6845  0.2326 -1.5609
   13CHL1   H1B  934   0.751   2.970   9.749  0.8357  0.0582 -1.0273
   13CHL1    C2  935   0.804   2.973   9.949 -0.8629 -0.5673 -0.3270
   13CHL1   H2A  936   0.701   3.007   9.973 -0.3740  1.9546 -1.4794
   13CHL1   H2B  937   0.867   3.030  10.020 -0.9886 -1.9322  0.9243
   13CHL1   C20  938   1.194   3.186   9.096  0.2167  0.5491  0.0145
   13CHL1   H20  939   1.292   3.212   9.140 -0.2032  1.8019  0.2694
   13CHL1   C21  940   1.106   3.316   9.116 -0.1193 -0.1986  0.2826
   13CHL1  H21A  941   1.145   3.392   9.046 -1.0969  0.3099  0.2612
   13CHL1  H21B  942   1.130   3.359   9.216 -0.5583  0.8651 -0.0490
   13CHL1  H21C  943   0.997   3.302   9.098 -0.2724  0.2362  0.8105
   13CHL1   C22  944   1.217   3.158   8.937  0.0445  0.0513  0.3681
   13CHL1  H22A  945   1.283   3.238   8.899 -2.3018  1.4570 -1.0047
   13CHL1  H22B  946   1.279   3.066   8.938 -0.2979 -0.1824  0.6044
   13CHL1   C23  947   1.094   3.149   8.846 -0.5837 -0.0850 -0.1064
   13CHL1  H23A  948   1.033   3.068   8.892 -1.4548  0.8347  0.3850
   13CHL1  H23B  949   1.036   3.241   8.870  2.2347  1.3093  1.9289
   13CHL1   C24  950   1.133   3.138   8.696  0.1811  0.4420  0.9624
   13CHL1  H24A  951   1.187   3.229   8.662 -0.7440 -0.3144 -3.0320
   13CHL1  H24B  952   1.205   3.055   8.680  0.4629  0.3413  2.5663
   13CHL1   C25  953   1.005   3.115   8.605  0.3618  0.2499 -0.6993
   13CHL1   H25  954   1.042   3.100   8.501  0.0424 -0.6699 -0.6793
   13CHL1   C26  955   0.923   2.992   8.640 -0.0584  0.3035  0.1731
   13CHL1  H26A  956   0.881   3.017   8.740  0.1327  1.7874 -0.1013
   13CHL1  H26B  957   0.843   2.981   8.565  3.2603  2.9926 -4.2831
   13CHL1  H26C  958   0.991   2.905   8.657  1.8598  1.7215  0.1028
   13CHL1   C27  959   0.916   3.244   8.601  0.1647 -0.4600 -0.0418
   13CHL1  H27A  960   0.849   3.242   8.513  3.3025 -1.1502 -2.6057
   13CHL1  H27B  961   0.864   3.261   8.698 -0.9512 -0.6073 -0.6047
   13CHL1  H27C  962   0.987   3.330   8.598  3.1597 -2.8075 -1.8386
   14CHL1    C3  963   5.876   6.573  10.273  0.3085 -0.0635  0.1961
   14CHL1    H3  964   5.930   6.478  10.253 -1.0866 -0.7533 -0.3858
   14CHL1    O3  965   5.859   6.587  10.417 -0.4021  0.2046  0.0455
   14CHL1   H3'  966   5.806   6.667  10.425  2.2127  2.0762 -0.0470
   14CHL1    C4  967   5.930   6.706  10.218 -0.1483 -0.2648  0.0413
   14CHL1   H4A  968   5.860   6.784  10.254 -0.4715  0.4273 -1.9748
   14CHL1   H4B  969   6.024   6.719  10.276 -0.1511 -1.6306  0.3938
   14CHL1    C5  970   5.942   6.704  10.066  0.0901  0.6634  0.5018
   14CHL1    C6  971   6.060   6.729  10.003 -0.8968 -0.2964  0.5394
   14CHL1    H6  972   6.147   6.762  10.062 -0.5201  0.2733 -0.3120
   14CHL1    C7  973   6.074   6.740   9.856 -0.0978  0.1619 -0.1671
   14CHL1   H7A  974   6.140   6.826   9.833  0.5541 -0.4149 -0.4957
   14CHL1   H7B  975   6.132   6.650   9.826 -0.8843  0.0569 -1.4816
   14CHL1    C8  976   5.937   6.748   9.789  0.2020  0.1096  0.3516
   14CHL1    H8  977   5.892   6.850   9.795 -0.4504 -0.1073 -0.5608
   14CHL1   C14  978   5.964   6.713   9.641  0.4190 -0.6129 -0.0041
   14CHL1   H14  979   6.003   6.609   9.636  0.6075 -0.5002 -1.0574
   14CHL1   C15  980   6.070   6.793   9.561 -0.4739  0.0038 -0.2956
   14CHL1  H15A  981   6.064   6.902   9.580 -1.0557  0.3494 -2.1656
   14CHL1  H15B  982   6.170   6.751   9.586  0.2113  0.7797 -1.5898
   14CHL1   C16  983   6.039   6.755   9.418 -0.0190 -0.1744  0.5380
   14CHL1  H16A  984   6.057   6.837   9.346 -1.3626 -0.4811 -0.1949
   14CHL1  H16B  985   6.117   6.682   9.389 -1.7631 -1.0546 -2.3772
   14CHL1   C17  986   5.906   6.677   9.419  0.1627  0.0630  0.7829
   14CHL1   H17  987   5.925   6.569   9.435 -0.3589 -0.2352 -0.4434
   14CHL1   C13  988   5.840   6.721   9.551 -0.6015  0.0883  0.3180
   14CHL1   C18  989   5.779   6.859   9.541  0.1970  0.1268 -0.0259
   14CHL1  H18A  990   5.689   6.855   9.477 -0.9975 -0.5981  1.6252
   14CHL1  H18B  991   5.759   6.888   9.647  1.0905 -0.7396  0.4031
   14CHL1  H18C  992   5.849   6.933   9.496  0.6241 -1.2712 -1.7773
   14CHL1   C12  993   5.734   6.620   9.614 -0.3581 -0.8447  0.6104
   14CHL1  H12A  994   5.641   6.618   9.552 -1.0510  0.9181  1.5017
   14CHL1  H12B  995   5.771   6.516   9.617  0.3969 -0.6208 -0.4216
   14CHL1   C11  996   5.701   6.652   9.763 -0.6094  0.0592  0.6434
   14CHL1  H11A  997   5.654   6.752   9.756 -1.0114 -0.1739 -0.1761
   14CHL1  H11B  998   5.620   6.584   9.796 -0.2887  0.5364  2.5175
   14CHL1    C9  999   5.829   6.653   9.846 -0.4758 -0.1008  0.0292
   14CHL1    H9 1000   5.874   6.552   9.837  1.6990  0.6384  1.7997
   14CHL1   C10 1001   5.808   6.673   9.998  0.3012  0.4493 -0.7238
   14CHL1   C19 1002   5.713   6.795  10.016  0.1466  0.0400 -0.3022
   14CHL1  H19A 1003   5.715   6.830  10.121  3.1182  1.3737 -0.7198
   14CHL1  H19B 1004   5.738   6.878   9.947  0.9201 -0.2500 -0.3735
   14CHL1  H19C 1005   5.606   6.770   9.995  0.5165 -0.2755 -1.9681
   14CHL1    C1 1006   5.744   6.547  10.060  0.5051 -0.8452 -0.4644
   14CHL1   H1A 1007   5.643   6.533  10.016  0.3993 -2.4657  0.2326
   14CHL1   H1B 1008   5.799   6.456  10.025  0.3400 -0.9211 -0.5288
   14CHL1    C2 1009   5.735   6.550  10.216 -0.3100 -0.4741 -0.0083
   14CHL1   H2A 1010   5.694   6.453  10.251  2.6614 -2.8513 -2.4354
   14CHL1   H2B 1011   5.652   6.620  10.238 -1.5539 -1.7551 -0.4407
   14CHL1   C20 1012   5.822   6.695   9.285  0.4903  0.0063  0.0959
   14CHL1   H20 1013   5.793   6.802   9.279  0.8966  0.1356  0.3904
   14CHL1   C21 1014   5.695   6.607   9.271 -0.0894 -0.3607 -0.2245
   14CHL1  H21A 1015   5.632   6.604   9.363 -0.2112  2.2430 -0.1705
   14CHL1  H21B 1016   5.730   6.502   9.255  0.2582 -0.3496  0.4076
   14CHL1  H21C 1017   5.622   6.645   9.197 -0.0554 -1.0170 -0.6058
   14CHL1   C22 1018   5.918   6.668   9.166 -0.1937 -0.1708  1.3113
   14CHL1  H22A 1019   6.018   6.636   9.201  0.2286  1.4381  1.6102
   14CHL1  H22B 1020   5.878   6.578   9.114  2.3352  0.5800 -2.2603
   14CHL1   C23 1021   5.937   6.785   9.059 -0.1893 -0.0693  0.7776
   14CHL1  H23A 1022   5.841   6.811   9.010  0.4808  0.6100 -0.2320
   14CHL1  H23B 1023   5.963   6.878   9.114 -1.0463  1.1404 -0.7673
   14CHL1   C24 1024   6.041   6.761   8.946 -0.1075  0.0848 -0.6080
   14CHL1  H24A 1025   6.027   6.845   8.874 -1.1651  1.4000  1.0453
   14CHL1  H24B 1026   6.143   6.782   8.983 -0.2977  0.6270 -0.3613
   14CHL1   C25 1027   6.023   6.623   8.871  0.1975  0.3893 -0.3250
   14CHL1   H25 1028   6.037   6.531   8.932  0.0391  1.0690  0.7541
   14CHL1   C26 1029   5.879   6.606   8.801  0.0203  0.1083 -0.1275
   14CHL1  H26A 1030   5.805   6.596   8.883 -1.6182 -0.4010 -1.6205
   14CHL1  H26B 1031   5.846   6.694   8.743 -2.2219 -1.2587 -1.0623
   14CHL1  H26C 1032   5.871   6.513   8.740  0.1111  1.1344 -1.7667
   14CHL1   C27 1033   6.121   6.633   8.757 -0.6055 -0.0700  0.0668
   14CHL1  H27A 1034   6.084   6.702   8.678 -0.9643 -0.0450  0.2530
   14CHL1  H27B 1035   6.213   6.684   8.795 -0.7311  0.9139 -0.9031
   14CHL1  H27C 1036   6.140   6.538   8.704  1.5530  1.1939 -1.5715
   15CHL1    C3 1037   4.898   3.600  10.167 -0.1383  0.1904  0.6856
   15CHL1    H3 1038   4.880   3.494  10.136 -1.2054  0.1289  1.4650
   15CHL1    O3 1039   4.924   3.607  10.304 -0.2934 -0.9627 -0.4389
   15CHL1   H3' 1040   5.008   3.565  10.322  0.0757  0.0999  0.4753
   15CHL1    C4 1041   5.017   3.660  10.078 -0.2240  0.3136  0.0174
   15CHL1   H4A 1042   5.037   3.763  10.115 -1.8676  0.5048  0.4626
   15CHL1   H4B 1043   5.105   3.594  10.092 -0.6057 -0.3322 -0.5461
   15CHL1    C5 1044   4.992   3.675   9.928  0.2535  0.0433  0.3866
   15CHL1    C6 1045   5.071   3.619   9.833 -0.3992 -0.3506  0.1389
   15CHL1    H6 1046   5.164   3.564   9.853 -0.3764 -0.0418  0.8971
   15CHL1    C7 1047   5.058   3.640   9.688  0.3406 -0.7161  0.1973
   15CHL1   H7A 1048   5.158   3.674   9.652  1.6811 -1.9222  2.5677
   15CHL1   H7B 1049   5.032   3.550   9.628  2.0021  1.0449 -3.4941
   15CHL1    C8 1050   4.955   3.758   9.658 -0.8488  0.4286 -0.0695
   15CHL1    H8 1051   5.009   3.852   9.683 -0.9933  0.5356 -0.1591
   15CHL1   C14 1052   4.913   3.752   9.515  0.3950 -0.4621 -0.2665
   15CHL1   H14 1053   4.851   3.661   9.498 -2.2762  1.2415 -0.2762
   15CHL1   C15 1054   5.021   3.723   9.407  0.0492 -0.3564  0.4924
   15CHL1  H15A 1055   5.113   3.777   9.437  0.2306 -0.2916 -0.1676
   15CHL1  H15B 1056   5.044   3.617   9.386 -0.8897 -0.3307 -0.7944
   15CHL1   C16 1057   4.962   3.779   9.281  0.3968 -0.3367  0.0381
   15CHL1  H16A 1058   5.028   3.854   9.232  2.7379 -3.1480 -1.4261
   15CHL1  H16B 1059   4.946   3.709   9.196 -0.5399 -0.1530  0.0460
   15CHL1   C17 1060   4.817   3.839   9.309 -0.6896 -0.2777  0.1130
   15CHL1   H17 1061   4.747   3.755   9.290 -1.2611  0.3328 -0.5448
   15CHL1   C13 1062   4.823   3.864   9.460 -0.6513  0.1035 -0.4227
   15CHL1   C18 1063   4.888   4.000   9.483  0.4142  0.5401 -0.1907
   15CHL1  H18A 1064   4.918   4.010   9.589 -1.1491 -0.7146  0.4105
   15CHL1  H18B 1065   4.974   4.021   9.415  1.2234  2.4786  1.3449
   15CHL1  H18C 1066   4.810   4.077   9.468  0.2964  0.8238  1.7183
   15CHL1   C12 1067   4.696   3.845   9.538  0.5374 -0.0257 -0.5647
   15CHL1  H12A 1068   4.610   3.910   9.510 -0.4933 -1.1499 -0.0935
   15CHL1  H12B 1069   4.656   3.742   9.521 -0.0384  0.1623 -0.3795
   15CHL1   C11 1070   4.730   3.858   9.688 -0.2754 -0.2386 -0.5155
   15CHL1  H11A 1071   4.770   3.960   9.705  0.5717 -0.4264 -1.3228
   15CHL1  H11B 1072   4.641   3.853   9.754  0.6014 -1.3494  0.6364
   15CHL1    C9 1073   4.835   3.749   9.740 -0.1403  0.6509 -0.2730
   15CHL1    H9 1074   4.795   3.648   9.718 -0.5095  1.0689 -1.5628
   15CHL1   C10 1075   4.873   3.755   9.896  0.3940  0.7572 -0.2211
   15CHL1   C19 1076   4.901   3.908   9.934  0.4823 -0.3447  0.1231
   15CHL1  H19A 1077   4.994   3.946   9.887  0.9580  1.4391  2.2965
   15CHL1  H19B 1078   4.822   3.978   9.898  0.7750 -0.2906 -0.4292
   15CHL1  H19C 1079   4.916   3.926  10.043 -0.1439  2.7114 -0.1956
   15CHL1    C1 1080   4.753   3.704   9.978  0.1167  0.5336 -0.4269
   15CHL1   H1A 1081   4.663   3.768   9.970 -1.5081 -1.4412  1.0217
   15CHL1   H1B 1082   4.718   3.603   9.948 -1.3367  0.7555  0.4344
   15CHL1    C2 1083   4.777   3.688  10.133 -0.1918  0.5531  0.8396
   15CHL1   H2A 1084   4.693   3.641  10.190  1.7791 -1.4836  2.2371
   15CHL1   H2B 1085   4.793   3.792  10.167 -0.5813  0.3225  1.7563
   15CHL1   C20 1086   4.777   3.954   9.214 -0.3373 -0.5871  0.5363
   15CHL1   H20 1087   4.841   4.043   9.232 -1.3092  0.4618 -1.0293
   15CHL1   C21 1088   4.635   3.985   9.247  0.2284 -0.0904 -1.2284
   15CHL1  H21A 1089   4.577   3.891   9.263 -0.1460  0.3654  0.2646
   15CHL1  H21B 1090   4.589   4.044   9.164 -1.3556  1.3540  0.5857
   15CHL1  H21C 1091   4.612   4.040   9.341 -0.4392 -0.6539 -1.0497
   15CHL1   C22 1092   4.782   3.909   9.066 -0.3472 -0.0597 -0.2099
   15CHL1  H22A 1093   4.742   3.805   9.063 -1.1514  0.2611 -1.2743
   15CHL1  H22B 1094   4.714   3.966   8.999 -1.1190  1.3393  1.6612
   15CHL1   C23 1095   4.921   3.918   9.002  0.2865  0.1896  0.4097
   15CHL1  H23A 1096   4.978   4.006   9.039 -0.4478  0.3040  1.3091
   15CHL1  H23B 1097   4.976   3.828   9.038  0.2540 -0.0789 -0.1999
   15CHL1   C24 1098   4.913   3.927   8.846 -0.1023  0.1150 -0.5142
   15CHL1  H24A 1099   4.824   3.872   8.811 -1.7234 -0.4381  3.8484
   15CHL1  H24B 1100   4.897   4.033   8.817 -1.0579  0.3846  0.8886
   15CHL1   C25 1101   5.042   3.868   8.786  0.8047  0.0956 -1.2244
   15CHL1   H25 1102   5.053   3.763   8.822  0.3360  0.2937 -0.4989
   15CHL1   C26 1103   5.027   3.859   8.630 -0.4710  0.4680 -0.7976
   15CHL1  H26A 1104   5.115   3.808   8.583  0.2706 -0.3050  1.2969
   15CHL1  H26B 1105   4.932   3.807   8.605 -0.7226  1.1239 -1.2321
   15CHL1  H26C 1106   5.020   3.963   8.592  3.0080  1.1865  0.1378
   15CHL1   C27 1107   5.167   3.942   8.831  0.0678  0.1799 -0.1739
   15CHL1  H27A 1108   5.252   3.902   8.772 -0.6805 -3.8595  1.1631
   15CHL1  H27B 1109   5.153   4.046   8.793 -2.0540 -0.7467 -2.1632
   15CHL1  H27C 1110   5.188   3.940   8.940  2.9577 -1.1010 -0.6499
   16CHL1    C3 1111   5.934   5.037  10.213  0.4366 -0.7332  0.7850
   16CHL1    H3 1112   5.942   5.147  10.229  3.4188 -0.9432  1.4070
   16CHL1    O3 1113   5.906   4.982  10.340  0.8747 -0.5535  0.5151
   16CHL1   H3' 1114   5.899   4.887  10.326  0.0293 -0.7805  2.2343
   16CHL1    C4 1115   5.812   5.017  10.125 -0.1752 -0.7771 -0.0327
   16CHL1   H4A 1116   5.782   4.911  10.142 -0.3262 -0.9135 -1.0693
   16CHL1   H4B 1117   5.733   5.082  10.169 -0.2289 -1.0784  0.3259
   16CHL1    C5 1118   5.834   5.047   9.978 -0.8590 -0.1726 -0.3135
   16CHL1    C6 1119   5.757   5.139   9.922 -0.0821 -0.5444  0.3339
   16CHL1    H6 1120   5.681   5.185   9.987 -0.0681 -1.8228  1.3024
   16CHL1    C7 1121   5.770   5.183   9.781 -0.4785  0.3134  0.6590
   16CHL1   H7A 1122   5.670   5.193   9.734 -0.7759 -2.2139  0.6168
   16CHL1   H7B 1123   5.819   5.282   9.785 -1.5736  0.8711  0.6835
   16CHL1    C8 1124   5.864   5.092   9.695  0.0191 -0.3874  0.2698
   16CHL1    H8 1125   5.798   5.006   9.670  0.6919 -0.1502 -2.6781
   16CHL1   C14 1126   5.897   5.159   9.561 -0.4283 -0.3299 -0.1158
   16CHL1   H14 1127   5.954   5.251   9.585 -1.1083  0.2025 -0.4889
   16CHL1   C15 1128   5.784   5.206   9.478  0.2768  0.2579 -0.3159
   16CHL1  H15A 1129   5.695   5.143   9.498 -0.7503  1.7075 -0.1718
   16CHL1  H15B 1130   5.757   5.313   9.496 -0.0995  0.1304 -0.1262
   16CHL1   C16 1131   5.825   5.200   9.329 -0.2219 -0.1966  0.2858
   16CHL1  H16A 1132   5.768   5.126   9.269  1.4067 -1.7782  0.6232
   16CHL1  H16B 1133   5.821   5.296   9.272  2.0737 -1.0032 -1.3687
   16CHL1   C17 1134   5.969   5.142   9.341  0.4761 -0.4113 -0.8557
   16CHL1   H17 1135   6.033   5.230   9.363 -0.3046 -0.1159  0.3034
   16CHL1   C13 1136   5.976   5.070   9.473  0.8198 -0.1631 -0.2405
   16CHL1   C18 1137   5.903   4.933   9.453  0.0170  0.4473 -0.3751
   16CHL1  H18A 1138   5.798   4.948   9.419 -1.5563 -1.8315  2.9846
   16CHL1  H18B 1139   5.965   4.881   9.377  0.4046  0.5450 -0.1256
   16CHL1  H18C 1140   5.903   4.872   9.546 -3.6332  1.7812  0.6619
   16CHL1   C12 1141   6.115   5.048   9.540 -0.4834 -0.0850 -0.2539
   16CHL1  H12A 1142   6.160   4.970   9.475 -2.2766 -2.8658  1.6166
   16CHL1  H12B 1143   6.170   5.142   9.563 -2.3347  1.6441 -2.4009
   16CHL1   C11 1144   6.102   4.975   9.680 -0.2293 -0.0326  0.4101
   16CHL1  H11A 1145   6.065   4.872   9.664  0.4374 -0.3584  0.8879
   16CHL1  H11B 1146   6.202   4.957   9.725  0.4201 -0.3507 -1.1062
   16CHL1    C9 1147   5.993   5.050   9.768  0.0447 -0.7350 -0.6710
   16CHL1    H9 1148   6.042   5.146   9.797 -1.4212 -0.0384 -0.4127
   16CHL1   C10 1149   5.964   4.986   9.912  0.2191 -0.7221  1.0835
   16CHL1   C19 1150   5.923   4.841   9.891 -0.4581  0.2178  0.5861
   16CHL1  H19A 1151   5.882   4.792   9.981 -2.5979 -0.9555 -0.9488
   16CHL1  H19B 1152   5.845   4.840   9.812  0.3310  2.5118 -0.3074
   16CHL1  H19C 1153   6.005   4.778   9.850 -0.3769  1.0997 -0.6735
   16CHL1    C1 1154   6.085   5.007  10.012  0.6066  0.0610  0.3700
   16CHL1   H1A 1155   6.160   4.938   9.969 -0.4776 -0.4035 -0.8365
   16CHL1   H1B 1156   6.104   5.116  10.005  1.2404 -0.1375 -1.3624
   16CHL1    C2 1157   6.057   4.970  10.160  0.1651 -0.5004 -0.0053
   16CHL1   H2A 1158   6.149   4.986  10.220 -0.1423  1.3365  0.0294
   16CHL1   H2B 1159   6.047   4.859  10.153  3.7228 -1.0143  1.0977
   16CHL1   C20 1160   6.031   5.076   9.215  0.4216 -0.1290  0.4223
   16CHL1   H20 1161   6.122   5.021   9.249  0.6110 -1.2520 -1.7851
   16CHL1   C21 1162   6.079   5.196   9.134 -0.1750 -1.1177  0.3071
   16CHL1  H21A 1163   6.162   5.250   9.184 -0.7664 -0.4597  0.5955
   16CHL1  H21B 1164   5.988   5.260   9.127  0.5516  0.0350  1.1266
   16CHL1  H21C 1165   6.118   5.176   9.032  0.4498 -0.4105  0.4056
   16CHL1   C22 1166   5.938   4.985   9.133 -0.5634  0.0808  0.3892
   16CHL1  H22A 1167   5.890   4.903   9.191  0.9869 -1.4444 -0.3854
   16CHL1  H22B 1168   5.859   5.051   9.090  0.0088  0.7375  0.3485
   16CHL1   C23 1169   6.001   4.917   9.007  0.1804 -0.3334  0.3295
   16CHL1  H23A 1170   6.061   4.989   8.949  1.2879 -1.0577  0.5466
   16CHL1  H23B 1171   6.078   4.840   9.029  0.7856 -0.5570 -2.2699
   16CHL1   C24 1172   5.898   4.868   8.907 -0.6442  0.6660  1.0845
   16CHL1  H24A 1173   5.836   4.790   8.956 -0.5005  0.5188  1.0355
   16CHL1  H24B 1174   5.839   4.959   8.882 -0.6006  0.4467  0.1328
   16CHL1   C25 1175   5.962   4.819   8.779 -0.1403  0.4406 -0.5413
   16CHL1   H25 1176   6.048   4.885   8.756 -0.0997  0.5313 -0.1451
   16CHL1   C26 1177   6.024   4.680   8.804 -0.4968  0.5091  0.5398
   16CHL1  H26A 1178   5.948   4.612   8.849  0.2923 -0.9771 -0.2610
   16CHL1  H26B 1179   6.053   4.628   8.710  0.8671  0.4253  0.9791
   16CHL1  H26C 1180   6.121   4.687   8.857 -0.6863  2.4710  0.6686
   16CHL1   C27 1181   5.866   4.820   8.665 -0.5862 -0.4584  0.2268
   16CHL1  H27A 1182   5.788   4.744   8.688  1.1998 -1.9267  1.7529
   16CHL1  H27B 1183   5.818   4.920   8.673 -0.1477 -0.4244  4.0273
   16CHL1  H27C 1184   5.910   4.795   8.565 -2.3509 -0.4031 -0.5970
   17CHL1    C3 1185   2.957   1.773  10.448  0.7150 -0.0626  0.4484
   17CHL1    H3 1186   2.878   1.702  10.416  0.4868  1.1807 -1.9458
   17CHL1    O3 1187   2.971   1.762  10.590  0.0633  0.9348  0.4081
   17CHL1   H3' 1188   3.027   1.686  10.605  0.0033  0.7588 -0.2263
   17CHL1    C4 1189   3.093   1.766  10.376  0.3551 -0.1081  0.2581
   17CHL1   H4A 1190   3.173   1.825  10.426  0.2852  0.1006  0.1232
   17CHL1   H4B 1191   3.128   1.661  10.381 -0.3449 -0.3668 -0.2121
   17CHL1    C5 1192   3.072   1.812  10.233 -0.2878  0.9324  0.1758
   17CHL1    C6 1193   3.109   1.729  10.135  0.3561  0.2877 -0.2166
   17CHL1    H6 1194   3.146   1.629  10.162 -0.7066 -0.7505 -2.3617
   17CHL1    C7 1195   3.106   1.774   9.993  0.4593 -0.5482 -0.1336
   17CHL1   H7A 1196   3.183   1.725   9.930  1.1954  2.2112 -1.5141
   17CHL1   H7B 1197   3.004   1.748   9.956  0.2819 -1.1225  0.7362
   17CHL1    C8 1198   3.112   1.934   9.974 -0.1111 -0.4310 -0.5480
   17CHL1    H8 1199   3.215   1.965  10.004 -0.4285 -0.6932  0.9112
   17CHL1   C14 1200   3.082   1.960   9.831  0.2168 -0.1967 -0.2315
   17CHL1   H14 1201   2.979   1.922   9.812  0.0003  0.8658 -1.3232
   17CHL1   C15 1202   3.156   1.882   9.721 -0.0893  0.2459  0.4119
   17CHL1  H15A 1203   3.267   1.893   9.728 -0.2041  2.1182  0.0040
   17CHL1  H15B 1204   3.123   1.777   9.706  1.0905 -0.0866  0.0423
   17CHL1   C16 1205   3.108   1.965   9.597  0.8439  0.0240  0.7391
   17CHL1  H16A 1206   3.197   2.005   9.542  0.1081  0.1336 -0.3902
   17CHL1  H16B 1207   3.050   1.909   9.522  0.7349 -0.0154  0.8532
   17CHL1   C17 1208   3.021   2.089   9.645 -0.4320  0.5559 -0.3349
   17CHL1   H17 1209   2.913   2.065   9.641 -0.5202  0.6019  1.3709
   17CHL1   C13 1210   3.070   2.101   9.793  0.3005 -0.2948 -0.1410
   17CHL1   C18 1211   3.202   2.178   9.793 -0.0594 -0.0417 -0.3279
   17CHL1  H18A 1212   3.255   2.143   9.884 -0.4282  0.5959  0.1386
   17CHL1  H18B 1213   3.266   2.157   9.705  1.2644  2.0217  0.0848
   17CHL1  H18C 1214   3.186   2.288   9.796 -0.0320  0.0071 -1.4086
   17CHL1   C12 1215   2.970   2.172   9.882  0.0613 -0.9998 -0.5934
   17CHL1  H12A 1216   2.973   2.282   9.866  1.8440 -0.7114  1.2301
   17CHL1  H12B 1217   2.866   2.139   9.861 -0.4276  0.7031 -1.0694
   17CHL1   C11 1218   2.998   2.148  10.039 -0.2631  0.0114  1.1667
   17CHL1  H11A 1219   3.089   2.195  10.082 -1.5791  2.2463  1.6603
   17CHL1  H11B 1220   2.907   2.188  10.089 -1.0741 -0.0929 -0.1791
   17CHL1    C9 1221   3.007   1.997  10.069  0.4236 -0.1284 -0.2468
   17CHL1    H9 1222   2.913   1.949  10.033 -0.2319  1.6339 -1.0287
   17CHL1   C10 1223   3.021   1.956  10.216  0.5211 -0.7055  0.2758
   17CHL1   C19 1224   3.124   2.050  10.286 -0.1065 -0.1433 -0.6795
   17CHL1  H19A 1225   3.087   2.154  10.294 -0.1545 -0.2288  0.2665
   17CHL1  H19B 1226   3.148   2.021  10.390  2.9778 -1.1326 -1.5635
   17CHL1  H19C 1227   3.226   2.057  10.242  0.2952  0.3939  0.3204
   17CHL1    C1 1228   2.884   1.955  10.283 -0.1163 -0.3080 -0.2733
   17CHL1   H1A 1229   2.845   2.058  10.268  2.3836  0.6337 -0.8255
   17CHL1   H1B 1230   2.822   1.885  10.223 -0.4965  0.2740 -0.5656
   17CHL1    C2 1231   2.895   1.915  10.431  0.1018 -0.2877  0.3993
   17CHL1   H2A 1232   2.793   1.908  10.473  0.3530 -1.6231  0.8385
   17CHL1   H2B 1233   2.956   1.990  10.487  0.2609  0.6346 -0.9739
   17CHL1   C20 1234   3.032   2.216   9.555  0.0345  0.4647 -0.3889
   17CHL1   H20 1235   3.128   2.264   9.581  1.5056 -2.8856  0.9028
   17CHL1   C21 1236   2.905   2.307   9.590 -0.0377 -0.0759  0.5227
   17CHL1  H21A 1237   2.903   2.382   9.508  1.5837 -1.2743 -0.6954
   17CHL1  H21B 1238   2.910   2.367   9.683 -0.5999  1.9181 -0.6758
   17CHL1  H21C 1239   2.805   2.260   9.596 -0.1649  0.3284  1.9951
   17CHL1   C22 1240   3.026   2.180   9.404 -0.0090  0.2467  0.3097
   17CHL1  H22A 1241   3.036   2.280   9.356 -4.9239 -0.6512 -3.3102
   17CHL1  H22B 1242   3.109   2.112   9.377  1.2353  2.3103 -1.3356
   17CHL1   C23 1243   2.894   2.117   9.359  0.7100 -0.3397  0.3806
   17CHL1  H23A 1244   2.883   2.019   9.410 -0.8376  0.4959  1.7378
   17CHL1  H23B 1245   2.806   2.177   9.391  0.5886  0.5672 -1.4990
   17CHL1   C24 1246   2.872   2.088   9.210 -0.3090 -0.3420  0.6964
   17CHL1  H24A 1247   2.765   2.061   9.199 -0.8417  1.7315  0.3198
   17CHL1  H24B 1248   2.888   2.184   9.156  0.4851 -0.6839  0.3000
   17CHL1   C25 1249   2.964   1.982   9.133 -0.3142 -0.4194  0.0730
   17CHL1   H25 1250   3.062   2.033   9.138 -0.7244  0.3896  0.0861
   17CHL1   C26 1251   2.957   1.840   9.186 -0.7862  0.2242 -0.2591
   17CHL1  H26A 1252   2.994   1.845   9.291 -1.8732  1.3369  0.0976
   17CHL1  H26B 1253   2.855   1.796   9.192  0.7381 -3.9364 -1.2950
   17CHL1  H26C 1254   3.019   1.765   9.133  0.3592 -0.6443  2.1632
   17CHL1   C27 1255   2.924   1.979   8.988  1.1906  0.0648  0.2789
   17CHL1  H27A 1256   2.821   1.937   8.980  1.6000 -1.1992  1.3341
   17CHL1  H27B 1257   2.925   2.074   8.931 -2.0616  0.0497  0.0094
   17CHL1  H27C 1258   2.983   1.900   8.936 -2.8828 -1.8683 -1.8864
   18CHL1    C3 1259   3.323   0.438  10.022  0.0891 -0.1174  0.0850
   18CHL1    H3 1260   3.347   0.542   9.991 -3.5275  1.6867  2.6663
   18CHL1    O3 1261   3.337   0.431  10.165 -0.0386 -0.0121  0.1904
   18CHL1   H3' 1262   3.257   0.384  10.189  0.1404 -1.0842 -1.1705
   18CHL1    C4 1263   3.191   0.389   9.969 -0.2527 -0.2310 -0.1953
   18CHL1   H4A 1264   3.185   0.280   9.985  1.3349 -0.5135 -1.4213
   18CHL1   H4B 1265   3.110   0.443  10.024  2.0396  4.4106 -0.8086
   18CHL1    C5 1266   3.193   0.414   9.820  0.8419 -0.0471 -0.3307
   18CHL1    C6 1267   3.107   0.500   9.769 -0.2245  0.0713  0.2942
   18CHL1    H6 1268   3.029   0.550   9.829 -1.4895 -0.6979 -0.6726
   18CHL1    C7 1269   3.109   0.536   9.620  0.0068 -0.7693  0.8607
   18CHL1   H7A 1270   3.008   0.523   9.576 -0.0050 -0.1093  0.6848
   18CHL1   H7B 1271   3.144   0.640   9.603  1.5640 -0.7665  3.5415
   18CHL1    C8 1272   3.191   0.442   9.529  0.1984 -0.8306  0.3472
   18CHL1    H8 1273   3.132   0.348   9.517  0.4806 -0.9141 -0.4105
   18CHL1   C14 1274   3.221   0.505   9.398 -0.2717 -0.6284 -0.0068
   18CHL1   H14 1275   3.271   0.603   9.409  2.6482 -2.0398  0.0860
   18CHL1   C15 1276   3.094   0.543   9.312  0.2968  0.2345 -0.9055
   18CHL1  H15A 1277   3.028   0.454   9.314  1.3835 -0.5831 -0.0170
   18CHL1  H15B 1278   3.036   0.633   9.342 -0.9967 -0.5135 -1.1253
   18CHL1   C16 1279   3.152   0.565   9.173  0.4441 -0.3230 -0.0287
   18CHL1  H16A 1280   3.085   0.532   9.090  0.3195 -0.0643 -0.0319
   18CHL1  H16B 1281   3.177   0.671   9.152  2.0841 -0.6202  0.2690
   18CHL1   C17 1282   3.286   0.494   9.171 -0.4175 -0.0112 -0.0254
   18CHL1   H17 1283   3.365   0.571   9.186 -0.6254  0.2254 -0.1556
   18CHL1   C13 1284   3.305   0.423   9.302 -0.2334  0.1411  0.6273
   18CHL1   C18 1285   3.243   0.283   9.283  0.5435 -0.4137 -0.4635
   18CHL1  H18A 1286   3.235   0.225   9.378 -1.6494 -0.8635 -0.8528
   18CHL1  H18B 1287   3.141   0.282   9.238  0.0660 -0.5660  0.5957
   18CHL1  H18C 1288   3.303   0.213   9.220  2.2270 -0.7915  1.4856
   18CHL1   C12 1289   3.443   0.406   9.365  0.4963  0.6255 -0.6523
   18CHL1  H12A 1290   3.503   0.338   9.301 -0.0508 -0.4873 -0.0067
   18CHL1  H12B 1291   3.493   0.505   9.374  0.4799  0.6359 -0.6752
   18CHL1   C11 1292   3.425   0.340   9.502  0.2410 -0.1522  0.0603
   18CHL1  H11A 1293   3.400   0.232   9.490  0.6505 -0.1276 -1.1876
   18CHL1  H11B 1294   3.525   0.342   9.550  0.9693 -1.4291 -1.3064
   18CHL1    C9 1295   3.322   0.411   9.599 -0.0818 -1.0358  0.4630
   18CHL1    H9 1296   3.367   0.511   9.608 -1.3016 -0.2654 -1.3770
   18CHL1   C10 1297   3.305   0.352   9.738  1.0477 -0.2379 -0.4448
   18CHL1   C19 1298   3.281   0.199   9.724  0.1440  0.0150 -0.0989
   18CHL1  H19A 1299   3.229   0.142   9.804  0.2536 -0.4617 -0.3630
   18CHL1  H19B 1300   3.215   0.174   9.638 -0.1988 -1.2325  0.5026
   18CHL1  H19C 1301   3.379   0.150   9.703  0.1824  0.5853 -1.3319
   18CHL1    C1 1302   3.446   0.374   9.813  0.0445 -0.4774 -0.6620
   18CHL1   H1A 1303   3.521   0.305   9.769  0.3703 -1.1368  0.8500
   18CHL1   H1B 1304   3.475   0.481   9.812  2.5446 -1.0963 -1.9532
   18CHL1    C2 1305   3.434   0.339   9.960  0.0751 -0.2280 -0.4658
   18CHL1   H2A 1306   3.528   0.363  10.015 -0.0308  0.6951 -0.6607
   18CHL1   H2B 1307   3.401   0.234   9.972 -0.3085 -0.3021 -1.9717
   18CHL1   C20 1308   3.309   0.426   9.035  0.4182 -0.8180  0.1368
   18CHL1   H20 1309   3.231   0.351   9.007 -1.2729  0.4784  1.1536
   18CHL1   C21 1310   3.451   0.366   9.032 -0.0365  0.4123 -0.2245
   18CHL1  H21A 1311   3.475   0.311   8.938  0.7893  0.5890 -0.1268
   18CHL1  H21B 1312   3.473   0.289   9.108  0.0239  1.0262  0.3894
   18CHL1  H21C 1313   3.518   0.454   9.037 -0.1446  0.5085 -0.4376
   18CHL1   C22 1314   3.300   0.523   8.912  0.5374 -0.3930 -0.3427
   18CHL1  H22A 1315   3.199   0.568   8.896 -0.2230 -1.6537  0.7128
   18CHL1  H22B 1316   3.375   0.603   8.932  0.5162 -0.6646  0.9110
   18CHL1   C23 1317   3.324   0.446   8.779  0.0025 -0.0742  0.0321
   18CHL1  H23A 1318   3.435   0.432   8.775 -0.0222 -1.5003  2.2679
   18CHL1  H23B 1319   3.276   0.346   8.787  0.3192 -0.1839  0.6555
   18CHL1   C24 1320   3.286   0.529   8.661 -0.1277  0.1795  0.1373
   18CHL1  H24A 1321   3.176   0.545   8.662 -0.6552 -2.9702  0.0652
   18CHL1  H24B 1322   3.335   0.628   8.655 -0.8638  0.5069 -0.8161
   18CHL1   C25 1323   3.312   0.469   8.519  0.5983 -0.1574 -0.5159
   18CHL1   H25 1324   3.419   0.440   8.518  0.3175 -1.2366 -1.4559
   18CHL1   C26 1325   3.232   0.339   8.492  0.1554 -0.2382  0.6980
   18CHL1  H26A 1326   3.244   0.266   8.576 -1.1010  0.3281  1.3963
   18CHL1  H26B 1327   3.124   0.361   8.486 -0.1184 -1.3093  1.3086
   18CHL1  H26C 1328   3.263   0.286   8.399 -0.0474 -0.6676  0.8716
   18CHL1   C27 1329   3.276   0.564   8.406 -0.1964 -0.3477 -0.3085
   18CHL1  H27A 1330   3.330   0.657   8.434  3.0229 -2.2819  0.4170
   18CHL1  H27B 1331   3.313   0.536   8.305 -1.0366  1.0754 -1.0475
   18CHL1  H27C 1332   3.167   0.585   8.396  0.2752  1.7840 -1.5796
   19CHL1    C3 1333   5.448   3.534  10.070 -0.4841 -0.2628  0.4973
   19CHL1    H3 1334   5.340   3.539  10.049 -0.8698  2.9922  2.4344
   19CHL1    O3 1335   5.471   3.526  10.207 -0.1486 -0.0277 -0.6788
   19CHL1   H3' 1336   5.563   3.529  10.233 -0.5914  1.2199  0.9190
   19CHL1    C4 1337   5.497   3.403  10.012  0.4384 -0.3573 -0.2720
   19CHL1   H4A 1338   5.605   3.401  10.036  0.0258  0.9162  2.0308
   19CHL1   H4B 1339   5.433   3.323  10.055  0.4052 -0.6765 -0.9048
   19CHL1    C5 1340   5.479   3.395   9.860 -0.3507 -0.2081 -0.0811
   19CHL1    C6 1341   5.408   3.300   9.798 -0.3247 -0.6305 -0.0105
   19CHL1    H6 1342   5.354   3.225   9.859 -2.7311  0.8570 -0.1620
   19CHL1    C7 1343   5.374   3.304   9.653 -0.5637  0.4519  0.8559
   19CHL1   H7A 1344   5.392   3.201   9.613  0.2172  0.8766  0.0555
   19CHL1   H7B 1345   5.264   3.313   9.650 -0.6780 -0.8510 -0.7343
   19CHL1    C8 1346   5.452   3.408   9.556  0.7445  0.3359  0.2699
   19CHL1    H8 1347   5.551   3.357   9.550  0.3183 -0.4036 -0.9444
   19CHL1   C14 1348   5.372   3.427   9.432  0.0068 -0.4880  0.6099
   19CHL1   H14 1349   5.279   3.471   9.473 -0.3949 -0.1166 -0.6417
   19CHL1   C15 1350   5.336   3.308   9.341  0.3523 -0.5870 -0.5862
   19CHL1  H15A 1351   5.429   3.247   9.340  0.2508 -0.9715  2.4172
   19CHL1  H15B 1352   5.248   3.248   9.373  0.2568 -0.2402 -0.1824
   19CHL1   C16 1353   5.308   3.369   9.206 -0.3234 -0.1126 -0.1165
   19CHL1  H16A 1354   5.378   3.331   9.129 -0.6116  0.1641 -0.5236
   19CHL1  H16B 1355   5.208   3.359   9.158  0.1762 -0.6344 -1.0641
   19CHL1   C17 1356   5.335   3.522   9.215  0.3006  0.5672  0.2161
   19CHL1   H17 1357   5.239   3.558   9.256  0.2753 -1.6474  2.3488
   19CHL1   C13 1358   5.427   3.532   9.336  0.3820 -0.0806  0.4949
   19CHL1   C18 1359   5.567   3.491   9.289  0.2585  0.2370  0.0478
   19CHL1  H18A 1360   5.630   3.453   9.373 -0.9099  0.9683  1.2790
   19CHL1  H18B 1361   5.566   3.407   9.215  1.3032 -1.5275  1.9277
   19CHL1  H18C 1362   5.620   3.573   9.237  0.7228 -0.1684 -0.1314
   19CHL1   C12 1363   5.434   3.666   9.417  0.3431  0.8693 -0.8843
   19CHL1  H12A 1364   5.475   3.742   9.346 -2.6305  0.8802 -2.7363
   19CHL1  H12B 1365   5.338   3.699   9.461  0.3375  0.8328 -0.8708
   19CHL1   C11 1366   5.523   3.646   9.539 -0.7138  1.5693 -0.1348
   19CHL1  H11A 1367   5.621   3.611   9.500 -1.1394  1.4509 -1.1264
   19CHL1  H11B 1368   5.542   3.742   9.592 -1.6664  0.5761  2.1307
   19CHL1    C9 1369   5.462   3.542   9.632 -0.1967 -0.4405 -0.3490
   19CHL1    H9 1370   5.360   3.582   9.650  1.6674  3.2002  4.4434
   19CHL1   C10 1371   5.526   3.525   9.781  0.4572 -0.0985 -0.1553
   19CHL1   C19 1372   5.677   3.512   9.755 -0.3385 -0.1904 -1.3012
   19CHL1  H19A 1373   5.723   3.503   9.856 -2.2828 -0.1117 -0.3663
   19CHL1  H19B 1374   5.707   3.424   9.694  0.5004 -0.4406 -0.5529
   19CHL1  H19C 1375   5.723   3.608   9.723  0.0519  0.4256  0.9163
   19CHL1    C1 1376   5.496   3.656   9.863  0.3783  0.2071  0.8230
   19CHL1   H1A 1377   5.556   3.739   9.819 -3.0318  0.8268 -3.3826
   19CHL1   H1B 1378   5.390   3.684   9.846  0.7974  0.3693 -2.1530
   19CHL1    C2 1379   5.528   3.653  10.010 -0.1012 -0.1159 -0.1871
   19CHL1   H2A 1380   5.497   3.749  10.058  0.7205 -0.5325  1.2375
   19CHL1   H2B 1381   5.630   3.633  10.051 -0.6972  2.0992  2.7446
   19CHL1   C20 1382   5.366   3.591   9.086  0.0906  0.6468 -0.2053
   19CHL1   H20 1383   5.476   3.589   9.071 -0.0122  0.7293 -1.0015
   19CHL1   C21 1384   5.323   3.734   9.102 -0.0561  0.0014 -0.0271
   19CHL1  H21A 1385   5.391   3.784   9.173 -0.6228 -0.4025  0.8117
   19CHL1  H21B 1386   5.218   3.755   9.133  0.4801 -0.4444  2.2075
   19CHL1  H21C 1387   5.336   3.781   9.002 -0.8771 -2.4171 -1.3767
   19CHL1   C22 1388   5.285   3.524   8.965  0.4868 -0.8123  0.5401
   19CHL1  H22A 1389   5.282   3.413   8.965 -0.8999 -0.7789 -0.1418
   19CHL1  H22B 1390   5.180   3.553   8.986  1.3144  3.3854 -0.2355
   19CHL1   C23 1391   5.325   3.574   8.822 -0.4276  0.2720  0.1603
   19CHL1  H23A 1392   5.330   3.685   8.820  0.4065  0.2450  0.2533
   19CHL1  H23B 1393   5.432   3.550   8.804 -0.0014  1.4701  0.9077
   19CHL1   C24 1394   5.232   3.521   8.716  0.1303  0.1868 -0.1735
   19CHL1  H24A 1395   5.238   3.410   8.716  2.0203  0.2510  0.6207
   19CHL1  H24B 1396   5.130   3.556   8.742  1.1705  1.5433  2.4679
   19CHL1   C25 1397   5.258   3.572   8.570 -0.9035 -0.0793 -0.3065
   19CHL1   H25 1398   5.268   3.682   8.562  0.1500 -0.1270  0.2569
   19CHL1   C26 1399   5.385   3.503   8.511  0.1307 -0.7658  0.0053
   19CHL1  H26A 1400   5.412   3.531   8.407 -0.6140 -0.3064 -0.0735
   19CHL1  H26B 1401   5.467   3.533   8.580  1.9398  0.2302 -2.4447
   19CHL1  H26C 1402   5.380   3.392   8.502  2.7713 -0.8846 -0.7287
   19CHL1   C27 1403   5.145   3.525   8.481 -0.6040  0.6528  0.5484
   19CHL1  H27A 1404   5.051   3.568   8.521  0.3321  2.4499  0.9079
   19CHL1  H27B 1405   5.153   3.556   8.374 -0.7752  1.6735  0.8214
   19CHL1  H27C 1406   5.133   3.415   8.491  3.8217 -0.0051  0.9184
   20CHL1    C3 1407   1.108   4.737  10.136  0.1896 -0.1735  0.7463
   20CHL1    H3 1408   1.026   4.812  10.126  2.6529  2.4122 -1.5791
   20CHL1    O3 1409   1.142   4.736  10.273  0.7167  0.6149 -0.0845
   20CHL1   H3' 1410   1.194   4.655  10.281  1.0249  0.7355 -0.8237
   20CHL1    C4 1411   1.056   4.598  10.093  0.0322 -0.5981  0.8710
   20CHL1   H4A 1412   1.146   4.533  10.101  1.2906  0.5611 -2.1319
   20CHL1   H4B 1413   0.978   4.585  10.171  0.5772  1.0304  1.7409
   20CHL1    C5 1414   1.009   4.596   9.950  0.3166 -0.3772 -0.5301
   20CHL1    C6 1415   0.888   4.549   9.917  0.3863  0.5057  0.0795
   20CHL1    H6 1416   0.825   4.499   9.992  1.1906 -0.5417  0.0857
   20CHL1    C7 1417   0.834   4.553   9.772 -0.4104 -0.7711 -0.5294
   20CHL1   H7A 1418   0.790   4.453   9.754 -1.8207 -0.6004  1.5888
   20CHL1   H7B 1419   0.744   4.617   9.761 -0.3406 -0.2963  1.2988
   20CHL1    C8 1420   0.950   4.579   9.674  0.5249  0.1038 -0.0714
   20CHL1    H8 1421   1.001   4.482   9.660 -0.7981 -0.3103 -2.4790
   20CHL1   C14 1422   0.885   4.624   9.542 -0.9551  0.0582 -0.3011
   20CHL1   H14 1423   0.846   4.723   9.573 -2.7896 -1.4103  2.5149
   20CHL1   C15 1424   0.770   4.549   9.483  0.6320  0.2746  0.1445
   20CHL1  H15A 1425   0.794   4.441   9.477 -0.3975 -0.0203  0.9743
   20CHL1  H15B 1426   0.677   4.558   9.543 -0.2238 -1.1587 -0.9048
   20CHL1   C16 1427   0.759   4.609   9.337  0.9800  0.7803 -0.9608
   20CHL1  H16A 1428   0.721   4.536   9.262  0.3945  1.5235 -1.4067
   20CHL1  H16B 1429   0.684   4.690   9.351 -1.8041 -1.7879  0.1894
   20CHL1   C17 1430   0.887   4.689   9.314 -0.2689 -0.0382  0.1369
   20CHL1   H17 1431   0.856   4.793   9.342 -0.3939  0.7794 -2.7097
   20CHL1   C13 1432   0.983   4.642   9.426  0.5029 -0.3693  0.6305
   20CHL1   C18 1433   1.048   4.513   9.383  0.1683  0.2913  0.3332
   20CHL1  H18A 1434   0.966   4.440   9.363  0.3395 -0.0162  0.7304
   20CHL1  H18B 1435   1.116   4.530   9.297 -1.5189 -0.5783 -1.2451
   20CHL1  H18C 1436   1.116   4.482   9.466 -0.0873 -0.5560  0.2375
   20CHL1   C12 1437   1.087   4.749   9.463 -0.2318 -0.1555 -0.0816
   20CHL1  H12A 1438   1.164   4.771   9.386  0.0933  0.0808  0.3131
   20CHL1  H12B 1439   1.030   4.844   9.464 -1.6008 -0.9471 -0.0132
   20CHL1   C11 1440   1.156   4.716   9.596 -0.2028  0.2020 -0.0583
   20CHL1  H11A 1441   1.211   4.621   9.580 -2.7309 -1.3814  0.1030
   20CHL1  H11B 1442   1.225   4.799   9.621 -0.7293  0.8435 -0.6861
   20CHL1    C9 1443   1.054   4.685   9.712 -0.3544  0.4940 -0.2356
   20CHL1    H9 1444   0.996   4.779   9.723 -0.5113  0.1523  2.9469
   20CHL1   C10 1445   1.118   4.662   9.850  0.3513  0.3889  0.5685
   20CHL1   C19 1446   1.236   4.562   9.843  0.2904 -1.3124 -0.6626
   20CHL1  H19A 1447   1.340   4.603   9.845  0.7378 -2.3882  1.6301
   20CHL1  H19B 1448   1.237   4.505   9.939  0.2030  1.9371  1.4314
   20CHL1  H19C 1449   1.224   4.490   9.760 -1.4514 -1.0773 -0.6476
   20CHL1    C1 1450   1.172   4.801   9.901  0.2668 -0.1996  0.1066
   20CHL1   H1A 1451   1.255   4.840   9.838 -0.1488  0.1594 -0.2252
   20CHL1   H1B 1452   1.092   4.878   9.898  1.5454  1.3005  1.8625
   20CHL1    C2 1453   1.222   4.801  10.049  0.6412  0.3151  0.2836
   20CHL1   H2A 1454   1.256   4.901  10.081  1.5945  0.0555  0.1172
   20CHL1   H2B 1455   1.313   4.739  10.057 -0.0097 -1.0211 -1.6962
   20CHL1   C20 1456   0.947   4.706   9.170  0.6101 -0.4742  0.5534
   20CHL1   H20 1457   1.052   4.669   9.177  0.9986  0.7099  1.6688
   20CHL1   C21 1458   0.958   4.858   9.144  0.5839 -0.3316 -0.3985
   20CHL1  H21A 1459   1.012   4.885   9.050 -0.7142  1.5161 -0.6803
   20CHL1  H21B 1460   1.001   4.914   9.230  2.3624  1.1009 -2.1254
   20CHL1  H21C 1461   0.854   4.895   9.132  0.6790  0.0106 -0.2029
   20CHL1   C22 1462   0.866   4.638   9.054  0.4934 -0.7158  1.0877
   20CHL1  H22A 1463   0.875   4.528   9.069  1.2045 -0.6700  1.0056
   20CHL1  H22B 1464   0.769   4.684   9.081  0.5640  0.1922 -0.1412
   20CHL1   C23 1465   0.900   4.678   8.914 -0.1724 -0.2917 -0.3099
   20CHL1  H23A 1466   0.883   4.783   8.882 -0.9241  0.4049  2.1571
   20CHL1  H23B 1467   1.011   4.665   8.908 -0.2966 -2.3924  1.0348
   20CHL1   C24 1468   0.843   4.584   8.812  0.6345  0.2669 -0.2007
   20CHL1  H24A 1469   0.882   4.599   8.709 -1.8000 -2.7263 -1.7221
   20CHL1  H24B 1470   0.850   4.475   8.834 -1.9372  0.2941  1.1427
   20CHL1   C25 1471   0.695   4.619   8.791 -0.4392 -0.9252  0.2037
   20CHL1   H25 1472   0.638   4.603   8.885  0.7276  1.9042  1.5084
   20CHL1   C26 1473   0.663   4.768   8.754 -0.4266 -0.4651  0.7766
   20CHL1  H26A 1474   0.693   4.831   8.841  1.7064  1.5138 -1.2192
   20CHL1  H26B 1475   0.723   4.790   8.663 -1.8121 -3.1629 -0.9228
   20CHL1  H26C 1476   0.560   4.805   8.737  0.1115  1.1354  0.8092
   20CHL1   C27 1477   0.639   4.523   8.684  0.9160  0.5475 -0.2937
   20CHL1  H27A 1478   0.678   4.420   8.702 -0.0867  0.5141  2.0535
   20CHL1  H27B 1479   0.529   4.511   8.691  0.9382 -1.7603 -2.5275
   20CHL1  H27C 1480   0.654   4.552   8.578 -1.4256 -0.0990 -0.8556
   21CHL1    C3 1481   1.504   6.531  10.176 -0.0085  0.3839 -0.5029
   21CHL1    H3 1482   1.611   6.534  10.146  0.5894 -1.0582  1.2606
   21CHL1    O3 1483   1.492   6.518  10.318 -0.8185  0.0082 -0.2698
   21CHL1   H3' 1484   1.415   6.566  10.349 -1.4984  0.4504 -2.5023
   21CHL1    C4 1485   1.446   6.666  10.139 -0.5060 -0.1534 -0.7135
   21CHL1   H4A 1486   1.340   6.661  10.173  0.0101  0.4207  1.0330
   21CHL1   H4B 1487   1.498   6.738  10.205 -0.1625  1.4783 -2.6400
   21CHL1    C5 1488   1.439   6.693   9.994  0.1050  0.5306  0.0867
   21CHL1    C6 1489   1.483   6.805   9.940  0.4697  0.4897  0.1417
   21CHL1    H6 1490   1.542   6.874  10.002  0.6826  0.3397  0.1104
   21CHL1    C7 1491   1.472   6.835   9.792 -0.3629 -0.5929  0.0592
   21CHL1   H7A 1492   1.430   6.937   9.782 -0.5278 -0.5733  0.8532
   21CHL1   H7B 1493   1.577   6.850   9.758 -0.0254  2.1958  1.9747
   21CHL1    C8 1494   1.391   6.741   9.708  0.9056 -1.1887 -0.0209
   21CHL1    H8 1495   1.285   6.770   9.722  1.4652  0.2278  1.7206
   21CHL1   C14 1496   1.436   6.750   9.566 -0.0737 -1.0267 -0.3973
   21CHL1   H14 1497   1.538   6.708   9.558  1.7235  2.5005  1.6836
   21CHL1   C15 1498   1.450   6.899   9.509 -0.7693  0.2925 -1.1743
   21CHL1  H15A 1499   1.379   6.975   9.549 -0.2656  1.2772 -2.1052
   21CHL1  H15B 1500   1.550   6.943   9.525 -0.3024 -0.3044 -2.3612
   21CHL1   C16 1501   1.438   6.872   9.357  0.1920  0.3602  0.4783
   21CHL1  H16A 1502   1.350   6.921   9.311  0.5469  0.3748 -0.1855
   21CHL1  H16B 1503   1.527   6.910   9.303  0.5001  1.1375  1.5053
   21CHL1   C17 1504   1.425   6.722   9.335  0.1089  0.4632 -0.6527
   21CHL1   H17 1505   1.529   6.682   9.342  0.4681  1.6513  1.9596
   21CHL1   C13 1506   1.353   6.674   9.465  0.1197  0.0988 -0.0134
   21CHL1   C18 1507   1.203   6.722   9.462  0.3988  1.2445  0.7057
   21CHL1  H18A 1508   1.159   6.713   9.564 -0.8198  1.6834  0.2392
   21CHL1  H18B 1509   1.185   6.826   9.424 -0.3163  1.3587  1.3189
   21CHL1  H18C 1510   1.143   6.653   9.398  0.8888  0.9783  0.5317
   21CHL1   C12 1511   1.377   6.523   9.504  0.5853 -0.3099 -0.3517
   21CHL1  H12A 1512   1.316   6.451   9.445 -0.7899  1.2622 -0.9256
   21CHL1  H12B 1513   1.485   6.501   9.489  0.7926 -1.3179  2.2187
   21CHL1   C11 1514   1.344   6.499   9.657 -0.1450  0.8108  0.7652
   21CHL1  H11A 1515   1.234   6.513   9.663 -0.5851 -0.9756 -1.7329
   21CHL1  H11B 1516   1.385   6.397   9.675  4.5833  2.1210 -0.9424
   21CHL1    C9 1517   1.413   6.600   9.753 -1.2236 -0.0092  0.2303
   21CHL1    H9 1518   1.523   6.582   9.747 -1.1147 -0.1325  2.0459
   21CHL1   C10 1519   1.384   6.581   9.904  0.0037 -0.9252  0.3558
   21CHL1   C19 1520   1.230   6.580   9.924  0.4480  0.2307 -0.0278
   21CHL1  H19A 1521   1.178   6.663   9.872 -0.2898 -1.5719 -2.3765
   21CHL1  H19B 1522   1.182   6.481   9.909  0.3529  0.2204  0.3500
   21CHL1  H19C 1523   1.215   6.579  10.034  0.9924 -0.5234  0.0527
   21CHL1    C1 1524   1.439   6.448   9.951  0.5684  0.1950 -0.6231
   21CHL1   H1A 1525   1.371   6.367   9.917  0.7576 -0.8494  1.3381
   21CHL1   H1B 1526   1.542   6.420   9.919  0.9902  1.2083 -0.1681
   21CHL1    C2 1527   1.426   6.423  10.102  0.3741 -0.0577  0.9432
   21CHL1   H2A 1528   1.463   6.324  10.139  1.2518 -0.1980 -0.2350
   21CHL1   H2B 1529   1.317   6.429  10.120  0.3998 -0.7018  1.3887
   21CHL1   C20 1530   1.374   6.701   9.195  0.3174 -0.1002  0.4340
   21CHL1   H20 1531   1.267   6.730   9.183  0.7623  1.0451 -1.0635
   21CHL1   C21 1532   1.371   6.550   9.167 -0.0185  0.4124 -0.8697
   21CHL1  H21A 1533   1.315   6.498   9.247  0.8006 -0.9076 -1.1292
   21CHL1  H21B 1534   1.476   6.515   9.159 -0.4777 -1.7681  1.5403
   21CHL1  H21C 1535   1.306   6.532   9.079  0.9417  1.2694 -1.7967
   21CHL1   C22 1536   1.454   6.769   9.078 -0.4545  0.7240  0.0729
   21CHL1  H22A 1537   1.480   6.872   9.112  0.8143 -0.1132  1.7853
   21CHL1  H22B 1538   1.548   6.712   9.086 -1.4621 -1.0777 -0.3676
   21CHL1   C23 1539   1.394   6.751   8.936  0.0948 -0.2752 -0.2791
   21CHL1  H23A 1540   1.395   6.644   8.907 -2.9628 -0.1933 -1.0729
   21CHL1  H23B 1541   1.287   6.783   8.943  0.3330  0.9982 -1.8303
   21CHL1   C24 1542   1.457   6.830   8.831  0.1046  0.6161  0.4838
   21CHL1  H24A 1543   1.563   6.798   8.840  0.3410  1.2540  0.0056
   21CHL1  H24B 1544   1.438   6.814   8.723  2.5747 -0.5180  0.1479
   21CHL1   C25 1545   1.462   6.987   8.856  0.0812 -0.0769  0.3889
   21CHL1   H25 1546   1.510   7.003   8.955  1.9742  1.1449 -0.6677
   21CHL1   C26 1547   1.549   7.064   8.752 -0.0142 -0.1919  0.0334
   21CHL1  H26A 1548   1.657   7.035   8.752 -0.1059 -0.6578 -1.5605
   21CHL1  H26B 1549   1.498   7.050   8.655  1.8498  1.0808 -1.1944
   21CHL1  H26C 1550   1.542   7.172   8.775 -1.5180  0.2068 -2.0071
   21CHL1   C27 1551   1.313   7.038   8.853  0.0564 -0.3473  0.5582
   21CHL1  H27A 1552   1.310   7.149   8.852 -0.6658 -0.3616 -0.6749
   21CHL1  H27B 1553   1.263   7.021   8.755  1.6955  1.9246 -0.7427
   21CHL1  H27C 1554   1.256   7.000   8.940  1.1765 -0.0136  1.4619
   22CHL1    C3 1555   1.928   1.496  10.195 -0.1436 -0.7476  0.6309
   22CHL1    H3 1556   1.968   1.597  10.219 -1.0906 -0.2159  0.0248
   22CHL1    O3 1557   1.957   1.421  10.313 -0.9077  0.1735 -0.0297
   22CHL1   H3' 1558   1.900   1.460  10.380  0.9173  0.0065  1.7054
   22CHL1    C4 1559   1.776   1.509  10.170 -0.2296  0.1097 -0.6804
   22CHL1   H4A 1560   1.726   1.410  10.173 -2.1021  1.0224 -0.5271
   22CHL1   H4B 1561   1.733   1.555  10.261  1.2365  0.1887 -0.0013
   22CHL1    C5 1562   1.744   1.571  10.036  0.1819  0.0359 -0.2810
   22CHL1    C6 1563   1.661   1.678  10.025  0.2919  0.4559  0.6831
   22CHL1    H6 1564   1.630   1.732  10.116  1.1504 -0.3546  1.4806
   22CHL1    C7 1565   1.615   1.745   9.904  0.2516 -0.4818 -0.3535
   22CHL1   H7A 1566   1.507   1.767   9.897  0.2657 -0.7806 -2.0752
   22CHL1   H7B 1567   1.665   1.844   9.908 -0.1503 -0.3329  1.7792
   22CHL1    C8 1568   1.655   1.668   9.772  0.2819  0.1806 -0.1502
   22CHL1    H8 1569   1.579   1.587   9.771 -0.2973  0.6633  1.5605
   22CHL1   C14 1570   1.648   1.747   9.638 -0.0243 -0.5565 -0.2422
   22CHL1   H14 1571   1.707   1.839   9.655 -4.0044  1.9777  1.1868
   22CHL1   C15 1572   1.502   1.798   9.608 -0.1626  0.5681 -0.6006
   22CHL1  H15A 1573   1.443   1.710   9.639 -1.9727  1.6849 -0.7289
   22CHL1  H15B 1574   1.490   1.890   9.669  2.5798  0.6003  0.0403
   22CHL1   C16 1575   1.504   1.820   9.457  0.7337 -0.7503  0.0207
   22CHL1  H16A 1576   1.413   1.772   9.413  0.5760  0.5448 -1.1495
   22CHL1  H16B 1577   1.490   1.928   9.436 -1.3212 -1.3611 -2.3081
   22CHL1   C17 1578   1.639   1.761   9.404  0.4989  0.8866  0.4855
   22CHL1   H17 1579   1.703   1.852   9.409  2.7990 -0.3223 -2.8934
   22CHL1   C13 1580   1.693   1.679   9.522  0.0535  0.0227 -0.4332
   22CHL1   C18 1581   1.625   1.541   9.499  0.7059 -0.6118  0.1138
   22CHL1  H18A 1582   1.517   1.561   9.481  1.1100  0.8186 -0.9450
   22CHL1  H18B 1583   1.661   1.471   9.421  0.7785 -0.2470 -0.1859
   22CHL1  H18C 1584   1.629   1.479   9.592 -0.3739 -2.0077 -0.7395
   22CHL1   C12 1585   1.842   1.667   9.538 -0.5420  0.6005  0.2604
   22CHL1  H12A 1586   1.874   1.622   9.442  0.2804 -1.7675  1.5852
   22CHL1  H12B 1587   1.891   1.766   9.550  2.0810 -0.6674  0.4694
   22CHL1   C11 1588   1.866   1.570   9.665 -1.0103  0.0800 -0.0693
   22CHL1  H11A 1589   1.847   1.465   9.634  2.4236 -0.0066 -2.4276
   22CHL1  H11B 1590   1.976   1.576   9.675 -0.6439 -0.4138 -2.8755
   22CHL1    C9 1591   1.798   1.620   9.794  0.2710 -0.4142 -0.2511
   22CHL1    H9 1592   1.859   1.707   9.825  2.0505 -1.2573 -1.1922
   22CHL1   C10 1593   1.811   1.512   9.907  0.6531 -0.4364  0.1962
   22CHL1   C19 1594   1.735   1.379   9.882 -0.2914 -0.0201 -0.4283
   22CHL1  H19A 1595   1.772   1.321   9.795 -1.1748  1.0720 -1.5601
   22CHL1  H19B 1596   1.746   1.313   9.971 -0.6798 -0.2275 -0.5324
   22CHL1  H19C 1597   1.626   1.397   9.868  0.1792  1.9538 -1.9376
   22CHL1    C1 1598   1.966   1.506   9.944  0.6773  0.5539  0.1569
   22CHL1   H1A 1599   2.011   1.447   9.861  0.7933  0.7360  0.0901
   22CHL1   H1B 1600   2.016   1.604   9.954  0.0759  0.8415  0.4240
   22CHL1    C2 1601   1.996   1.434  10.075  0.6181  0.7816  0.7947
   22CHL1   H2A 1602   2.104   1.434  10.098  0.5782  0.8631  0.9867
   22CHL1   H2B 1603   1.959   1.329  10.072  1.7263  0.3963 -0.0873
   22CHL1   C20 1604   1.653   1.714   9.254  0.1187  0.2033  0.2194
   22CHL1   H20 1605   1.736   1.641   9.245 -1.1023 -1.3929  1.3468
   22CHL1   C21 1606   1.702   1.840   9.170 -0.1759 -0.0662 -0.4525
   22CHL1  H21A 1607   1.612   1.901   9.152  0.0162  0.9216  1.6504
   22CHL1  H21B 1608   1.728   1.802   9.069 -0.6393 -2.8833  0.3940
   22CHL1  H21C 1609   1.778   1.903   9.222 -0.9283  0.9328 -0.5527
   22CHL1   C22 1610   1.520   1.645   9.191 -0.3778 -0.7063  0.2962
   22CHL1  H22A 1611   1.488   1.549   9.236  0.9874 -0.3166  2.2270
   22CHL1  H22B 1612   1.434   1.712   9.214  1.0208  1.5374 -0.6764
   22CHL1   C23 1613   1.524   1.627   9.037 -0.3234 -0.0888 -0.4686
   22CHL1  H23A 1614   1.536   1.721   8.979  0.0521  0.1766  0.0371
   22CHL1  H23B 1615   1.611   1.561   9.019 -0.7051 -1.2085  1.5411
   22CHL1   C24 1616   1.403   1.549   8.984 -0.2303  0.2777  0.3785
   22CHL1  H24A 1617   1.410   1.458   9.047  1.4214  0.2164  0.1526
   22CHL1  H24B 1618   1.309   1.600   9.015 -1.7531 -2.6265  0.9448
   22CHL1   C25 1619   1.393   1.502   8.839  0.2108  0.4718 -0.0918
   22CHL1   H25 1620   1.297   1.449   8.820 -0.2647  1.3140 -0.1160
   22CHL1   C26 1621   1.400   1.620   8.735  0.2007 -0.3780  0.0582
   22CHL1  H26A 1622   1.412   1.575   8.633 -1.8149 -1.1079  0.0961
   22CHL1  H26B 1623   1.308   1.681   8.733 -0.3706 -1.1945 -2.0116
   22CHL1  H26C 1624   1.486   1.689   8.751 -0.3170  0.5804 -1.1005
   22CHL1   C27 1625   1.503   1.403   8.808  0.4081  1.1194  0.5279
   22CHL1  H27A 1626   1.489   1.357   8.708  1.4672  0.5915  0.6059
   22CHL1  H27B 1627   1.602   1.455   8.800  2.2911 -2.1203  0.9858
   22CHL1  H27C 1628   1.510   1.327   8.888  2.9823 -0.3792 -0.9586
   23CHL1    C3 1629   3.373   2.832  10.150 -0.3575 -0.1119 -0.2480
   23CHL1    H3 1630   3.336   2.736  10.107 -1.7022  0.7838 -1.2028
   23CHL1    O3 1631   3.372   2.821  10.288 -1.1827  0.2630 -0.4393
   23CHL1   H3' 1632   3.373   2.914  10.313  2.1628  0.2103  0.0387
   23CHL1    C4 1633   3.517   2.878  10.089  0.4554  0.2466  0.1759
   23CHL1   H4A 1634   3.548   2.973  10.137  1.1146 -0.4283  1.1082
   23CHL1   H4B 1635   3.598   2.809  10.120 -0.9564 -1.5883 -0.0836
   23CHL1    C5 1636   3.515   2.893   9.942  0.1045 -0.5183  0.9654
   23CHL1    C6 1637   3.596   2.817   9.864  0.2730 -0.2360 -0.0194
   23CHL1    H6 1638   3.659   2.739   9.910 -0.2307 -0.4648  0.2771
   23CHL1    C7 1639   3.601   2.828   9.709  0.1126  0.1676 -0.0117
   23CHL1   H7A 1640   3.701   2.853   9.669 -0.5165  1.7453 -0.6854
   23CHL1   H7B 1641   3.573   2.731   9.662 -1.0043  1.7663 -2.9671
   23CHL1    C8 1642   3.507   2.935   9.652 -0.1605  0.3275 -0.3354
   23CHL1    H8 1643   3.566   3.028   9.664 -0.5415  0.5290 -0.0036
   23CHL1   C14 1644   3.477   2.910   9.507 -0.2739 -0.0214  0.1016
   23CHL1   H14 1645   3.425   2.812   9.505  0.2330 -0.2878 -0.8462
   23CHL1   C15 1646   3.601   2.902   9.416  0.6571  1.1461 -0.1986
   23CHL1  H15A 1647   3.675   2.984   9.420 -1.5220  3.2977 -1.5230
   23CHL1  H15B 1648   3.636   2.796   9.421 -1.7819  0.1035 -2.3569
   23CHL1   C16 1649   3.537   2.914   9.273 -0.7101 -0.1648 -0.2649
   23CHL1  H16A 1650   3.592   2.997   9.223 -0.3865  0.1436  0.5706
   23CHL1  H16B 1651   3.534   2.824   9.209  0.8494  1.6115 -3.0554
   23CHL1   C17 1652   3.389   2.967   9.292 -0.4211  0.2552 -0.7290
   23CHL1   H17 1653   3.323   2.880   9.315  1.4542 -0.4288  2.6965
   23CHL1   C13 1654   3.393   3.015   9.437  0.0232 -0.3642  0.3200
   23CHL1   C18 1655   3.467   3.156   9.439  0.2130 -0.1591 -0.3024
   23CHL1  H18A 1656   3.564   3.160   9.386  0.7225  0.2951  0.6348
   23CHL1  H18B 1657   3.390   3.228   9.406 -0.8186 -1.3271 -0.5361
   23CHL1  H18C 1658   3.492   3.173   9.546 -1.5304 -1.6718  0.3990
   23CHL1   C12 1659   3.254   3.027   9.507 -0.7955  0.4339  0.2329
   23CHL1  H12A 1660   3.192   3.109   9.464  2.8013  2.5576 -1.3064
   23CHL1  H12B 1661   3.203   2.929   9.497  1.0703 -0.5590  0.1997
   23CHL1   C11 1662   3.277   3.047   9.661  0.4046 -0.2345  1.2127
   23CHL1  H11A 1663   3.319   3.149   9.674  0.1979 -0.3187  2.6871
   23CHL1  H11B 1664   3.182   3.045   9.719  1.6833 -0.2023  3.3831
   23CHL1    C9 1665   3.377   2.955   9.734 -0.7707  0.3305 -0.3595
   23CHL1    H9 1666   3.339   2.851   9.733 -0.8638  0.3599  0.2459
   23CHL1   C10 1667   3.400   2.989   9.880  0.6002  0.3447 -0.1979
   23CHL1   C19 1668   3.442   3.131   9.902 -0.3545  0.1955 -0.4253
   23CHL1  H19A 1669   3.466   3.154  10.009  1.9741 -0.1202 -0.8174
   23CHL1  H19B 1670   3.524   3.171   9.838  0.0443 -0.7592 -0.5257
   23CHL1  H19C 1671   3.358   3.199   9.878 -0.7233  0.0608  0.4365
   23CHL1    C1 1672   3.258   2.967   9.958  1.1470  0.2636  0.7760
   23CHL1   H1A 1673   3.193   3.054   9.934  1.7361  0.5642  0.2279
   23CHL1   H1B 1674   3.208   2.885   9.901 -0.5260  0.8507  1.3441
   23CHL1    C2 1675   3.270   2.934  10.110  0.0866 -0.7050  0.6444
   23CHL1   H2A 1676   3.168   2.922  10.154  0.0741  2.8681  1.9245
   23CHL1   H2B 1677   3.313   3.027  10.152  1.5370 -1.3506  0.6378
   23CHL1   C20 1678   3.344   3.048   9.174 -0.5794 -0.9472 -0.1295
   23CHL1   H20 1679   3.398   3.145   9.176  0.8396 -1.7285  0.4802
   23CHL1   C21 1680   3.190   3.077   9.182  0.1470  0.2194 -0.5509
   23CHL1  H21A 1681   3.144   2.976   9.183 -0.9174  0.6910  1.0611
   23CHL1  H21B 1682   3.156   3.125   9.087 -0.7149 -0.8950 -0.8239
   23CHL1  H21C 1683   3.155   3.135   9.270 -0.9846 -0.7167 -0.3704
   23CHL1   C22 1684   3.382   2.985   9.027  0.3028 -0.7432 -0.0289
   23CHL1  H22A 1685   3.492   2.978   9.013  0.5436  1.8325  0.2641
   23CHL1  H22B 1686   3.344   2.882   9.009  0.3673 -0.6283 -0.8522
   23CHL1   C23 1687   3.327   3.057   8.908 -0.8073 -0.0465  0.2633
   23CHL1  H23A 1688   3.217   3.050   8.906 -0.9552  1.3942  1.4111
   23CHL1  H23B 1689   3.348   3.166   8.916  1.6217 -0.3872 -0.5965
   23CHL1   C24 1690   3.380   2.993   8.777 -0.1667  0.2228  0.4640
   23CHL1  H24A 1691   3.490   2.979   8.777 -0.1544 -0.0425 -1.6269
   23CHL1  H24B 1692   3.340   2.890   8.769  1.5439 -0.4936  0.7349
   23CHL1   C25 1693   3.335   3.068   8.657  0.3782 -0.4383  1.3878
   23CHL1   H25 1694   3.351   3.176   8.677 -0.1590 -0.1551  0.3618
   23CHL1   C26 1695   3.417   3.042   8.536 -0.2498  0.2392 -0.4893
   23CHL1  H26A 1696   3.454   2.937   8.534 -0.1231  0.2448  0.7983
   23CHL1  H26B 1697   3.364   3.059   8.440 -0.1374  1.4701 -0.3442
   23CHL1  H26C 1698   3.502   3.114   8.539 -2.2535  2.7245  1.3561
   23CHL1   C27 1699   3.187   3.039   8.637 -0.3331  0.5953 -0.3359
   23CHL1  H27A 1700   3.156   3.094   8.545 -1.9639  0.1749 -0.0670
   23CHL1  H27B 1701   3.167   2.933   8.611  1.3699  0.4803 -1.3908
   23CHL1  H27C 1702   3.127   3.059   8.728 -1.2524 -0.3101 -0.7254
   24CHL1    C3 1703   4.523   3.969  10.182 -0.4575 -0.3550  1.1507
   24CHL1    H3 1704   4.623   3.957  10.133 -0.0969  1.0620  1.4928
   24CHL1    O3 1705   4.533   3.948  10.316  0.2454  0.3498 -0.1817
   24CHL1   H3' 1706   4.457   3.990  10.356 -0.6476 -0.7980 -0.6459
   24CHL1    C4 1707   4.481   4.116  10.170 -0.2631  0.2702 -0.9485
   24CHL1   H4A 1708   4.386   4.138  10.224 -1.6318 -0.5525 -2.8883
   24CHL1   H4B 1709   4.562   4.174  10.219 -2.0349 -0.1720  2.9094
   24CHL1    C5 1710   4.458   4.151  10.025  0.1129  1.0362 -0.2087
   24CHL1    C6 1711   4.534   4.240   9.965  0.3278  0.4163 -0.4394
   24CHL1    H6 1712   4.618   4.288  10.017  0.2354  1.1996 -0.9971
   24CHL1    C7 1713   4.515   4.284   9.822 -0.1039 -0.3924  0.0016
   24CHL1   H7A 1714   4.516   4.395   9.832  0.2864 -0.4259  0.3537
   24CHL1   H7B 1715   4.607   4.259   9.765  0.9377  4.1237 -0.7070
   24CHL1    C8 1716   4.387   4.231   9.751  0.4494 -0.1638  0.5992
   24CHL1    H8 1717   4.301   4.300   9.763  1.3826  1.4248 -1.3238
   24CHL1   C14 1718   4.407   4.223   9.600 -0.0299  0.3361 -0.0184
   24CHL1   H14 1719   4.500   4.167   9.578 -0.6796 -0.2386 -1.4022
   24CHL1   C15 1720   4.447   4.359   9.540 -0.1244  0.3989 -0.7498
   24CHL1  H15A 1721   4.377   4.433   9.585 -1.6465 -1.5100  0.1331
   24CHL1  H15B 1722   4.552   4.393   9.556 -0.8182  2.2175  0.3483
   24CHL1   C16 1723   4.407   4.338   9.390  0.3362  0.6909 -0.5070
   24CHL1  H16A 1724   4.345   4.424   9.358 -1.3693 -0.3773 -0.1643
   24CHL1  H16B 1725   4.498   4.331   9.326  0.1881 -1.6067 -0.5376
   24CHL1   C17 1726   4.337   4.199   9.385  0.2808 -0.7512  0.4547
   24CHL1   H17 1727   4.422   4.131   9.364 -0.0698  0.0893 -5.0885
   24CHL1   C13 1728   4.287   4.170   9.525  0.2830  0.7511  0.0778
   24CHL1   C18 1729   4.161   4.257   9.547 -0.3751  0.1230  0.4306
   24CHL1  H18A 1730   4.085   4.225   9.472  0.6191 -0.3982 -0.3777
   24CHL1  H18B 1731   4.124   4.240   9.651 -3.7233 -0.5981 -0.7618
   24CHL1  H18C 1732   4.181   4.365   9.528 -3.1510  0.2997 -2.3199
   24CHL1   C12 1733   4.260   4.026   9.563 -0.1280 -0.2456  0.2271
   24CHL1  H12A 1734   4.160   3.995   9.527  0.4996 -1.4277 -0.5842
   24CHL1  H12B 1735   4.343   3.957   9.535  0.5980  0.2769  1.0268
   24CHL1   C11 1736   4.251   4.010   9.714  0.1869 -0.0599  0.1657
   24CHL1  H11A 1737   4.146   4.039   9.737 -0.2956 -0.2929 -1.5691
   24CHL1  H11B 1738   4.261   3.902   9.738 -1.8390 -0.7066 -1.6322
   24CHL1    C9 1739   4.364   4.086   9.790  0.1593 -0.5575 -0.0739
   24CHL1    H9 1740   4.461   4.045   9.753  0.7215  0.3725  0.3229
   24CHL1   C10 1741   4.357   4.072   9.946  0.5637  0.2324  0.8441
   24CHL1   C19 1742   4.217   4.107  10.002  0.0471  0.0763 -0.1457
   24CHL1  H19A 1743   4.183   4.206   9.966 -2.3576  0.0291  1.7414
   24CHL1  H19B 1744   4.144   4.032   9.966  0.7113  0.1757 -1.8069
   24CHL1  H19C 1745   4.219   4.119  10.112  0.6715  2.1890 -0.3487
   24CHL1    C1 1746   4.373   3.918   9.984 -0.4757 -0.1253  0.4350
   24CHL1   H1A 1747   4.277   3.865   9.966 -1.4975  0.9182  2.4747
   24CHL1   H1B 1748   4.453   3.895   9.911  0.1591  1.7491  0.5065
   24CHL1    C2 1749   4.409   3.880  10.131 -0.0579  0.1210 -0.9860
   24CHL1   H2A 1750   4.433   3.772  10.136 -2.0386 -0.3061  3.0221
   24CHL1   H2B 1751   4.321   3.900  10.195 -0.1924 -1.0481 -0.7873
   24CHL1   C20 1752   4.232   4.189   9.265  0.2508 -0.6210 -0.3592
   24CHL1   H20 1753   4.137   4.243   9.282  0.6376  0.7251 -2.0982
   24CHL1   C21 1754   4.199   4.041   9.238  0.2856  0.3683  0.1460
   24CHL1  H21A 1755   4.134   4.030   9.149 -1.7090 -0.5832  1.6625
   24CHL1  H21B 1756   4.150   3.997   9.327 -0.0034  0.2807 -0.0551
   24CHL1  H21C 1757   4.295   3.987   9.221 -0.2509 -0.8475  0.8349
   24CHL1   C22 1758   4.294   4.247   9.131 -0.7939  0.2955  0.2580
   24CHL1  H22A 1759   4.300   4.354   9.160  2.4499 -0.3032  2.3154
   24CHL1  H22B 1760   4.396   4.207   9.113 -0.3367  1.1252  0.9332
   24CHL1   C23 1761   4.201   4.228   9.007  0.0709  0.1752 -0.6532
   24CHL1  H23A 1762   4.196   4.124   8.968 -0.4569 -0.6259  1.4188
   24CHL1  H23B 1763   4.098   4.256   9.038 -0.3957 -0.1325 -1.8862
   24CHL1   C24 1764   4.221   4.328   8.893  0.2592 -0.2781 -0.0548
   24CHL1  H24A 1765   4.197   4.428   8.935  1.3144 -1.3802  3.5547
   24CHL1  H24B 1766   4.327   4.336   8.859 -0.1439 -2.0077 -1.8919
   24CHL1   C25 1767   4.128   4.296   8.773 -0.3305  0.2374 -0.1694
   24CHL1   H25 1768   4.121   4.189   8.744 -1.4135  0.4075 -0.5881
   24CHL1   C26 1769   3.978   4.329   8.804  0.6796  0.7727 -0.0752
   24CHL1  H26A 1770   3.977   4.439   8.823 -0.4240  1.0175 -1.4411
   24CHL1  H26B 1771   3.919   4.310   8.712 -0.0277  2.2656  0.0347
   24CHL1  H26C 1772   3.939   4.272   8.891 -1.7422  1.7329 -0.4560
   24CHL1   C27 1773   4.174   4.368   8.645  1.0443 -0.9735  0.5819
   24CHL1  H27A 1774   4.277   4.343   8.610  0.6565 -3.8017  1.2454
   24CHL1  H27B 1775   4.094   4.332   8.577  0.6925 -0.3679  0.6717
   24CHL1  H27C 1776   4.161   4.477   8.663  0.7705 -0.7910 -0.6679
   25CHL1    C3 1777   0.407   5.715  10.435 -0.0416 -0.1407  0.0602
   25CHL1    H3 1778   0.329   5.793  10.422  1.1864  0.9358 -1.2880
   25CHL1    O3 1779   0.441   5.707  10.573 -0.0058 -0.5860 -0.2784
   25CHL1   H3' 1780   0.515   5.646  10.575  2.7696  2.4933  2.0730
   25CHL1    C4 1781   0.365   5.575  10.392  0.5603 -0.4038 -0.3436
   25CHL1   H4A 1782   0.455   5.510  10.401 -1.0600 -2.6959  0.3982
   25CHL1   H4B 1783   0.287   5.539  10.463 -0.7719  1.9018 -0.5611
   25CHL1    C5 1784   0.333   5.566  10.251 -0.3914 -0.0631  0.2174
   25CHL1    C6 1785   0.212   5.526  10.203  0.2107 -0.0013 -0.2190
   25CHL1    H6 1786   0.139   5.488  10.276  0.5456  0.3219  0.2886
   25CHL1    C7 1787   0.170   5.511  10.057 -0.3244  0.5360  0.8203
   25CHL1   H7A 1788   0.137   5.408  10.030 -2.8577  1.4014  0.3651
   25CHL1   H7B 1789   0.085   5.578  10.038 -0.9134 -0.1665  0.9182
   25CHL1    C8 1790   0.293   5.540   9.960 -0.6017 -0.5134 -0.0475
   25CHL1    H8 1791   0.350   5.445   9.958 -0.4981 -0.4983  1.3579
   25CHL1   C14 1792   0.243   5.573   9.817 -0.3659 -0.5892 -0.1457
   25CHL1   H14 1793   0.180   5.664   9.825 -0.6528 -0.6467 -1.5488
   25CHL1   C15 1794   0.159   5.465   9.744  0.0073 -0.5987 -0.3826
   25CHL1  H15A 1795   0.215   5.369   9.749  0.1672 -0.6964 -2.8925
   25CHL1  H15B 1796   0.055   5.454   9.782  0.3746 -1.1072  0.5353
   25CHL1   C16 1797   0.160   5.507   9.595 -0.3220  0.1724 -0.7938
   25CHL1  H16A 1798   0.185   5.413   9.542 -0.1800 -1.3350  1.8063
   25CHL1  H16B 1799   0.063   5.555   9.567  0.8555  1.4845 -2.9036
   25CHL1   C17 1800   0.260   5.624   9.582 -0.1657  0.1297  0.3198
   25CHL1   H17 1801   0.204   5.719   9.593  0.0625  1.2609 -5.2755
   25CHL1   C13 1802   0.352   5.607   9.716  0.7748  0.0690  0.3940
   25CHL1   C18 1803   0.454   5.492   9.689  0.1573 -0.0735  0.6170
   25CHL1  H18A 1804   0.485   5.441   9.783 -0.0786 -0.2221  0.6155
   25CHL1  H18B 1805   0.400   5.416   9.629 -1.4447  2.4078 -1.2377
   25CHL1  H18C 1806   0.543   5.523   9.630 -0.0554  0.3228  0.5081
   25CHL1   C12 1807   0.433   5.727   9.767  0.9329  0.0405 -0.1971
   25CHL1  H12A 1808   0.513   5.753   9.694  1.1179 -0.8786 -0.3302
   25CHL1  H12B 1809   0.362   5.813   9.771 -1.1895 -1.6507  2.8157
   25CHL1   C11 1810   0.496   5.696   9.905 -0.4222  0.0056 -0.8421
   25CHL1  H11A 1811   0.578   5.623   9.884 -0.6424 -0.1533 -1.1574
   25CHL1  H11B 1812   0.543   5.791   9.940  1.8570 -1.3944  0.1378
   25CHL1    C9 1813   0.392   5.646  10.013  0.5885  0.6933  0.4214
   25CHL1    H9 1814   0.323   5.732  10.027 -3.0598 -2.3481  3.4408
   25CHL1   C10 1815   0.451   5.617  10.153 -0.2624  0.4398 -0.0698
   25CHL1   C19 1816   0.552   5.503  10.149 -0.3675 -0.1884  0.4432
   25CHL1  H19A 1817   0.607   5.478  10.242  0.0004  2.4287  1.0078
   25CHL1  H19B 1818   0.496   5.410  10.127 -1.1256  0.3616  0.0193
   25CHL1  H19C 1819   0.632   5.534  10.078  0.0607 -0.1393  0.9369
   25CHL1    C1 1820   0.520   5.754  10.196  0.3026 -0.9044 -0.7902
   25CHL1   H1A 1821   0.620   5.758  10.149  0.6436 -1.3720 -0.1164
   25CHL1   H1B 1822   0.472   5.846  10.156  3.0695  0.0691 -2.0828
   25CHL1    C2 1823   0.530   5.772  10.351  0.2828  0.0051 -0.7587
   25CHL1   H2A 1824   0.562   5.871  10.390 -2.5873  0.4567  0.7122
   25CHL1   H2B 1825   0.613   5.705  10.383  2.0509  1.6559 -1.7102
   25CHL1   C20 1826   0.324   5.630   9.433 -0.3770 -0.8915  0.6795
   25CHL1   H20 1827   0.402   5.552   9.416 -1.5816 -1.7874 -1.0270
   25CHL1   C21 1828   0.386   5.768   9.408 -0.0428 -0.7806 -0.2995
   25CHL1  H21A 1829   0.323   5.849   9.450  3.1861  1.0954  1.3192
   25CHL1  H21B 1830   0.413   5.777   9.300 -0.4440 -1.7944 -0.5046
   25CHL1  H21C 1831   0.476   5.775   9.472 -1.6250 -0.3594  1.9896
   25CHL1   C22 1832   0.224   5.617   9.317  0.3953  0.4121 -0.8357
   25CHL1  H22A 1833   0.146   5.542   9.340  0.2701  0.2480 -1.7602
   25CHL1  H22B 1834   0.179   5.714   9.284  0.7673  0.0061 -2.6546
   25CHL1   C23 1835   0.289   5.563   9.181  0.8869  0.3990  0.4637
   25CHL1  H23A 1836   0.365   5.638   9.147 -0.5359  1.4848 -0.4760
   25CHL1  H23B 1837   0.358   5.483   9.215  0.2684 -0.1727  0.3811
   25CHL1   C24 1838   0.174   5.509   9.091  0.2827 -0.2562  0.0113
   25CHL1  H24A 1839   0.147   5.414   9.143 -1.3582 -0.2824 -0.8301
   25CHL1  H24B 1840   0.094   5.585   9.092  1.9239  1.5788  1.9838
   25CHL1   C25 1841   0.219   5.469   8.949  0.6036 -0.0860 -0.0095
   25CHL1   H25 1842   0.313   5.411   8.967 -0.2816 -1.3079  0.8245
   25CHL1   C26 1843   0.121   5.376   8.870  0.2286  0.4881 -0.4725
   25CHL1  H26A 1844   0.131   5.281   8.927 -0.2008 -0.5217 -2.0128
   25CHL1  H26B 1845   0.013   5.401   8.860  0.1952  1.2044  1.3160
   25CHL1  H26C 1846   0.151   5.341   8.769 -3.0935 -2.1250 -0.7271
   25CHL1   C27 1847   0.242   5.598   8.874 -0.1717  0.0494  0.6304
   25CHL1  H27A 1848   0.156   5.669   8.888 -1.2552 -1.4154  1.7356
   25CHL1  H27B 1849   0.329   5.651   8.919 -1.6527  1.3980  2.0605
   25CHL1  H27C 1850   0.265   5.589   8.766  1.9075  0.4698  0.9984
   26CHL1    C3 1851   2.558   1.606  10.126  0.5226  0.1358 -0.4485
   26CHL1    H3 1852   2.617   1.550  10.050 -1.4565 -1.5301 -0.8482
   26CHL1    O3 1853   2.595   1.562  10.259 -0.1210  0.0940 -0.0171
   26CHL1   H3' 1854   2.559   1.630  10.316 -1.8781  0.1326 -1.0793
   26CHL1    C4 1855   2.607   1.750  10.108 -0.5376 -0.3547 -0.4356
   26CHL1   H4A 1856   2.560   1.806  10.192  1.9748  2.1367 -0.5469
   26CHL1   H4B 1857   2.717   1.752  10.123 -0.3438  0.9504 -1.7547
   26CHL1    C5 1858   2.564   1.799   9.969 -1.0323  0.1589  0.2550
   26CHL1    C6 1859   2.651   1.865   9.889  0.6443  0.2559  0.5364
   26CHL1    H6 1860   2.750   1.886   9.933 -0.2622  2.8371  1.5695
   26CHL1    C7 1861   2.621   1.919   9.752 -0.1287 -0.6928  0.1750
   26CHL1   H7A 1862   2.649   2.025   9.735 -1.5514 -0.7832 -3.5884
   26CHL1   H7B 1863   2.677   1.863   9.674 -0.8273  0.2832 -1.0666
   26CHL1    C8 1864   2.466   1.933   9.729  0.3557  0.6914 -0.2111
   26CHL1    H8 1865   2.422   2.014   9.791 -1.3887 -0.5089  0.1967
   26CHL1   C14 1866   2.447   1.951   9.573  0.3951 -0.0826 -0.4601
   26CHL1   H14 1867   2.479   1.859   9.520 -0.1779  0.9811 -2.8094
   26CHL1   C15 1868   2.521   2.065   9.508  0.2908 -0.6706  0.0977
   26CHL1  H15A 1869   2.508   2.148   9.581  1.2994 -2.5014  2.4760
   26CHL1  H15B 1870   2.632   2.065   9.503  0.4544  1.6275  2.0494
   26CHL1   C16 1871   2.443   2.093   9.373  0.1387 -0.1601  0.9796
   26CHL1  H16A 1872   2.402   2.196   9.371  1.3784  0.3389  0.3766
   26CHL1  H16B 1873   2.498   2.081   9.277  2.5091 -1.0081  2.3661
   26CHL1   C17 1874   2.324   1.989   9.376  0.0996  0.2572  0.5973
   26CHL1   H17 1875   2.363   1.902   9.318 -3.1671 -1.3719  0.6150
   26CHL1   C13 1876   2.302   1.949   9.521 -0.1570 -0.3319 -0.3396
   26CHL1   C18 1877   2.229   2.071   9.587  0.3866 -0.4258 -0.4332
   26CHL1  H18A 1878   2.121   2.071   9.562 -0.1871  3.6347  1.2224
   26CHL1  H18B 1879   2.240   2.075   9.697  1.2993  1.1294 -0.5500
   26CHL1  H18C 1880   2.278   2.166   9.555  0.1208 -0.7498 -1.8814
   26CHL1   C12 1881   2.243   1.810   9.568 -0.4927 -0.8133  0.2552
   26CHL1  H12A 1882   2.133   1.799   9.561 -0.4496 -0.1361 -2.6841
   26CHL1  H12B 1883   2.285   1.726   9.508  3.4852  1.1558 -0.0474
   26CHL1   C11 1884   2.257   1.787   9.720 -0.2041 -0.2739 -0.7591
   26CHL1  H11A 1885   2.198   1.873   9.758  0.0019  0.0225 -1.1010
   26CHL1  H11B 1886   2.209   1.699   9.769  0.8808  0.6670  2.1821
   26CHL1    C9 1887   2.401   1.798   9.769  0.6379  0.0838 -0.8705
   26CHL1    H9 1888   2.468   1.724   9.721  1.1181  0.3900 -0.6773
   26CHL1   C10 1889   2.419   1.766   9.920  0.0577 -0.3937 -0.4741
   26CHL1   C19 1890   2.324   1.866  10.007  0.2828 -0.5886  0.0114
   26CHL1  H19A 1891   2.350   1.967   9.969  1.6941 -0.4399  1.2761
   26CHL1  H19B 1892   2.218   1.839   9.989 -0.4923  1.1891  1.5539
   26CHL1  H19C 1893   2.347   1.857  10.115  0.2869  0.8011  0.1392
   26CHL1    C1 1894   2.374   1.621   9.962 -0.6301 -0.7371  0.1284
   26CHL1   H1A 1895   2.265   1.621   9.944 -0.5940 -0.4035 -0.1142
   26CHL1   H1B 1896   2.429   1.554   9.892 -0.5901  1.4442 -2.1093
   26CHL1    C2 1897   2.411   1.591  10.106 -0.2280  0.5913 -0.5857
   26CHL1   H2A 1898   2.378   1.486  10.125  1.4564  0.5127  2.5490
   26CHL1   H2B 1899   2.348   1.642  10.181  0.4818 -1.4694  1.5542
   26CHL1   C20 1900   2.199   2.021   9.293  0.3625 -0.3747 -0.1578
   26CHL1   H20 1901   2.145   2.106   9.340  0.1429 -0.3253 -0.4951
   26CHL1   C21 1902   2.093   1.913   9.294  0.3207  0.2935  0.3198
   26CHL1  H21A 1903   2.004   1.943   9.233 -0.2616  0.5749  1.2897
   26CHL1  H21B 1904   2.067   1.906   9.401  0.7960  1.4091  0.5251
   26CHL1  H21C 1905   2.133   1.817   9.256 -2.9291 -0.3029 -2.1224
   26CHL1   C22 1906   2.227   2.064   9.146  0.6337 -0.1300 -0.3742
   26CHL1  H22A 1907   2.310   2.138   9.143  0.4981  0.4439  3.8970
   26CHL1  H22B 1908   2.270   1.972   9.101  0.3032 -1.4535  1.8637
   26CHL1   C23 1909   2.100   2.113   9.065 -0.3060 -0.0317  0.3766
   26CHL1  H23A 1910   2.031   2.026   9.057 -0.6921  0.3703 -1.0249
   26CHL1  H23B 1911   2.057   2.184   9.138  2.8945  1.0164  1.4089
   26CHL1   C24 1912   2.138   2.173   8.933  0.1477  0.2274 -0.8204
   26CHL1  H24A 1913   2.046   2.226   8.901 -1.2582 -0.4438  1.8287
   26CHL1  H24B 1914   2.225   2.241   8.944  0.9666 -1.1496  2.4782
   26CHL1   C25 1915   2.170   2.079   8.809  0.6045 -0.5956 -0.4902
   26CHL1   H25 1916   2.251   2.010   8.839 -0.2381 -0.7322  1.6050
   26CHL1   C26 1917   2.041   1.996   8.779 -0.7656  0.3934 -0.4969
   26CHL1  H26A 1918   2.040   1.920   8.860 -2.5602  1.4094  0.4879
   26CHL1  H26B 1919   1.947   2.056   8.779 -1.1725 -0.0151  3.4259
   26CHL1  H26C 1920   2.058   1.938   8.686  1.4823 -2.1184  1.3631
   26CHL1   C27 1921   2.213   2.151   8.680 -0.4917  0.1339 -0.0512
   26CHL1  H27A 1922   2.148   2.240   8.666 -0.4981  0.1902  0.3288
   26CHL1  H27B 1923   2.315   2.191   8.693  0.0073 -1.1439  0.1567
   26CHL1  H27C 1924   2.214   2.087   8.589 -0.1175  0.1465 -0.0578
   27CHL1    C3 1925   6.164   6.226  10.354  0.1497 -0.5253  0.5970
   27CHL1    H3 1926   6.056   6.238  10.331 -0.0097  2.1373  2.3140
   27CHL1    O3 1927   6.182   6.247  10.493 -0.1619  0.1764  0.4027
   27CHL1   H3' 1928   6.276   6.233  10.509  0.8593  0.5010 -3.9933
   27CHL1    C4 1929   6.219   6.085  10.303 -0.8711  0.3278  0.0356
   27CHL1   H4A 1930   6.325   6.067  10.329 -0.7178 -2.3026 -1.9942
   27CHL1   H4B 1931   6.163   6.004  10.354 -2.4489  1.1688 -0.2961
   27CHL1    C5 1932   6.209   6.066  10.149  0.3038 -0.4945 -0.6010
   27CHL1    C6 1933   6.149   5.959  10.088 -0.7453  0.0605 -0.3478
   27CHL1    H6 1934   6.123   5.876  10.155  0.8783 -0.8907 -0.8354
   27CHL1    C7 1935   6.135   5.931   9.940  0.4191 -0.3081 -0.9343
   27CHL1   H7A 1936   6.180   5.833   9.912 -3.1646 -1.9070 -1.8509
   27CHL1   H7B 1937   6.025   5.935   9.925 -0.0746 -0.2851  2.1254
   27CHL1    C8 1938   6.207   6.038   9.852  0.7269 -0.2818 -0.1983
   27CHL1    H8 1939   6.315   6.014   9.849  0.3683 -2.0345 -0.1263
   27CHL1   C14 1940   6.151   6.041   9.714 -0.6451 -0.2542  0.4908
   27CHL1   H14 1941   6.046   6.073   9.730 -0.3583  2.2039 -1.8191
   27CHL1   C15 1942   6.146   5.919   9.633  0.4335  0.2478 -0.2191
   27CHL1  H15A 1943   6.233   5.850   9.644 -0.3026 -0.4867  1.3144
   27CHL1  H15B 1944   6.070   5.847   9.670  3.3306 -1.7627  2.3988
   27CHL1   C16 1945   6.122   5.965   9.487  0.1138  0.3012 -0.6574
   27CHL1  H16A 1946   6.175   5.906   9.409 -1.1368  0.2006 -1.4680
   27CHL1  H16B 1947   6.013   5.957   9.463 -0.1237  0.1110  0.4329
   27CHL1   C17 1948   6.151   6.121   9.486 -0.4308 -0.0037 -1.0701
   27CHL1   H17 1949   6.049   6.166   9.488 -1.1425 -1.5247 -1.8278
   27CHL1   C13 1950   6.219   6.144   9.624  0.0899  0.8440 -0.5039
   27CHL1   C18 1951   6.368   6.112   9.602  0.8125 -0.3456  0.7045
   27CHL1  H18A 1952   6.420   6.186   9.538  0.9301 -1.6549 -0.7508
   27CHL1  H18B 1953   6.419   6.109   9.701  1.7303 -1.9188  0.2149
   27CHL1  H18C 1954   6.379   6.006   9.571  0.1371 -1.1735  3.0803
   27CHL1   C12 1955   6.191   6.287   9.676 -0.2358  0.9378  0.6728
   27CHL1  H12A 1956   6.246   6.366   9.621  1.3802 -0.0082  0.8553
   27CHL1  H12B 1957   6.082   6.301   9.669 -0.4259 -0.3313  0.8223
   27CHL1   C11 1958   6.233   6.294   9.820 -0.7263 -0.4616 -0.0999
   27CHL1  H11A 1959   6.344   6.294   9.809 -0.7748  1.3147 -1.0815
   27CHL1  H11B 1960   6.201   6.391   9.864 -0.1223 -0.3092  0.0238
   27CHL1    C9 1961   6.195   6.178   9.915  0.0698  0.0800  0.4555
   27CHL1    H9 1962   6.088   6.206   9.923  0.0322  0.3665 -0.8091
   27CHL1   C10 1963   6.258   6.186  10.063 -0.5300 -0.2799 -0.2613
   27CHL1   C19 1964   6.413   6.183  10.062 -0.0317  0.4794  0.2877
   27CHL1  H19A 1965   6.450   6.252   9.983  2.6051 -0.4331  0.6073
   27CHL1  H19B 1966   6.454   6.219  10.159 -1.1182  0.6280  0.7059
   27CHL1  H19C 1967   6.449   6.080  10.041  1.7347  0.8810  1.1131
   27CHL1    C1 1968   6.208   6.319  10.124 -0.5719  0.9176 -0.6360
   27CHL1   H1A 1969   6.260   6.400  10.068 -0.8241 -0.3560 -2.8400
   27CHL1   H1B 1970   6.098   6.319  10.113 -0.7280 -1.3301  0.3734
   27CHL1    C2 1971   6.232   6.338  10.272  0.2548 -0.1709  0.1660
   27CHL1   H2A 1972   6.183   6.435  10.293 -1.6747 -1.0875  0.0802
   27CHL1   H2B 1973   6.340   6.341  10.297 -0.1253 -1.8910  2.3518
   27CHL1   C20 1974   6.215   6.164   9.353 -0.2273 -0.0217 -0.4843
   27CHL1   H20 1975   6.323   6.138   9.349 -0.1400  0.3850 -3.1532
   27CHL1   C21 1976   6.214   6.322   9.358 -0.1742 -0.3747 -0.1882
   27CHL1  H21A 1977   6.113   6.359   9.386 -0.6985 -0.9278 -1.3195
   27CHL1  H21B 1978   6.222   6.370   9.258 -0.1783  0.9708  0.4305
   27CHL1  H21C 1979   6.306   6.348   9.415 -0.7910 -0.5619  0.9233
   27CHL1   C22 1980   6.144   6.123   9.220  0.3906 -0.0927 -0.0388
   27CHL1  H22A 1981   6.148   6.012   9.217 -2.3225 -0.2604  0.2945
   27CHL1  H22B 1982   6.037   6.151   9.212  0.3909 -0.2215 -0.5614
   27CHL1   C23 1983   6.205   6.167   9.089 -0.5167 -0.3111 -0.0088
   27CHL1  H23A 1984   6.171   6.273   9.081  1.8974  0.4889 -0.5721
   27CHL1  H23B 1985   6.315   6.170   9.100 -0.6443  0.2417  1.3315
   27CHL1   C24 1986   6.178   6.086   8.967 -1.0298 -0.0951 -0.2352
   27CHL1  H24A 1987   6.223   5.985   8.979 -0.9048  0.1209  1.3287
   27CHL1  H24B 1988   6.070   6.069   8.944 -1.4666  1.6932  0.3010
   27CHL1   C25 1989   6.247   6.151   8.840  0.9481 -0.0160 -0.5932
   27CHL1   H25 1990   6.230   6.080   8.757 -0.5559  1.7716 -1.9092
   27CHL1   C26 1991   6.192   6.284   8.802 -0.3894 -0.4044  0.2213
   27CHL1  H26A 1992   6.210   6.311   8.696  0.5078  0.8895  0.6791
   27CHL1  H26B 1993   6.087   6.301   8.834 -0.1883 -0.9539  1.2181
   27CHL1  H26C 1994   6.246   6.363   8.859  0.2575 -1.4723  1.1414
   27CHL1   C27 1995   6.398   6.165   8.853 -0.3073 -0.5329  0.0348
   27CHL1  H27A 1996   6.419   6.243   8.929 -0.4901 -0.7508  0.3092
   27CHL1  H27B 1997   6.440   6.073   8.898 -0.1241  0.2278  1.4683
   27CHL1  H27C 1998   6.444   6.199   8.758 -0.6242  0.0248  0.0762
   28CHL1    C3 1999   5.505   3.034  10.020  0.0665  0.8047  0.1106
   28CHL1    H3 2000   5.509   3.133   9.971 -0.5259  0.1732 -1.2644
   28CHL1    O3 2001   5.539   3.026  10.159 -0.4928 -0.3274  0.4245
   28CHL1   H3' 2002   5.557   2.932  10.170 -1.1530 -0.4322  0.7044
   28CHL1    C4 2003   5.366   2.972  10.007  0.0304 -0.2388  0.4321
   28CHL1   H4A 2004   5.364   2.877  10.065  1.3058 -1.5411 -1.5140
   28CHL1   H4B 2005   5.302   3.047  10.058 -2.5876 -1.4073 -0.9334
   28CHL1    C5 2006   5.312   2.939   9.865 -0.3733 -0.7360 -0.2710
   28CHL1    C6 2007   5.197   2.989   9.821 -0.6010 -0.2728  0.2093
   28CHL1    H6 2008   5.128   3.042   9.888 -1.0854 -1.7465  0.9040
   28CHL1    C7 2009   5.145   2.977   9.687 -0.4420  0.5411  0.1374
   28CHL1   H7A 2010   5.034   2.963   9.682 -0.4407  1.0384 -2.1638
   28CHL1   H7B 2011   5.164   3.067   9.626 -4.5151  0.3694 -1.7391
   28CHL1    C8 2012   5.219   2.867   9.608  0.5312  0.1614  0.4222
   28CHL1    H8 2013   5.176   2.769   9.637  1.2084 -0.5778 -0.9593
   28CHL1   C14 2014   5.188   2.873   9.454 -0.4541  0.1652 -0.3049
   28CHL1   H14 2015   5.249   2.960   9.420  0.2763 -0.5772 -0.9333
   28CHL1   C15 2016   5.041   2.883   9.416 -0.5004 -0.3308 -0.5950
   28CHL1  H15A 2017   4.985   2.818   9.487  0.4402  1.2097  1.6590
   28CHL1  H15B 2018   4.988   2.981   9.420 -0.1504 -0.1723  0.3863
   28CHL1   C16 2019   5.046   2.831   9.271 -0.3311 -0.0923 -0.2184
   28CHL1  H16A 2020   4.989   2.736   9.270 -1.9390  0.8297 -1.8646
   28CHL1  H16B 2021   4.988   2.895   9.201  0.1935 -1.0799 -1.6052
   28CHL1   C17 2022   5.194   2.797   9.233  0.1486  0.1241  0.1539
   28CHL1   H17 2023   5.241   2.889   9.191 -1.5616  1.2026  0.5272
   28CHL1   C13 2024   5.258   2.767   9.372 -0.2151 -0.6461  0.4557
   28CHL1   C18 2025   5.202   2.631   9.423  0.2112 -0.4118  0.5569
   28CHL1  H18A 2026   5.270   2.555   9.379  2.0803  1.3477  0.2322
   28CHL1  H18B 2027   5.206   2.611   9.532  0.1235 -0.0471  0.6281
   28CHL1  H18C 2028   5.094   2.620   9.397  0.0067  0.1248  1.1581
   28CHL1   C12 2029   5.407   2.778   9.392  0.5347 -0.0336  0.4146
   28CHL1  H12A 2030   5.460   2.692   9.347 -2.5915 -1.7041 -0.3643
   28CHL1  H12B 2031   5.447   2.876   9.358  0.5656 -0.1213  0.2006
   28CHL1   C11 2032   5.445   2.772   9.539  0.2513  0.7297 -0.5790
   28CHL1  H11A 2033   5.420   2.671   9.578 -1.9164  0.7026 -1.8375
   28CHL1  H11B 2034   5.555   2.781   9.538  0.4410 -1.1974 -0.6035
   28CHL1    C9 2035   5.369   2.872   9.628 -0.5549 -0.2903  0.0724
   28CHL1    H9 2036   5.407   2.968   9.588  1.1642 -0.3727  1.3785
   28CHL1   C10 2037   5.412   2.869   9.779 -0.0619 -0.8141  0.0962
   28CHL1   C19 2038   5.399   2.725   9.842 -0.8719  0.3672 -0.2129
   28CHL1  H19A 2039   5.464   2.648   9.795  0.7880  1.7592 -0.3044
   28CHL1  H19B 2040   5.428   2.716   9.949 -1.0133 -2.3490 -0.3407
   28CHL1  H19C 2041   5.296   2.688   9.824 -1.1178  0.2287  1.3479
   28CHL1    C1 2042   5.555   2.939   9.788  0.3340  1.5338  0.3859
   28CHL1   H1A 2043   5.630   2.868   9.747 -0.9701 -1.2129  2.3803
   28CHL1   H1B 2044   5.561   3.035   9.733 -1.5046  1.4856  0.0391
   28CHL1    C2 2045   5.600   2.948   9.940 -0.7091 -0.0951 -0.9269
   28CHL1   H2A 2046   5.702   2.990   9.948 -0.0322 -1.6608 -0.8276
   28CHL1   H2B 2047   5.607   2.846   9.984  2.5707  0.4046 -0.0200
   28CHL1   C20 2048   5.204   2.690   9.126 -0.8577 -0.3359 -0.1775
   28CHL1   H20 2049   5.190   2.587   9.166 -0.7764 -1.6755 -3.3290
   28CHL1   C21 2050   5.349   2.666   9.078 -0.3297 -0.6481  0.5531
   28CHL1  H21A 2051   5.339   2.581   9.008  2.7786 -1.1912  0.6364
   28CHL1  H21B 2052   5.422   2.635   9.156  3.3438 -2.3033 -3.2276
   28CHL1  H21C 2053   5.389   2.757   9.028 -0.0684 -2.4887 -2.8146
   28CHL1   C22 2054   5.121   2.720   8.994 -0.0448  0.8189  0.1046
   28CHL1  H22A 2055   5.139   2.638   8.921 -1.3940  1.0393 -0.5072
   28CHL1  H22B 2056   5.017   2.703   9.029 -0.6631  0.7162 -1.6918
   28CHL1   C23 2057   5.133   2.849   8.919 -0.1381 -0.5235 -0.0714
   28CHL1  H23A 2058   5.161   2.940   8.976  1.5230 -0.7723 -0.4399
   28CHL1  H23B 2059   5.213   2.831   8.844  0.7522  0.6293  0.5671
   28CHL1   C24 2060   5.001   2.872   8.847  1.0369 -0.1380 -0.2020
   28CHL1  H24A 2061   4.976   2.799   8.768 -1.1519 -0.1281  0.4243
   28CHL1  H24B 2062   4.920   2.864   8.923  1.3104  0.1526  0.1265
   28CHL1   C25 2063   5.001   3.015   8.778 -0.0709 -0.1710 -0.3061
   28CHL1   H25 2064   4.992   3.091   8.859 -0.5337  0.0212 -0.5417
   28CHL1   C26 2065   5.121   3.024   8.683  0.7486  0.9101  0.2455
   28CHL1  H26A 2066   5.110   2.938   8.613  0.0404 -0.6711  2.1966
   28CHL1  H26B 2067   5.119   3.118   8.623  0.6462 -0.0943 -1.3915
   28CHL1  H26C 2068   5.217   3.021   8.738  1.9617  3.0543 -1.5736
   28CHL1   C27 2069   4.867   3.033   8.712 -0.5160  0.5276  0.0130
   28CHL1  H27A 2070   4.847   2.944   8.649 -1.0545  0.0997  0.7784
   28CHL1  H27B 2071   4.789   3.045   8.790 -1.2994  0.0547 -0.6828
   28CHL1  H27C 2072   4.865   3.121   8.644 -1.5297 -0.3905 -1.1898
   29CHL1    C3 2073   6.513   1.326   6.600  0.7990  0.9452 -0.1754
   29CHL1    H3 2074   6.502   1.218   6.623  1.0365  0.9916  0.1560
   29CHL1    O3 2075   6.460   1.345   6.466  0.4248 -0.3128 -0.1385
   29CHL1   H3' 2076   6.436   1.438   6.465  1.2979 -0.0514 -2.2597
   29CHL1    C4 2077   6.445   1.412   6.709  0.4145  0.0012 -0.0560
   29CHL1   H4A 2078   6.433   1.516   6.672  0.1676  0.0005  0.0254
   29CHL1   H4B 2079   6.340   1.379   6.721  0.5792 -1.0983 -1.3306
   29CHL1    C5 2080   6.521   1.397   6.837 -0.2361 -1.0399 -0.5749
   29CHL1    C6 2081   6.454   1.353   6.942  0.0156  0.4345 -0.7106
   29CHL1    H6 2082   6.349   1.326   6.921 -0.4038  1.1364  0.4141
   29CHL1    C7 2083   6.511   1.346   7.077  0.3126 -0.6827  0.0148
   29CHL1   H7A 2084   6.437   1.359   7.158 -0.2139  4.8282 -0.9274
   29CHL1   H7B 2085   6.550   1.242   7.088  2.6059  0.0229 -0.6762
   29CHL1    C8 2086   6.645   1.431   7.092 -0.1753 -0.0023 -0.4666
   29CHL1    H8 2087   6.632   1.541   7.104  1.3351 -0.0117  1.7423
   29CHL1   C14 2088   6.722   1.375   7.214  0.4950  0.1255 -0.8019
   29CHL1   H14 2089   6.747   1.269   7.190 -1.6616 -1.0154  1.5132
   29CHL1   C15 2090   6.646   1.363   7.349  0.8803 -0.2356 -0.0785
   29CHL1  H15A 2091   6.596   1.459   7.375 -1.5053 -0.9537 -1.6480
   29CHL1  H15B 2092   6.567   1.286   7.363 -0.3366  1.0316  0.2695
   29CHL1   C16 2093   6.755   1.343   7.461  0.6966  0.2714 -0.4686
   29CHL1  H16A 2094   6.740   1.420   7.539  0.7245  0.7886 -0.9644
   29CHL1  H16B 2095   6.738   1.240   7.500 -0.8307  0.6617 -0.0482
   29CHL1   C17 2096   6.888   1.364   7.382  0.3532  0.3558  0.3939
   29CHL1   H17 2097   6.904   1.258   7.353 -0.7935 -0.0150  1.0361
   29CHL1   C13 2098   6.857   1.433   7.247 -0.5927  0.8239  0.4760
   29CHL1   C18 2099   6.844   1.573   7.285 -0.6846  0.0717 -0.1462
   29CHL1  H18A 2100   6.949   1.611   7.285 -1.0204  1.0182 -0.4450
   29CHL1  H18B 2101   6.780   1.628   7.212 -2.2056  0.0399  1.1243
   29CHL1  H18C 2102   6.795   1.601   7.380 -1.3966  0.5628 -0.6460
   29CHL1   C12 2103   6.943   1.409   7.123 -0.1304  0.5664  0.9863
   29CHL1  H12A 2104   7.047   1.440   7.147  0.8026  0.6562 -2.6405
   29CHL1  H12B 2105   6.953   1.298   7.115 -0.5176  0.6253 -0.4574
   29CHL1   C11 2106   6.876   1.465   6.995 -0.7994  0.3285 -0.3218
   29CHL1  H11A 2107   6.871   1.576   6.991  1.0548  0.4063 -1.3788
   29CHL1  H11B 2108   6.941   1.443   6.908  1.6244  4.3499  0.2051
   29CHL1    C9 2109   6.737   1.410   6.975 -0.6032 -0.0691  0.8394
   29CHL1    H9 2110   6.763   1.302   6.978 -2.6464 -0.5925  0.8534
   29CHL1   C10 2111   6.668   1.435   6.832  0.3587  0.7129  0.1881
   29CHL1   C19 2112   6.681   1.585   6.787 -0.4438 -0.2906  0.1497
   29CHL1  H19A 2113   6.635   1.646   6.868  0.3991  0.1612  0.2994
   29CHL1  H19B 2114   6.788   1.609   6.769 -0.8512  1.4422 -0.1781
   29CHL1  H19C 2115   6.620   1.599   6.695 -0.7277 -1.6460  0.1092
   29CHL1    C1 2116   6.727   1.346   6.719 -0.2196 -0.4348  0.2486
   29CHL1   H1A 2117   6.829   1.383   6.698 -0.5956  1.9298  2.1875
   29CHL1   H1B 2118   6.723   1.238   6.746  0.1823 -0.6821 -0.6266
   29CHL1    C2 2119   6.663   1.359   6.587  1.1309  0.6364  0.1261
   29CHL1   H2A 2120   6.707   1.280   6.522 -3.3019 -2.9501  0.9935
   29CHL1   H2B 2121   6.675   1.457   6.535 -1.3390  0.6346 -0.5420
   29CHL1   C20 2122   7.005   1.397   7.473  0.4389  0.0615 -0.6284
   29CHL1   H20 2123   6.991   1.503   7.504 -4.3565 -0.0661 -1.6910
   29CHL1   C21 2124   7.147   1.377   7.402  0.3780 -0.6270  0.2531
   29CHL1  H21A 2125   7.167   1.270   7.383  0.4085 -0.4643 -0.7026
   29CHL1  H21B 2126   7.226   1.418   7.468 -0.2442  0.2895  0.4599
   29CHL1  H21C 2127   7.156   1.424   7.301  0.2458 -2.0432 -0.4348
   29CHL1   C22 2128   7.010   1.301   7.596  0.1385 -0.0354 -0.2865
   29CHL1  H22A 2129   6.913   1.290   7.648  0.5316  0.2188  0.5192
   29CHL1  H22B 2130   7.059   1.204   7.571 -0.7487 -0.6067  0.1432
   29CHL1   C23 2131   7.096   1.370   7.704  0.4670 -0.2918  0.1456
   29CHL1  H23A 2132   7.203   1.370   7.677  1.1541  1.7218  2.4286
   29CHL1  H23B 2133   7.067   1.474   7.731  2.0750  0.3652 -0.5475
   29CHL1   C24 2134   7.081   1.276   7.830 -0.3348  0.2056  0.1308
   29CHL1  H24A 2135   6.973   1.263   7.853  0.0668  0.2547  2.2274
   29CHL1  H24B 2136   7.125   1.177   7.806  0.2504  1.0363 -2.5633
   29CHL1   C25 2137   7.163   1.319   7.956 -0.6762 -0.0489  0.1150
   29CHL1   H25 2138   7.270   1.341   7.935 -1.1446  1.2267 -1.0595
   29CHL1   C26 2139   7.106   1.447   8.018  0.0520 -0.2224  0.0482
   29CHL1  H26A 2140   7.005   1.421   8.057  1.4968 -1.5029  3.3239
   29CHL1  H26B 2141   7.167   1.488   8.102  1.2335  1.5908 -1.6183
   29CHL1  H26C 2142   7.091   1.524   7.939  0.2641  0.7227  0.9091
   29CHL1   C27 2143   7.175   1.202   8.061  0.5693 -0.1377 -0.3692
   29CHL1  H27A 2144   7.074   1.211   8.108  0.7778 -0.7469  0.2164
   29CHL1  H27B 2145   7.201   1.102   8.021 -0.3217 -0.5951  0.1568
   29CHL1  H27C 2146   7.247   1.221   8.143  0.6402 -0.4810 -0.3516
   30CHL1    C3 2147   5.783   1.426   7.267 -0.0556 -1.3849 -0.2069
   30CHL1    H3 2148   5.854   1.481   7.201 -0.8739 -1.5108 -1.2128
   30CHL1    O3 2149   5.670   1.421   7.181 -0.6040  0.2246 -0.5082
   30CHL1   H3' 2150   5.667   1.498   7.124  0.1922  1.4597  1.0384
   30CHL1    C4 2151   5.824   1.285   7.305 -1.0070 -0.3375  0.7730
   30CHL1   H4A 2152   5.736   1.231   7.346 -2.0754  0.1364 -0.7955
   30CHL1   H4B 2153   5.851   1.230   7.212  0.7968 -1.2436  1.7857
   30CHL1    C5 2154   5.949   1.294   7.395  0.3676  0.0906 -0.8545
   30CHL1    C6 2155   6.069   1.238   7.361 -0.1427  0.2540  0.3568
   30CHL1    H6 2156   6.081   1.189   7.263  1.5017  1.6619 -0.1946
   30CHL1    C7 2157   6.192   1.243   7.446 -0.2902 -0.4070 -0.0591
   30CHL1   H7A 2158   6.247   1.148   7.430  0.6611 -0.1824  1.6064
   30CHL1   H7B 2159   6.260   1.325   7.411  1.5456 -1.6061  0.5519
   30CHL1    C8 2160   6.151   1.262   7.588 -0.2158  0.3227 -0.3262
   30CHL1    H8 2161   6.107   1.167   7.625  0.5073  1.3500  3.7204
   30CHL1   C14 2162   6.278   1.287   7.668 -1.1147 -0.3925  0.7394
   30CHL1   H14 2163   6.304   1.388   7.632 -2.0334 -0.2696  0.3751
   30CHL1   C15 2164   6.391   1.193   7.657  0.3640 -0.0446 -0.0412
   30CHL1  H15A 2165   6.360   1.086   7.652  0.6878 -0.2683  1.9119
   30CHL1  H15B 2166   6.460   1.209   7.572  1.3932 -1.2235  0.5353
   30CHL1   C16 2167   6.476   1.212   7.785 -0.5304  0.2356 -0.0465
   30CHL1  H16A 2168   6.496   1.120   7.844 -0.4106 -0.8169 -1.6644
   30CHL1  H16B 2169   6.580   1.247   7.767 -0.7029  0.3623 -0.8237
   30CHL1   C17 2170   6.397   1.309   7.880 -0.1067  0.0554  0.2829
   30CHL1   H17 2171   6.441   1.410   7.867  2.2361 -0.6655  1.9610
   30CHL1   C13 2172   6.251   1.313   7.820 -0.1812  0.2109  0.3692
   30CHL1   C18 2173   6.179   1.189   7.877  0.2454  0.1467  0.2045
   30CHL1  H18A 2174   6.151   1.208   7.983 -0.4264  0.2362  0.0181
   30CHL1  H18B 2175   6.081   1.160   7.832 -1.2315  1.1995  2.5371
   30CHL1  H18C 2176   6.249   1.102   7.874  1.4647  1.1059  0.1989
   30CHL1   C12 2177   6.170   1.444   7.829 -0.1021 -0.4839  0.3059
   30CHL1  H12A 2178   6.152   1.470   7.936 -0.1029 -0.1834  0.2338
   30CHL1  H12B 2179   6.236   1.528   7.799  0.8987 -1.0131  0.9767
   30CHL1   C11 2180   6.035   1.434   7.751  0.4309 -0.7210 -0.3655
   30CHL1  H11A 2181   5.971   1.361   7.804  0.1879 -2.5197 -2.9507
   30CHL1  H11B 2182   5.973   1.526   7.750 -1.5062 -1.9699 -1.3171
   30CHL1    C9 2183   6.057   1.383   7.607  0.3077 -0.3676  0.9239
   30CHL1    H9 2184   6.111   1.465   7.556 -1.0749 -0.3447 -0.5772
   30CHL1   C10 2185   5.924   1.369   7.528 -0.1583 -0.2172 -0.0565
   30CHL1   C19 2186   5.834   1.280   7.617 -0.0132  0.3181  0.9840
   30CHL1  H19A 2187   5.886   1.187   7.649 -3.4784 -2.9719 -2.0463
   30CHL1  H19B 2188   5.796   1.332   7.708  2.3805  0.8780  1.7596
   30CHL1  H19C 2189   5.745   1.245   7.562  0.3107  1.6398 -0.4486
   30CHL1    C1 2190   5.863   1.513   7.489  0.0445 -0.1354  0.6288
   30CHL1   H1A 2191   5.831   1.571   7.578  2.0351 -0.1888  1.4318
   30CHL1   H1B 2192   5.942   1.571   7.437 -1.6056 -0.3537 -2.3401
   30CHL1    C2 2193   5.743   1.509   7.395  0.0121 -0.0971  0.5075
   30CHL1   H2A 2194   5.706   1.610   7.369 -1.5553 -0.6629  0.4222
   30CHL1   H2B 2195   5.662   1.444   7.435  1.7683 -0.6474  3.4546
   30CHL1   C20 2196   6.413   1.272   8.028 -0.4488  0.1186 -0.0471
   30CHL1   H20 2197   6.381   1.169   8.054  1.8186 -1.4295 -2.7302
   30CHL1   C21 2198   6.342   1.361   8.121  0.4160 -0.5326 -0.2200
   30CHL1  H21A 2199   6.359   1.336   8.228  2.2221 -0.2807 -0.4275
   30CHL1  H21B 2200   6.232   1.358   8.106  0.2744 -1.3306  0.8262
   30CHL1  H21C 2201   6.389   1.461   8.111 -0.8778  0.1531  0.2535
   30CHL1   C22 2202   6.559   1.291   8.060 -0.8818 -0.4859  0.0149
   30CHL1  H22A 2203   6.615   1.205   8.020 -1.8406 -2.0573  1.8899
   30CHL1  H22B 2204   6.600   1.385   8.016 -2.3598 -0.1972 -0.8412
   30CHL1   C23 2205   6.606   1.294   8.204  0.9154  0.0046  0.3195
   30CHL1  H23A 2206   6.562   1.373   8.269 -3.8789 -3.4116  1.8022
   30CHL1  H23B 2207   6.572   1.201   8.253 -0.4679  0.2101 -0.2024
   30CHL1   C24 2208   6.760   1.311   8.222 -0.0506 -0.4095  0.0327
   30CHL1  H24A 2209   6.813   1.242   8.153  1.2236  1.4861 -0.9767
   30CHL1  H24B 2210   6.803   1.413   8.209  2.6428 -1.3401  0.7706
   30CHL1   C25 2211   6.808   1.278   8.372 -0.5201 -0.0515  0.1170
   30CHL1   H25 2212   6.743   1.340   8.437 -1.0000  0.0391 -0.4336
   30CHL1   C26 2213   6.787   1.130   8.409 -0.6122 -0.8440  0.2753
   30CHL1  H26A 2214   6.683   1.091   8.418 -0.8963 -0.4528 -1.0880
   30CHL1  H26B 2215   6.842   1.074   8.331  2.3062  1.3580  0.5839
   30CHL1  H26C 2216   6.829   1.110   8.510 -0.3739 -0.2561  0.2993
   30CHL1   C27 2217   6.950   1.316   8.393 -0.6203 -0.1736  0.1235
   30CHL1  H27A 2218   6.978   1.298   8.499 -2.4143 -0.9056  0.5146
   30CHL1  H27B 2219   7.011   1.262   8.317 -1.9728 -1.3198 -0.1993
   30CHL1  H27C 2220   6.952   1.424   8.369 -1.2605 -0.4078 -1.0685
   31CHL1    C3 2221   0.524   4.056   6.678  0.3588 -0.6177  0.2825
   31CHL1    H3 2222   0.416   4.065   6.703  0.1506 -0.1350 -0.7301
   31CHL1    O3 2223   0.515   4.056   6.538  0.3126 -0.3606  0.3879
   31CHL1   H3' 2224   0.604   4.044   6.505 -0.8096 -2.5857 -2.1382
   31CHL1    C4 2225   0.593   4.189   6.725 -0.0505  0.3593 -0.4123
   31CHL1   H4A 2226   0.676   4.216   6.656 -0.1488  1.4182 -0.1334
   31CHL1   H4B 2227   0.509   4.258   6.701 -2.3541 -2.0801  0.2090
   31CHL1    C5 2228   0.631   4.194   6.871 -0.0988  0.2548 -0.4723
   31CHL1    C6 2229   0.591   4.296   6.946  0.6664 -0.2643 -0.1078
   31CHL1    H6 2230   0.523   4.374   6.910  0.3017 -0.3487  0.3789
   31CHL1    C7 2231   0.625   4.303   7.095  0.2577  0.7207  0.5195
   31CHL1   H7A 2232   0.671   4.402   7.119  0.6805  0.7456 -0.3778
   31CHL1   H7B 2233   0.532   4.296   7.155 -2.3916  1.8473 -3.1592
   31CHL1    C8 2234   0.734   4.195   7.133  0.0527  0.0134 -0.4799
   31CHL1    H8 2235   0.831   4.240   7.104  1.1263 -0.3227  2.2510
   31CHL1   C14 2236   0.736   4.172   7.283 -0.7239  0.3390  0.3653
   31CHL1   H14 2237   0.642   4.130   7.323 -1.1077  0.3536 -0.4873
   31CHL1   C15 2238   0.758   4.301   7.362 -0.6746  0.0304 -0.5512
   31CHL1  H15A 2239   0.845   4.355   7.318 -0.6927  1.1640  0.7358
   31CHL1  H15B 2240   0.667   4.365   7.364 -0.4187  0.3890  1.2822
   31CHL1   C16 2241   0.800   4.261   7.505 -0.7002  0.6541  0.3320
   31CHL1  H16A 2242   0.890   4.320   7.534  0.0987  0.0096 -0.7642
   31CHL1  H16B 2243   0.719   4.267   7.580  0.1527 -2.9778  1.7330
   31CHL1   C17 2244   0.834   4.111   7.487  0.5748  0.6281  0.2680
   31CHL1   H17 2245   0.738   4.067   7.523  0.4557  0.8055  0.1715
   31CHL1   C13 2246   0.849   4.083   7.330  0.0735  0.1523  0.3955
   31CHL1   C18 2247   0.990   4.119   7.296 -0.2324 -0.1087 -0.1850
   31CHL1  H18A 2248   1.030   4.202   7.359 -0.6616 -0.1960  0.2087
   31CHL1  H18B 2249   1.048   4.029   7.326 -1.1390 -0.0109  1.9925
   31CHL1  H18C 2250   1.001   4.146   7.189  0.1083  1.6651  0.2532
   31CHL1   C12 2251   0.815   3.939   7.277 -0.1664  0.1178 -0.6991
   31CHL1  H12A 2252   0.889   3.862   7.305 -2.2002 -2.2196 -1.3809
   31CHL1  H12B 2253   0.715   3.915   7.319  0.2123  1.8451  1.3677
   31CHL1   C11 2254   0.802   3.951   7.122 -0.5040  0.5782  0.0116
   31CHL1  H11A 2255   0.906   3.979   7.094 -0.8556  2.8009  0.7548
   31CHL1  H11B 2256   0.772   3.856   7.073 -0.1097 -0.2027  1.2108
   31CHL1    C9 2257   0.704   4.059   7.071  0.1584 -0.2919 -0.6644
   31CHL1    H9 2258   0.606   4.024   7.110  0.6238  1.4162  2.3135
   31CHL1   C10 2259   0.707   4.068   6.919  0.0499  0.3269  0.5203
   31CHL1   C19 2260   0.845   4.056   6.860  0.2099  0.3440  0.1543
   31CHL1  H19A 2261   0.835   4.080   6.752 -0.7502 -0.3616  0.0734
   31CHL1  H19B 2262   0.907   4.141   6.897 -1.3047  0.6981  1.9857
   31CHL1  H19C 2263   0.892   3.959   6.885  1.8240  0.5274 -1.8257
   31CHL1    C1 2264   0.619   3.951   6.877  0.3203 -0.2363  0.2762
   31CHL1   H1A 2265   0.661   3.855   6.915  2.9119 -0.0939 -1.9050
   31CHL1   H1B 2266   0.515   3.965   6.914 -0.6991 -0.4641 -2.2782
   31CHL1    C2 2267   0.602   3.935   6.721  0.7234 -0.6439  0.6386
   31CHL1   H2A 2268   0.564   3.840   6.678 -1.5936  1.8799 -3.5613
   31CHL1   H2B 2269   0.695   3.957   6.664  0.5193 -1.1673  0.0967
   31CHL1   C20 2270   0.941   4.075   7.586  0.2659  1.3196  0.8302
   31CHL1   H20 2271   1.035   4.117   7.544 -0.4914 -0.1832 -2.6785
   31CHL1   C21 2272   0.965   3.925   7.575 -0.3103 -1.1839 -1.0686
   31CHL1  H21A 2273   1.043   3.881   7.641  0.6635  0.7227 -0.8623
   31CHL1  H21B 2274   0.996   3.894   7.473  2.2837  0.4032 -0.8616
   31CHL1  H21C 2275   0.876   3.863   7.596 -0.1440 -1.3300 -0.7885
   31CHL1   C22 2276   0.921   4.125   7.730  0.2588 -0.0247 -0.5490
   31CHL1  H22A 2277   0.892   4.232   7.743  2.0866  0.7018 -2.0180
   31CHL1  H22B 2278   0.842   4.065   7.781  1.1948 -1.8177 -1.1447
   31CHL1   C23 2279   1.049   4.109   7.812  0.1424 -0.6109 -0.2480
   31CHL1  H23A 2280   1.078   4.002   7.824 -0.3960 -0.7432 -0.0938
   31CHL1  H23B 2281   1.131   4.160   7.758 -0.5652  0.8389 -0.0118
   31CHL1   C24 2282   1.036   4.171   7.955 -0.2392  0.4890 -0.0154
   31CHL1  H24A 2283   1.015   4.279   7.940 -1.2483  0.2890 -0.1177
   31CHL1  H24B 2284   0.952   4.122   8.007 -1.0067  0.4637 -1.2443
   31CHL1   C25 2285   1.170   4.181   8.040  0.4246  0.6305 -0.5512
   31CHL1   H25 2286   1.242   4.250   7.991 -0.4393  1.7829 -0.2175
   31CHL1   C26 2287   1.131   4.244   8.173  0.0778 -0.4193 -0.4512
   31CHL1  H26A 2288   1.216   4.260   8.243 -0.0339  1.7297 -0.7520
   31CHL1  H26B 2289   1.092   4.347   8.162  1.5568  0.4907  2.1230
   31CHL1  H26C 2290   1.057   4.184   8.231 -0.2201 -0.7461 -1.1521
   31CHL1   C27 2291   1.232   4.040   8.051 -0.3488  0.8204  0.5402
   31CHL1  H27A 2292   1.151   3.972   8.085  0.3529  0.6596  1.9320
   31CHL1  H27B 2293   1.321   4.035   8.117 -0.3528 -0.6444  0.4535
   31CHL1  H27C 2294   1.266   4.009   7.950  0.9228  0.9696  0.9072
   32CHL1    C3 2295   6.692   0.984   6.946 -0.4436  0.4001  0.3011
   32CHL1    H3 2296   6.731   1.084   6.975 -1.4243  1.3412 -1.4487
   32CHL1    O3 2297   6.672   0.969   6.809 -0.1596  0.0834 -0.0516
   32CHL1   H3' 2298   6.756   0.953   6.766  0.1872 -2.0988  1.3253
   32CHL1    C4 2299   6.803   0.883   6.996  0.3835  0.7173  0.0032
   32CHL1   H4A 2300   6.799   0.786   6.943  1.1145  0.6739  0.0149
   32CHL1   H4B 2301   6.894   0.926   6.948  0.2409  0.2449 -0.6999
   32CHL1    C5 2302   6.821   0.879   7.148  0.1521  0.5551 -0.0919
   32CHL1    C6 2303   6.942   0.891   7.217 -0.7798 -0.0536 -0.7702
   32CHL1    H6 2304   7.032   0.907   7.156 -0.7477  1.2166 -0.4104
   32CHL1    C7 2305   6.960   0.879   7.367  0.0635 -0.3791  0.3058
   32CHL1   H7A 2306   7.040   0.804   7.385 -0.1530  0.0660  3.6776
   32CHL1   H7B 2307   6.987   0.980   7.404 -1.6024 -0.0700  0.7895
   32CHL1    C8 2308   6.835   0.832   7.437  0.4189 -0.2850 -0.8415
   32CHL1    H8 2309   6.825   0.723   7.423 -0.7071 -0.6510  1.9519
   32CHL1   C14 2310   6.839   0.873   7.587 -0.1910 -0.5706  0.4157
   32CHL1   H14 2311   6.829   0.984   7.590 -0.1931 -0.5269 -0.7814
   32CHL1   C15 2312   6.972   0.844   7.654 -0.0715 -0.4332 -0.2022
   32CHL1  H15A 2313   7.019   0.749   7.621 -0.4376 -0.5698 -0.3423
   32CHL1  H15B 2314   7.044   0.926   7.634  1.7193 -1.4207  1.7774
   32CHL1   C16 2315   6.941   0.845   7.807  0.1127 -0.3621  0.1013
   32CHL1  H16A 2316   6.980   0.751   7.851 -1.6008 -1.1541  0.0042
   32CHL1  H16B 2317   6.999   0.929   7.851 -0.5663  0.3868 -0.3901
   32CHL1   C17 2318   6.782   0.855   7.804  0.4456 -0.4084 -0.3443
   32CHL1   H17 2319   6.775   0.965   7.817  0.6717 -0.5032  0.6656
   32CHL1   C13 2320   6.728   0.818   7.666 -0.0432  0.3427  0.4378
   32CHL1   C18 2321   6.712   0.670   7.653 -0.3721  0.1411 -0.3523
   32CHL1  H18A 2322   6.811   0.628   7.680  0.7595  2.4626 -0.6431
   32CHL1  H18B 2323   6.636   0.623   7.719 -0.1546 -0.5498 -0.5870
   32CHL1  H18C 2324   6.687   0.639   7.549 -1.9179  0.7926 -0.2051
   32CHL1   C12 2325   6.597   0.882   7.618 -1.1423  0.1514 -0.3733
   32CHL1  H12A 2326   6.506   0.830   7.655 -0.4015  0.3220  1.8350
   32CHL1  H12B 2327   6.604   0.984   7.660 -0.7889 -1.3035  3.5072
   32CHL1   C11 2328   6.581   0.875   7.457 -0.4333 -0.2893  0.1053
   32CHL1  H11A 2329   6.545   0.771   7.447 -3.6003  0.3011  3.4531
   32CHL1  H11B 2330   6.498   0.943   7.428 -0.0815  0.7909  1.5213
   32CHL1    C9 2331   6.706   0.902   7.372 -0.1147 -0.3893  0.5243
   32CHL1    H9 2332   6.725   1.011   7.382 -0.0804 -0.2685 -0.6451
   32CHL1   C10 2333   6.689   0.864   7.221  0.1888 -0.3366 -0.4133
   32CHL1   C19 2334   6.636   0.716   7.205  0.8204  0.3728  0.7031
   32CHL1  H19A 2335   6.709   0.650   7.256  1.6147  0.8582  0.2053
   32CHL1  H19B 2336   6.530   0.699   7.234  0.9754 -0.8841  0.6035
   32CHL1  H19C 2337   6.651   0.682   7.100  0.2225 -1.8092  1.2733
   32CHL1    C1 2338   6.588   0.962   7.162 -0.0646  0.9110 -0.0393
   32CHL1   H1A 2339   6.491   0.932   7.208 -0.6464  1.8861 -0.5985
   32CHL1   H1B 2340   6.617   1.065   7.192 -0.9645  1.0770  0.2889
   32CHL1    C2 2341   6.561   0.958   7.009 -0.0461 -0.1018 -0.7396
   32CHL1   H2A 2342   6.481   1.033   6.993  0.5116  0.6163 -0.2385
   32CHL1   H2B 2343   6.539   0.852   6.986  0.6245 -0.9547  2.0477
   32CHL1   C20 2344   6.722   0.792   7.924  0.1589  0.0589  0.2333
   32CHL1   H20 2345   6.618   0.768   7.892  0.4263  0.6377 -1.1682
   32CHL1   C21 2346   6.709   0.897   8.037 -0.0233 -0.4138 -0.6482
   32CHL1  H21A 2347   6.645   0.981   8.003 -1.3354 -1.6082 -1.1815
   32CHL1  H21B 2348   6.803   0.943   8.075  0.5309 -1.9072 -0.1523
   32CHL1  H21C 2349   6.657   0.853   8.125 -0.4035  0.7133 -0.2920
   32CHL1   C22 2350   6.774   0.655   7.982 -0.6451 -0.5627 -0.3504
   32CHL1  H22A 2351   6.813   0.592   7.899  0.3281  0.3332 -0.5777
   32CHL1  H22B 2352   6.863   0.670   8.046  1.6441 -0.5698 -3.3269
   32CHL1   C23 2353   6.677   0.571   8.062  0.2428  0.1421 -0.1390
   32CHL1  H23A 2354   6.629   0.630   8.143 -1.6682 -1.2452 -0.1940
   32CHL1  H23B 2355   6.592   0.535   8.001 -0.8849 -0.2474  1.6005
   32CHL1   C24 2356   6.743   0.441   8.109  0.6821  0.3137  0.3703
   32CHL1  H24A 2357   6.761   0.374   8.023  2.3903  0.6424  0.4404
   32CHL1  H24B 2358   6.841   0.469   8.152  0.3755 -2.0525  2.9947
   32CHL1   C25 2359   6.666   0.361   8.212 -0.6149  0.1285 -0.8165
   32CHL1   H25 2360   6.640   0.430   8.296  3.9464  0.2570  0.7800
   32CHL1   C26 2361   6.535   0.307   8.156 -0.0654  0.2198 -0.1264
   32CHL1  H26A 2362   6.550   0.227   8.080  1.5754  0.4662 -0.0969
   32CHL1  H26B 2363   6.475   0.265   8.239 -0.0014  0.5267  0.0776
   32CHL1  H26C 2364   6.465   0.378   8.108 -0.1841  0.2587  0.1035
   32CHL1   C27 2365   6.755   0.250   8.279 -0.5237 -0.0448  1.0528
   32CHL1  H27A 2366   6.839   0.295   8.336 -0.4538  2.5018 -0.8788
   32CHL1  H27B 2367   6.692   0.192   8.350 -1.7081  1.7893  1.5714
   32CHL1  H27C 2368   6.793   0.191   8.193 -0.9996  0.5530  0.4164
   33CHL1    C3 2369   1.390   6.506   6.933 -0.1952  0.2990 -0.1902
   33CHL1    H3 2370   1.329   6.413   6.936 -0.0208  0.0431 -2.7172
   33CHL1    O3 2371   1.410   6.552   6.799  0.5703  0.4050  0.5270
   33CHL1   H3' 2372   1.470   6.625   6.814  2.1015 -0.8761  0.8917
   33CHL1    C4 2373   1.313   6.614   7.018 -0.1464  0.6525 -0.1127
   33CHL1   H4A 2374   1.343   6.718   6.997 -1.6381  1.4948  1.6217
   33CHL1   H4B 2375   1.208   6.605   6.981  0.7433 -2.3629 -2.3222
   33CHL1    C5 2376   1.302   6.578   7.164 -0.3463  0.5932  0.1732
   33CHL1    C6 2377   1.189   6.571   7.234  0.2062  0.5105 -0.1404
   33CHL1    H6 2378   1.094   6.576   7.178  0.5274 -0.7826 -0.8516
   33CHL1    C7 2379   1.188   6.537   7.380  0.5977 -0.1939  0.4287
   33CHL1   H7A 2380   1.111   6.597   7.433  0.9854 -0.8067  1.7270
   33CHL1   H7B 2381   1.162   6.429   7.389 -0.3608  0.0521  0.7514
   33CHL1    C8 2382   1.315   6.565   7.456 -0.4657 -0.6408  0.9127
   33CHL1    H8 2383   1.328   6.676   7.460 -0.4460 -0.6837  2.7834
   33CHL1   C14 2384   1.315   6.504   7.595 -1.0307  0.7227  0.9646
   33CHL1   H14 2385   1.319   6.396   7.571 -0.1704  0.9827 -0.1554
   33CHL1   C15 2386   1.188   6.530   7.683 -1.3296 -0.4658  0.2518
   33CHL1  H15A 2387   1.150   6.634   7.670 -2.4429 -0.9488 -0.5756
   33CHL1  H15B 2388   1.108   6.467   7.638 -0.2282  0.4836 -3.3401
   33CHL1   C16 2389   1.234   6.494   7.824 -0.4406  0.1057 -0.0614
   33CHL1  H16A 2390   1.214   6.578   7.894  2.1377  0.4687  0.3595
   33CHL1  H16B 2391   1.176   6.410   7.868 -4.1170  1.7453 -1.4019
   33CHL1   C17 2392   1.394   6.467   7.821  0.5200 -0.0575  0.5400
   33CHL1   H17 2393   1.420   6.359   7.818  0.0871 -0.2265 -3.8548
   33CHL1   C13 2394   1.432   6.535   7.680 -0.2229  0.2199 -0.4046
   33CHL1   C18 2395   1.442   6.689   7.705 -0.2555 -0.8249 -0.0681
   33CHL1  H18A 2396   1.475   6.746   7.616 -0.8833 -0.6242 -0.1780
   33CHL1  H18B 2397   1.352   6.732   7.753  1.5604 -0.3225  3.1917
   33CHL1  H18C 2398   1.528   6.715   7.770  0.7176  0.3478 -1.7479
   33CHL1   C12 2399   1.554   6.485   7.608  0.3364 -0.3072 -0.0668
   33CHL1  H12A 2400   1.647   6.512   7.663  0.9274 -2.1627 -0.0541
   33CHL1  H12B 2401   1.561   6.374   7.604  1.0326 -0.3743  1.7840
   33CHL1   C11 2402   1.563   6.523   7.463 -0.0812 -0.3992  0.2269
   33CHL1  H11A 2403   1.585   6.632   7.464 -0.6826 -0.2045 -2.3537
   33CHL1  H11B 2404   1.644   6.467   7.412 -0.6390 -2.0882  1.1147
   33CHL1    C9 2405   1.430   6.509   7.381  0.4557  0.0490  0.3452
   33CHL1    H9 2406   1.417   6.401   7.358 -1.4478  0.5679 -1.2798
   33CHL1   C10 2407   1.442   6.564   7.231  0.6330  0.0659 -0.0995
   33CHL1   C19 2408   1.522   6.696   7.229  0.0249  0.1527  0.6424
   33CHL1  H19A 2409   1.624   6.674   7.267 -0.8034 -2.6459  1.4885
   33CHL1  H19B 2410   1.537   6.739   7.127  0.7734  0.6371  0.9507
   33CHL1  H19C 2411   1.463   6.775   7.279 -2.0668  0.2334 -1.7408
   33CHL1    C1 2412   1.523   6.456   7.150 -0.4880  0.1624 -0.6839
   33CHL1   H1A 2413   1.628   6.442   7.182 -1.5619 -0.8069  2.8252
   33CHL1   H1B 2414   1.475   6.356   7.158  2.7152 -1.4373  0.2647
   33CHL1    C2 2415   1.525   6.490   7.000 -0.2695  0.6762  1.0655
   33CHL1   H2A 2416   1.574   6.402   6.954 -0.0688  1.2787  0.0922
   33CHL1   H2B 2417   1.597   6.575   6.992  1.1646 -0.6699 -2.5444
   33CHL1   C20 2418   1.465   6.521   7.946  0.3363  0.5482  0.1090
   33CHL1   H20 2419   1.469   6.632   7.941  1.9001  0.5753  1.2416
   33CHL1   C21 2420   1.609   6.467   7.955 -0.0955 -0.0316  0.7566
   33CHL1  H21A 2421   1.614   6.356   7.954  0.2717 -0.0172  0.9330
   33CHL1  H21B 2422   1.644   6.512   8.051  2.0898  0.4695 -0.2201
   33CHL1  H21C 2423   1.667   6.509   7.871 -2.0960  0.0883 -0.6323
   33CHL1   C22 2424   1.395   6.484   8.079 -0.5227  0.0561  0.1734
   33CHL1  H22A 2425   1.460   6.529   8.157  2.0922 -1.8011 -0.7998
   33CHL1  H22B 2426   1.295   6.531   8.087 -1.4792 -2.0000  0.7378
   33CHL1   C23 2427   1.371   6.332   8.111  0.4275  0.6286  0.4854
   33CHL1  H23A 2428   1.322   6.282   8.026  0.8283 -0.7459  1.0459
   33CHL1  H23B 2429   1.463   6.274   8.134  0.1918 -1.0341 -2.3309
   33CHL1   C24 2430   1.267   6.323   8.230  0.8104  0.2419  0.6064
   33CHL1  H24A 2431   1.178   6.375   8.190  2.1201 -0.2557 -3.4683
   33CHL1  H24B 2432   1.239   6.218   8.256 -0.3456  0.5374  0.5824
   33CHL1   C25 2433   1.307   6.400   8.361  0.5189  0.7946  0.3626
   33CHL1   H25 2434   1.328   6.506   8.334 -0.9649  1.0851  0.2454
   33CHL1   C26 2435   1.187   6.397   8.455  0.0460  0.4180  0.2704
   33CHL1  H26A 2436   1.208   6.457   8.547  0.5577  0.7667 -0.0660
   33CHL1  H26B 2437   1.095   6.440   8.410 -0.0638 -0.1226 -0.0236
   33CHL1  H26C 2438   1.158   6.293   8.480  2.5300 -0.2185  0.7142
   33CHL1   C27 2439   1.441   6.341   8.413  0.3277  0.7044  0.1946
   33CHL1  H27A 2440   1.425   6.240   8.457 -0.8410  1.0135  0.5226
   33CHL1  H27B 2441   1.510   6.327   8.327 -0.2537  1.0892 -0.3483
   33CHL1  H27C 2442   1.489   6.411   8.484 -1.7039  2.5970 -0.2063
   34CHL1    C3 2443   1.895   6.327   6.965  0.4817 -0.6310 -0.2914
   34CHL1    H3 2444   1.819   6.408   6.976  1.7135  0.4244  0.7683
   34CHL1    O3 2445   1.958   6.326   6.836 -0.0913 -0.4895  0.3524
   34CHL1   H3' 2446   2.027   6.261   6.846  1.2563  1.0739  1.8819
   34CHL1    C4 2447   2.011   6.337   7.062  0.2009 -0.4849 -0.6694
   34CHL1   H4A 2448   2.099   6.278   7.028  0.5471 -0.8500  0.7981
   34CHL1   H4B 2449   2.046   6.440   7.039 -1.3918  0.2151 -0.1292
   34CHL1    C5 2450   1.985   6.302   7.207  0.7143 -1.5256 -0.3362
   34CHL1    C6 2451   2.000   6.397   7.301  0.7037 -0.0376  0.2195
   34CHL1    H6 2452   2.050   6.491   7.270  4.3180 -1.9869 -0.3835
   34CHL1    C7 2453   1.980   6.377   7.444  0.2016 -0.0957 -0.4696
   34CHL1   H7A 2454   2.074   6.395   7.502 -1.6006  1.7077  2.1728
   34CHL1   H7B 2455   1.893   6.435   7.481  0.2726  0.5841 -1.3433
   34CHL1    C8 2456   1.944   6.232   7.483 -0.4847 -0.4450  0.1559
   34CHL1    H8 2457   2.043   6.181   7.480  0.3486  1.1209 -0.9403
   34CHL1   C14 2458   1.873   6.229   7.618  0.9809  0.5728 -0.2595
   34CHL1   H14 2459   1.774   6.278   7.603  1.3141  0.8139 -1.8344
   34CHL1   C15 2460   1.936   6.307   7.730 -0.0831 -0.3391  0.2477
   34CHL1  H15A 2461   2.046   6.286   7.733  0.4826  2.3679  1.4307
   34CHL1  H15B 2462   1.926   6.417   7.722 -0.7088 -0.5034 -1.6512
   34CHL1   C16 2463   1.870   6.252   7.859  0.3501 -0.4147  0.2370
   34CHL1  H16A 2464   1.954   6.206   7.916 -1.1703 -3.2669  0.3556
   34CHL1  H16B 2465   1.834   6.334   7.924 -1.3399  0.2070 -1.4040
   34CHL1   C17 2466   1.765   6.148   7.808 -0.0638 -0.4637 -0.4003
   34CHL1   H17 2467   1.673   6.206   7.788  0.1676 -0.7021 -2.3070
   34CHL1   C13 2468   1.824   6.097   7.677 -0.4780  0.0356  0.9327
   34CHL1   C18 2469   1.950   5.998   7.692 -0.0807 -0.7656  0.1677
   34CHL1  H18A 2470   2.028   6.046   7.755 -0.1687 -1.1292  0.5593
   34CHL1  H18B 2471   1.929   5.903   7.745  0.1470 -1.1697 -0.4541
   34CHL1  H18C 2472   2.015   5.977   7.605  1.0766 -0.1173  0.8487
   34CHL1   C12 2473   1.727   6.037   7.563 -0.0033 -0.0067  1.0501
   34CHL1  H12A 2474   1.698   5.933   7.587 -0.0460  0.0312  1.1659
   34CHL1  H12B 2475   1.637   6.101   7.561  0.7021  1.1462  3.0665
   34CHL1   C11 2476   1.795   6.036   7.426 -0.4279  0.0273  0.6430
   34CHL1  H11A 2477   1.881   5.965   7.434  0.7356  1.6055  3.3380
   34CHL1  H11B 2478   1.730   6.004   7.342  2.2957 -0.8730 -1.2405
   34CHL1    C9 2479   1.849   6.174   7.382 -0.0047  0.1406  0.0849
   34CHL1    H9 2480   1.768   6.249   7.380  0.4329  0.7883  2.8509
   34CHL1   C10 2481   1.908   6.176   7.240 -0.0754 -0.2934  0.3962
   34CHL1   C19 2482   2.005   6.056   7.228  0.1243 -0.3147  0.6173
   34CHL1  H19A 2483   1.957   5.956   7.237 -3.1651  0.5730 -3.7560
   34CHL1  H19B 2484   2.063   6.064   7.134  1.1688 -0.3320  1.2470
   34CHL1  H19C 2485   2.084   6.058   7.306  0.4427  1.9120  0.3044
   34CHL1    C1 2486   1.787   6.172   7.145 -0.8745 -0.0226  0.9477
   34CHL1   H1A 2487   1.755   6.065   7.153 -1.9796  0.2404  0.2091
   34CHL1   H1B 2488   1.708   6.243   7.178 -1.3718  0.0916 -0.4288
   34CHL1    C2 2489   1.821   6.198   6.989 -0.5535 -0.3326 -0.2873
   34CHL1   H2A 2490   1.727   6.196   6.931 -0.7917 -1.0890  0.1103
   34CHL1   H2B 2491   1.890   6.113   6.968  1.5396  0.8936  1.1872
   34CHL1   C20 2492   1.728   6.047   7.913  0.7727  1.3012 -0.1152
   34CHL1   H20 2493   1.801   5.964   7.925  0.6543  1.4457  1.8243
   34CHL1   C21 2494   1.592   5.983   7.876  0.2999  0.4964  0.7109
   34CHL1  H21A 2495   1.599   5.947   7.771  2.6244  3.0837 -0.1401
   34CHL1  H21B 2496   1.521   6.065   7.854 -0.6962 -0.8877 -1.6284
   34CHL1  H21C 2497   1.548   5.911   7.948 -1.4894  1.1291  0.3048
   34CHL1   C22 2498   1.710   6.106   8.061  0.9031  0.0753  0.2096
   34CHL1  H22A 2499   1.807   6.152   8.091  0.4123  1.0065  0.4063
   34CHL1  H22B 2500   1.630   6.181   8.045 -0.1112 -1.5268 -3.0097
   34CHL1   C23 2501   1.662   6.000   8.168  0.1466  0.1146  0.5109
   34CHL1  H23A 2502   1.555   5.981   8.144  0.4411 -0.4239 -0.4026
   34CHL1  H23B 2503   1.715   5.904   8.157 -0.0107  0.1351 -0.5389
   34CHL1   C24 2504   1.693   6.047   8.304 -0.2608  0.2589 -0.6614
   34CHL1  H24A 2505   1.798   6.023   8.332 -0.2357 -0.3762 -1.2551
   34CHL1  H24B 2506   1.682   6.158   8.303  0.9364  0.3954 -1.8267
   34CHL1   C25 2507   1.604   5.983   8.413  0.1032 -0.3822  0.0698
   34CHL1   H25 2508   1.502   6.004   8.374  0.1056  1.5130  0.9416
   34CHL1   C26 2509   1.636   5.833   8.432  0.1808 -0.6293  0.3552
   34CHL1  H26A 2510   1.566   5.805   8.514 -0.7820  0.4983 -0.0548
   34CHL1  H26B 2511   1.613   5.771   8.343 -0.6255 -0.1210  0.2042
   34CHL1  H26C 2512   1.740   5.820   8.470  0.5742 -0.2381 -0.5491
   34CHL1   C27 2513   1.622   6.059   8.545 -0.2124 -0.8896  0.0483
   34CHL1  H27A 2514   1.609   6.169   8.547  1.8544 -0.5722  2.5329
   34CHL1  H27B 2515   1.545   6.029   8.620  1.0013 -1.6742  1.0302
   34CHL1  H27C 2516   1.722   6.040   8.592 -0.4219 -1.9191  0.0967
   35CHL1    C3 2517   4.380   1.603   7.179  0.7578 -0.2724 -0.5405
   35CHL1    H3 2518   4.356   1.702   7.225 -0.1362  0.8741 -3.2609
   35CHL1    O3 2519   4.403   1.627   7.040 -0.3782  0.0482  0.0179
   35CHL1   H3' 2520   4.428   1.544   6.999  1.1674 -0.1802  1.3058
   35CHL1    C4 2521   4.506   1.571   7.252 -0.4549  0.4688 -0.4205
   35CHL1   H4A 2522   4.565   1.486   7.210 -0.4193 -0.0754  0.6745
   35CHL1   H4B 2523   4.585   1.649   7.256  0.9425 -0.9169  2.2954
   35CHL1    C5 2524   4.475   1.539   7.400  0.0269 -0.2793  0.0377
   35CHL1    C6 2525   4.541   1.598   7.498 -0.2727 -0.3468 -0.6114
   35CHL1    H6 2526   4.611   1.679   7.474 -0.9062  0.9952  1.7869
   35CHL1    C7 2527   4.526   1.567   7.648  0.6231  0.7080  0.7231
   35CHL1   H7A 2528   4.625   1.543   7.692  1.7420  2.1160 -0.8496
   35CHL1   H7B 2529   4.479   1.652   7.702 -1.2715  0.9107 -1.1031
   35CHL1    C8 2530   4.440   1.435   7.673 -0.0085  0.7718 -0.2480
   35CHL1    H8 2531   4.520   1.358   7.661  1.1095  2.0477 -1.1594
   35CHL1   C14 2532   4.390   1.428   7.820  0.7019 -0.1638 -0.2947
   35CHL1   H14 2533   4.317   1.512   7.827  0.7169 -0.0569 -1.3362
   35CHL1   C15 2534   4.500   1.445   7.925 -0.1926  0.1397 -0.5266
   35CHL1  H15A 2535   4.586   1.381   7.895  1.3366  1.5122  0.7266
   35CHL1  H15B 2536   4.546   1.546   7.931  2.8991 -1.1867  0.4724
   35CHL1   C16 2537   4.436   1.403   8.063 -0.1850  0.0563  0.7122
   35CHL1  H16A 2538   4.504   1.337   8.121  2.3340  0.1910 -1.8026
   35CHL1  H16B 2539   4.402   1.490   8.123 -2.9704 -1.3856  1.3813
   35CHL1   C17 2540   4.311   1.323   8.019  0.4199  0.5003  0.0093
   35CHL1   H17 2541   4.227   1.396   8.020 -0.8866 -0.9214 -1.3237
   35CHL1   C13 2542   4.320   1.298   7.864  0.0698  0.0149  0.1093
   35CHL1   C18 2543   4.415   1.174   7.854 -0.4257 -0.1176 -0.3867
   35CHL1  H18A 2544   4.467   1.171   7.756  0.0903 -2.5117 -0.1110
   35CHL1  H18B 2545   4.480   1.176   7.944 -0.8455 -0.5702 -0.0647
   35CHL1  H18C 2546   4.353   1.083   7.868 -1.0530  0.1849 -1.1560
   35CHL1   C12 2547   4.198   1.291   7.771 -1.1166 -0.4271 -0.1462
   35CHL1  H12A 2548   4.150   1.191   7.779 -0.8268 -0.7369 -2.0078
   35CHL1  H12B 2549   4.119   1.368   7.788 -0.0878  1.5387 -3.3631
   35CHL1   C11 2550   4.241   1.292   7.622 -0.2550 -0.3853 -0.0404
   35CHL1  H11A 2551   4.308   1.207   7.594  0.9729  0.5757 -0.1106
   35CHL1  H11B 2552   4.143   1.286   7.571 -1.6594  1.0761  2.3149
   35CHL1    C9 2553   4.324   1.419   7.575  0.1862  0.2308 -0.3376
   35CHL1    H9 2554   4.248   1.498   7.595 -0.4512 -0.0932 -1.4168
   35CHL1   C10 2555   4.367   1.429   7.426  1.0450  0.1006 -0.0962
   35CHL1   C19 2556   4.423   1.289   7.376  0.2389 -0.4281 -0.1482
   35CHL1  H19A 2557   4.480   1.301   7.281  1.1623 -0.4699  0.3879
   35CHL1  H19B 2558   4.487   1.232   7.447  0.6847  0.2674  0.0263
   35CHL1  H19C 2559   4.330   1.239   7.343  0.5535  0.7141 -3.0581
   35CHL1    C1 2560   4.241   1.465   7.343  0.1533 -0.4506 -0.2478
   35CHL1   H1A 2561   4.163   1.389   7.361 -1.0199  0.9542  0.8364
   35CHL1   H1B 2562   4.191   1.556   7.382  1.4249  0.4791 -0.7062
   35CHL1    C2 2563   4.267   1.502   7.196 -0.1126 -0.3221 -0.4413
   35CHL1   H2A 2564   4.180   1.529   7.132 -1.5673 -2.5657  0.4591
   35CHL1   H2B 2565   4.301   1.402   7.160  0.6231 -0.7324  1.3295
   35CHL1   C20 2566   4.282   1.200   8.112 -0.1534 -0.2957  0.4255
   35CHL1   H20 2567   4.356   1.117   8.102 -0.8424 -1.0140  1.1763
   35CHL1   C21 2568   4.145   1.150   8.088  0.2862 -0.4584 -0.1746
   35CHL1  H21A 2569   4.065   1.224   8.109 -2.0312 -2.0570 -2.6930
   35CHL1  H21B 2570   4.131   1.063   8.156 -1.9006  1.3344  1.8142
   35CHL1  H21C 2571   4.118   1.113   7.987  0.0663 -1.4662  0.2394
   35CHL1   C22 2572   4.298   1.240   8.260  0.3097 -0.4227 -0.1895
   35CHL1  H22A 2573   4.367   1.325   8.277 -1.1861  0.8096 -0.1358
   35CHL1  H22B 2574   4.198   1.270   8.296 -0.1699  0.3421 -2.0597
   35CHL1   C23 2575   4.345   1.115   8.341 -0.5315  0.2677  0.3199
   35CHL1  H23A 2576   4.274   1.031   8.335 -0.7660  0.4653  0.3043
   35CHL1  H23B 2577   4.446   1.081   8.308 -0.0880 -0.5814  2.4169
   35CHL1   C24 2578   4.349   1.143   8.490  0.1009  0.1795  0.3692
   35CHL1  H24A 2579   4.442   1.197   8.519 -0.1394 -0.1948  1.9261
   35CHL1  H24B 2580   4.264   1.212   8.512  0.4407  0.3559  1.1864
   35CHL1   C25 2581   4.343   1.023   8.598 -0.4014  0.8269  0.1019
   35CHL1   H25 2582   4.236   0.993   8.599 -0.8291  2.2597 -0.3057
   35CHL1   C26 2583   4.437   0.905   8.559  0.4365 -0.5903  0.6248
   35CHL1  H26A 2584   4.540   0.939   8.537  0.5886 -2.5451 -2.2495
   35CHL1  H26B 2585   4.446   0.827   8.638  1.9959 -0.6859  0.3693
   35CHL1  H26C 2586   4.390   0.858   8.470  1.3142  0.5402 -0.4685
   35CHL1   C27 2587   4.373   1.072   8.738 -0.0497 -0.0437  0.1595
   35CHL1  H27A 2588   4.366   0.987   8.810 -1.4570 -0.1597 -0.0872
   35CHL1  H27B 2589   4.301   1.155   8.757 -0.6550 -0.3043 -0.9175
   35CHL1  H27C 2590   4.474   1.115   8.750 -0.0445 -0.4574  1.7991
   36CHL1    C3 2591   6.117   0.958   7.021 -0.8077  0.3969  1.0663
   36CHL1    H3 2592   6.139   1.063   7.048 -1.6524  0.3474  1.9784
   36CHL1    O3 2593   6.155   0.945   6.885  0.0921 -0.1735 -0.6378
   36CHL1   H3' 2594   6.121   0.859   6.859 -1.0518  0.6312 -1.9256
   36CHL1    C4 2595   6.186   0.855   7.109 -0.5333  0.6060  0.3251
   36CHL1   H4A 2596   6.166   0.759   7.057 -2.5311  1.4635 -0.6236
   36CHL1   H4B 2597   6.296   0.854   7.094 -0.4690 -0.4003  0.8225
   36CHL1    C5 2598   6.125   0.847   7.250 -0.1771 -0.1221 -0.5337
   36CHL1    C6 2599   6.200   0.864   7.361 -0.3956  0.0073  0.7644
   36CHL1    H6 2600   6.308   0.879   7.345 -0.2112 -1.8229  0.0872
   36CHL1    C7 2601   6.157   0.854   7.499 -0.0638 -0.1103 -0.3565
   36CHL1   H7A 2602   6.228   0.785   7.550  0.3201  1.0768  0.8034
   36CHL1   H7B 2603   6.174   0.959   7.533  1.5442 -0.9299  1.6039
   36CHL1    C8 2604   6.011   0.807   7.517  0.3350  0.2364 -0.3640
   36CHL1    H8 2605   6.008   0.696   7.510 -2.1381  0.3797 -3.4466
   36CHL1   C14 2606   5.965   0.864   7.651 -0.5993  0.7327 -0.1476
   36CHL1   H14 2607   5.977   0.974   7.641  3.2383  0.3364 -1.4025
   36CHL1   C15 2608   6.052   0.828   7.777  0.6106  0.6732 -0.3298
   36CHL1  H15A 2609   6.059   0.717   7.765 -0.7422  0.3028  1.6695
   36CHL1  H15B 2610   6.151   0.877   7.780  0.3478  1.6428 -3.7731
   36CHL1   C16 2611   5.962   0.865   7.892  0.7225  0.1266  0.5999
   36CHL1  H16A 2612   5.974   0.792   7.976  0.2086 -0.0248  0.5466
   36CHL1  H16B 2613   5.992   0.961   7.939  0.2416  1.3062 -1.4009
   36CHL1   C17 2614   5.819   0.878   7.839 -0.6617  1.0237 -0.1709
   36CHL1   H17 2615   5.795   0.984   7.816 -0.4305  1.7423  2.5069
   36CHL1   C13 2616   5.822   0.821   7.693 -0.4659  0.4635  0.0867
   36CHL1   C18 2617   5.815   0.665   7.705  0.0708  0.0265  0.6310
   36CHL1  H18A 2618   5.834   0.617   7.606 -2.1186 -0.8579  0.5773
   36CHL1  H18B 2619   5.874   0.621   7.788  1.3365 -1.1681 -0.8314
   36CHL1  H18C 2620   5.710   0.635   7.726  0.9839 -1.5148  3.4541
   36CHL1   C12 2621   5.726   0.874   7.579 -0.3050  0.4203 -0.4668
   36CHL1  H12A 2622   5.622   0.848   7.610  0.1024 -1.6015 -0.6520
   36CHL1  H12B 2623   5.720   0.985   7.582 -0.3593  0.4154  1.9302
   36CHL1   C11 2624   5.771   0.829   7.440  0.1830 -0.1915  0.2781
   36CHL1  H11A 2625   5.745   0.723   7.419 -0.7284 -0.1564  1.1264
   36CHL1  H11B 2626   5.707   0.878   7.363 -0.7528  0.8750  1.6697
   36CHL1    C9 2627   5.921   0.862   7.410  0.2756 -0.1789  0.3080
   36CHL1    H9 2628   5.924   0.973   7.415  0.0057 -0.2159  1.4492
   36CHL1   C10 2629   5.974   0.832   7.266 -0.3901  0.1704 -0.5198
   36CHL1   C19 2630   5.937   0.684   7.237 -0.3192 -0.1848 -0.0292
   36CHL1  H19A 2631   5.827   0.665   7.242 -0.5121  0.3689 -1.7206
   36CHL1  H19B 2632   5.971   0.649   7.138  1.0006  0.0293  0.3270
   36CHL1  H19C 2633   5.987   0.624   7.316 -1.7967  0.5301  1.5124
   36CHL1    C1 2634   5.912   0.931   7.171  0.9163 -0.1525 -0.1145
   36CHL1   H1A 2635   5.802   0.912   7.171  0.7068  0.3838  3.1498
   36CHL1   H1B 2636   5.932   1.031   7.214  2.3168  0.6883 -2.5449
   36CHL1    C2 2637   5.968   0.934   7.021 -0.6376  0.6441 -0.0697
   36CHL1   H2A 2638   5.911   1.014   6.968 -0.0409  0.9592 -0.2364
   36CHL1   H2B 2639   5.946   0.831   6.985  0.8763  0.1189  0.4439
   36CHL1   C20 2640   5.721   0.816   7.936  1.1169  0.5794 -0.0725
   36CHL1   H20 2641   5.728   0.705   7.947 -2.8150  0.1119 -0.5266
   36CHL1   C21 2642   5.581   0.841   7.897  0.6711  0.3780  0.0096
   36CHL1  H21A 2643   5.557   0.766   7.819  2.0573 -0.2434  0.1535
   36CHL1  H21B 2644   5.567   0.946   7.863  0.7003  0.3514 -0.0850
   36CHL1  H21C 2645   5.502   0.823   7.973  0.7158 -1.1854 -0.2905
   36CHL1   C22 2646   5.749   0.872   8.079  0.1179  0.1165 -0.5898
   36CHL1  H22A 2647   5.856   0.893   8.096  0.1191  0.9196 -1.4957
   36CHL1  H22B 2648   5.678   0.958   8.080 -1.6770 -1.2724 -1.7852
   36CHL1   C23 2649   5.702   0.771   8.188 -1.0906 -0.1837 -0.2542
   36CHL1  H23A 2650   5.593   0.757   8.169 -0.8916  0.8215 -2.3539
   36CHL1  H23B 2651   5.747   0.671   8.173 -2.7727 -0.6960 -2.2822
   36CHL1   C24 2652   5.710   0.826   8.332  0.2391  1.2328 -0.6568
   36CHL1  H24A 2653   5.807   0.878   8.347  0.9465 -0.2333  0.1683
   36CHL1  H24B 2654   5.627   0.895   8.358  1.0238  3.1428 -2.8426
   36CHL1   C25 2655   5.703   0.718   8.436  0.3079  0.0083 -0.0701
   36CHL1   H25 2656   5.787   0.647   8.419  1.8566  1.9587 -1.0877
   36CHL1   C26 2657   5.731   0.783   8.567 -0.0390  0.6020  0.2788
   36CHL1  H26A 2658   5.735   0.708   8.650  0.8937 -2.2610 -2.1654
   36CHL1  H26B 2659   5.830   0.833   8.563 -1.8733  4.6217  0.5661
   36CHL1  H26C 2660   5.654   0.858   8.593 -0.4850  0.2806 -0.1094
   36CHL1   C27 2661   5.573   0.630   8.440 -0.6573  0.1048 -0.3792
   36CHL1  H27A 2662   5.554   0.580   8.343  0.2245 -1.1273  0.0644
   36CHL1  H27B 2663   5.607   0.541   8.497  1.1714  0.4793 -0.8113
   36CHL1  H27C 2664   5.484   0.684   8.479 -0.4024  0.3386 -0.1129
   37CHL1    C3 2665   2.169   1.933   6.817  0.4236 -0.3637 -0.0223
   37CHL1    H3 2666   2.137   2.037   6.839 -0.7764 -0.8385  0.5870
   37CHL1    O3 2667   2.171   1.926   6.675  0.4306 -0.1934  0.3483
   37CHL1   H3' 2668   2.096   1.871   6.652 -1.7948  2.9497 -0.6468
   37CHL1    C4 2669   2.314   1.908   6.873  0.4896  0.0047 -0.2971
   37CHL1   H4A 2670   2.351   1.807   6.846 -1.7724 -1.0185  0.2441
   37CHL1   H4B 2671   2.376   1.988   6.827 -0.5058  0.5972 -0.6270
   37CHL1    C5 2672   2.314   1.913   7.025  0.0766 -0.1645  0.3484
   37CHL1    C6 2673   2.378   2.012   7.088 -0.2483  0.9245 -0.1654
   37CHL1    H6 2674   2.425   2.089   7.025 -0.9875  1.4553 -0.0873
   37CHL1    C7 2675   2.385   2.015   7.236 -0.5938  0.4140 -0.4413
   37CHL1   H7A 2676   2.491   2.019   7.267 -0.6996 -0.9798  0.2022
   37CHL1   H7B 2677   2.343   2.110   7.273  1.1603  0.4560  1.6684
   37CHL1    C8 2678   2.335   1.895   7.312  0.5349  0.4385 -0.3503
   37CHL1    H8 2679   2.414   1.817   7.306  0.8676  0.4429  2.5494
   37CHL1   C14 2680   2.311   1.934   7.455 -0.0913  0.3655  0.0169
   37CHL1   H14 2681   2.231   2.010   7.457 -2.5618 -1.9934 -1.9765
   37CHL1   C15 2682   2.434   1.985   7.536  0.3358  0.0816  0.5438
   37CHL1  H15A 2683   2.515   1.915   7.507  0.1565 -0.2303  0.7833
   37CHL1  H15B 2684   2.466   2.083   7.496 -0.3198  0.1095  0.0713
   37CHL1   C16 2685   2.390   1.979   7.685 -0.2100 -0.1545  0.7361
   37CHL1  H16A 2686   2.467   1.932   7.750 -2.7229 -2.3641  2.3167
   37CHL1  H16B 2687   2.358   2.082   7.711 -0.9054 -0.1986  0.0895
   37CHL1   C17 2688   2.259   1.888   7.681 -0.5412  0.6160  0.3432
   37CHL1   H17 2689   2.177   1.963   7.681  0.7963  2.1408 -0.3183
   37CHL1   C13 2690   2.259   1.820   7.541 -0.1836 -0.1585 -0.3601
   37CHL1   C18 2691   2.357   1.699   7.538  0.3592  0.4142 -0.9806
   37CHL1  H18A 2692   2.313   1.610   7.589  1.2203  0.3198 -0.3595
   37CHL1  H18B 2693   2.378   1.662   7.436 -3.7521 -0.3755 -1.7213
   37CHL1  H18C 2694   2.452   1.729   7.588  0.1036  0.1994 -0.3452
   37CHL1   C12 2695   2.122   1.783   7.488 -0.6099 -0.7444  0.1399
   37CHL1  H12A 2696   2.059   1.704   7.535 -0.8924 -1.8202 -1.9175
   37CHL1  H12B 2697   2.066   1.879   7.491 -0.1128 -0.4736  2.0863
   37CHL1   C11 2698   2.132   1.745   7.341 -0.1480  0.7759  0.0800
   37CHL1  H11A 2699   2.194   1.654   7.327 -1.0206  0.3108 -0.9681
   37CHL1  H11B 2700   2.029   1.731   7.303 -0.6346  1.3498  1.1388
   37CHL1    C9 2701   2.201   1.847   7.248  0.1155 -0.7342  0.0590
   37CHL1    H9 2702   2.142   1.940   7.259  0.1420 -0.5528 -1.1987
   37CHL1   C10 2703   2.225   1.811   7.090  0.3052 -0.6243 -0.1684
   37CHL1   C19 2704   2.282   1.672   7.071 -0.4052 -0.5875 -0.1039
   37CHL1  H19A 2705   2.367   1.644   7.137 -0.2026  1.3275  0.5102
   37CHL1  H19B 2706   2.202   1.596   7.077 -1.2717  0.2634 -0.5463
   37CHL1  H19C 2707   2.321   1.666   6.967 -1.1249  2.7725 -0.6882
   37CHL1    C1 2708   2.079   1.815   7.022  0.6829 -0.1488 -0.4021
   37CHL1   H1A 2709   2.022   1.725   7.055  0.2849  0.6974  1.3527
   37CHL1   H1B 2710   2.024   1.899   7.070  1.9037 -1.4002  3.6195
   37CHL1    C2 2711   2.074   1.823   6.867 -0.0814 -1.1497  0.5090
   37CHL1   H2A 2712   1.971   1.839   6.828  0.1671 -0.1807  0.1972
   37CHL1   H2B 2713   2.114   1.729   6.823  0.1596 -0.2072 -1.4285
   37CHL1   C20 2714   2.245   1.801   7.808 -0.2695 -0.1118 -0.6073
   37CHL1   H20 2715   2.319   1.718   7.809 -2.0768 -1.7985  0.9227
   37CHL1   C21 2716   2.118   1.714   7.819 -0.9125  0.1951 -0.4910
   37CHL1  H21A 2717   2.125   1.649   7.909  2.0094  1.0179 -0.0217
   37CHL1  H21B 2718   2.099   1.650   7.730 -0.3546 -0.2675 -0.2877
   37CHL1  H21C 2719   2.037   1.789   7.827 -0.3821  0.9778 -2.1073
   37CHL1   C22 2720   2.270   1.889   7.943  0.2526 -0.1309  0.0496
   37CHL1  H22A 2721   2.372   1.932   7.932  0.1485  0.3439  0.9386
   37CHL1  H22B 2722   2.195   1.971   7.941  0.5396  0.1833  1.3462
   37CHL1   C23 2723   2.258   1.821   8.073 -0.4772 -0.0809  0.2048
   37CHL1  H23A 2724   2.147   1.815   8.082 -0.4680 -4.2087 -0.5965
   37CHL1  H23B 2725   2.294   1.718   8.052 -0.6057 -0.2255  0.6889
   37CHL1   C24 2726   2.323   1.880   8.197 -0.3343  0.2638  0.5108
   37CHL1  H24A 2727   2.425   1.920   8.180 -0.5554  0.1383 -1.3256
   37CHL1  H24B 2728   2.257   1.961   8.234 -0.1511  0.2213  0.9330
   37CHL1   C25 2729   2.323   1.781   8.315  0.4983  0.1581  0.1911
   37CHL1   H25 2730   2.377   1.689   8.285  0.8488  0.2344  0.5834
   37CHL1   C26 2731   2.415   1.836   8.432 -0.1960 -0.6710  0.2976
   37CHL1  H26A 2732   2.523   1.819   8.414  0.0725 -0.4914  1.6114
   37CHL1  H26B 2733   2.400   1.945   8.442  0.9800 -0.5532  0.9865
   37CHL1  H26C 2734   2.390   1.790   8.531 -3.1116  1.2979  0.5833
   37CHL1   C27 2735   2.187   1.736   8.379 -0.5561 -0.0804  0.0130
   37CHL1  H27A 2736   2.130   1.679   8.303 -0.3307 -1.5378  0.9046
   37CHL1  H27B 2737   2.211   1.656   8.453 -0.1115  0.2066  0.1869
   37CHL1  H27C 2738   2.131   1.818   8.429  0.7809  0.2296  1.0703
   38CHL1    C3 2739   6.578   3.308   6.859 -0.1446  0.1812 -0.0826
   38CHL1    H3 2740   6.472   3.323   6.888 -0.2426 -0.6170  0.0086
   38CHL1    O3 2741   6.590   3.279   6.718  0.2600  0.1144  0.3562
   38CHL1   H3' 2742   6.657   3.335   6.680  0.5960 -1.2840 -1.2079
   38CHL1    C4 2743   6.653   3.443   6.883  0.0635  0.2660 -0.1966
   38CHL1   H4A 2744   6.756   3.438   6.842 -0.1405  0.9899 -0.8142
   38CHL1   H4B 2745   6.604   3.512   6.811 -2.1730 -0.5967  0.4177
   38CHL1    C5 2746   6.658   3.476   7.027 -0.1346 -0.1402 -0.4206
   38CHL1    C6 2747   6.616   3.596   7.075 -0.1773 -0.1400 -0.2435
   38CHL1    H6 2748   6.572   3.662   7.000  1.7194  0.2533 -1.0686
   38CHL1    C7 2749   6.635   3.647   7.221 -0.5924  0.0472  0.1257
   38CHL1   H7A 2750   6.693   3.742   7.224  0.2727 -0.4115 -1.1380
   38CHL1   H7B 2751   6.532   3.663   7.259 -1.4446 -2.2403 -1.0616
   38CHL1    C8 2752   6.719   3.552   7.309 -0.2208  0.2309  0.7922
   38CHL1    H8 2753   6.823   3.580   7.284 -0.8093  3.0714  1.1586
   38CHL1   C14 2754   6.700   3.587   7.455  1.0615 -0.1488 -0.2032
   38CHL1   H14 2755   6.592   3.573   7.478  0.9075 -0.5023 -1.0964
   38CHL1   C15 2756   6.725   3.728   7.506  0.1016 -0.1708 -0.3955
   38CHL1  H15A 2757   6.801   3.782   7.445 -1.5721  0.3195 -2.1502
   38CHL1  H15B 2758   6.632   3.784   7.484 -0.2845 -0.2735  0.8668
   38CHL1   C16 2759   6.745   3.717   7.661 -0.4461 -0.3789  0.3646
   38CHL1  H16A 2760   6.841   3.764   7.692 -0.2665 -0.4484 -0.0833
   38CHL1  H16B 2761   6.663   3.772   7.714 -0.7497 -0.4404 -0.0361
   38CHL1   C17 2762   6.746   3.569   7.690 -0.0837  0.7113  0.9410
   38CHL1   H17 2763   6.642   3.534   7.705  0.3465 -1.1426 -0.1320
   38CHL1   C13 2764   6.773   3.494   7.550  0.1883 -0.0010 -0.7972
   38CHL1   C18 2765   6.924   3.511   7.529 -0.2353  0.1329  0.2097
   38CHL1  H18A 2766   6.985   3.491   7.620  0.7412 -0.9121 -0.6404
   38CHL1  H18B 2767   6.959   3.446   7.446 -2.1193  0.2890 -0.7503
   38CHL1  H18C 2768   6.940   3.620   7.517 -2.9402  0.4828 -0.7510
   38CHL1   C12 2769   6.725   3.346   7.527 -0.6458  0.0706 -0.5232
   38CHL1  H12A 2770   6.805   3.285   7.575 -1.3856  0.2364  0.9718
   38CHL1  H12B 2771   6.624   3.331   7.569 -0.3236  1.2726  0.7411
   38CHL1   C11 2772   6.724   3.301   7.381 -0.0414  0.0461 -0.1649
   38CHL1  H11A 2773   6.829   3.289   7.347 -0.5885 -1.4000 -1.4840
   38CHL1  H11B 2774   6.674   3.203   7.368  1.3244 -0.4689 -1.9605
   38CHL1    C9 2775   6.683   3.407   7.272 -0.4376 -0.6155 -0.3338
   38CHL1    H9 2776   6.573   3.404   7.287 -0.3023  1.1261  1.3967
   38CHL1   C10 2777   6.717   3.365   7.120 -0.2115 -0.0435  0.4106
   38CHL1   C19 2778   6.867   3.363   7.083  0.0684  0.0967  0.1702
   38CHL1  H19A 2779   6.910   3.283   7.147 -1.1411  0.5335  1.6253
   38CHL1  H19B 2780   6.884   3.343   6.976  0.2487  1.1912 -0.0168
   38CHL1  H19C 2781   6.919   3.457   7.114 -1.8731  1.3404 -0.1544
   38CHL1    C1 2782   6.648   3.227   7.086  0.3516  0.1059 -0.3414
   38CHL1   H1A 2783   6.688   3.144   7.148  2.9991  1.6224  0.1654
   38CHL1   H1B 2784   6.542   3.233   7.119  0.4160  2.0344 -0.3440
   38CHL1    C2 2785   6.641   3.189   6.938 -0.4386 -0.4368 -0.5047
   38CHL1   H2A 2786   6.588   3.093   6.922  1.0853 -1.5088  0.5996
   38CHL1   H2B 2787   6.745   3.182   6.900 -1.2777  1.2241 -3.4764
   38CHL1   C20 2788   6.818   3.528   7.822 -0.0844 -0.2568 -0.2751
   38CHL1   H20 2789   6.929   3.540   7.815  0.1628 -0.3171  2.3934
   38CHL1   C21 2790   6.794   3.375   7.845  0.1350 -0.0899 -0.3755
   38CHL1  H21A 2791   6.805   3.349   7.952 -1.7972  0.9473  0.1235
   38CHL1  H21B 2792   6.866   3.318   7.781 -0.4487  0.1575 -1.2781
   38CHL1  H21C 2793   6.689   3.343   7.830 -0.1766 -0.8488  2.8088
   38CHL1   C22 2794   6.763   3.602   7.940  0.6012  0.3436  0.0421
   38CHL1  H22A 2795   6.731   3.706   7.922 -4.9117 -1.1795 -0.5898
   38CHL1  H22B 2796   6.664   3.564   7.972 -0.2655  0.4425 -2.2990
   38CHL1   C23 2797   6.862   3.602   8.062 -0.1446 -0.3562 -0.4033
   38CHL1  H23A 2798   6.920   3.510   8.084  0.8442  0.1648 -0.7923
   38CHL1  H23B 2799   6.934   3.681   8.032 -1.5788  0.7508 -1.0939
   38CHL1   C24 2800   6.798   3.645   8.188  0.9107 -0.1142 -0.0779
   38CHL1  H24A 2801   6.736   3.737   8.173 -0.5452 -1.2232 -1.0969
   38CHL1  H24B 2802   6.723   3.566   8.210 -0.5410  1.1131 -0.4445
   38CHL1   C25 2803   6.889   3.657   8.307  0.9042 -0.2153 -0.3291
   38CHL1   H25 2804   6.973   3.725   8.280 -2.1719  2.8946 -3.1438
   38CHL1   C26 2805   6.814   3.722   8.430  0.2109  1.0128  0.0681
   38CHL1  H26A 2806   6.724   3.669   8.467  0.3583  2.4171  2.7309
   38CHL1  H26B 2807   6.889   3.741   8.510  1.5456 -0.4066 -0.7755
   38CHL1  H26C 2808   6.789   3.826   8.400  0.6263  0.9951 -0.3586
   38CHL1   C27 2809   6.935   3.519   8.351  0.3459  0.3929 -0.2101
   38CHL1  H27A 2810   6.979   3.454   8.272  2.2508 -0.3870  1.4134
   38CHL1  H27B 2811   7.022   3.537   8.418 -0.3504  0.7669  0.6072
   38CHL1  H27C 2812   6.853   3.461   8.399  0.3832 -0.2085 -0.8529
   39CHL1    C3 2813   6.174   3.226   6.801 -0.6005  0.5263  0.3135
   39CHL1    H3 2814   6.284   3.217   6.811 -0.8382 -3.4335  0.6826
   39CHL1    O3 2815   6.120   3.177   6.681  0.1804  0.2619  0.4538
   39CHL1   H3' 2816   6.039   3.227   6.667 -0.5429 -0.8137  0.6954
   39CHL1    C4 2817   6.116   3.151   6.920 -0.4450  0.2819 -0.7843
   39CHL1   H4A 2818   6.006   3.162   6.911 -0.6522 -0.8467  0.0714
   39CHL1   H4B 2819   6.148   3.045   6.908  1.1532  0.9225 -2.9186
   39CHL1    C5 2820   6.162   3.211   7.056  0.2469 -0.6373 -0.6174
   39CHL1    C6 2821   6.215   3.140   7.152 -0.3678  0.5118  0.1678
   39CHL1    H6 2822   6.245   3.037   7.131  1.1259  1.3225 -2.0008
   39CHL1    C7 2823   6.258   3.186   7.287  0.5926  0.1510  0.0333
   39CHL1   H7A 2824   6.227   3.111   7.363 -1.9471  0.4180 -0.6406
   39CHL1   H7B 2825   6.367   3.199   7.302  0.6189 -0.7141  0.6921
   39CHL1    C8 2826   6.194   3.323   7.326 -0.6329  0.1911 -0.3695
   39CHL1    H8 2827   6.085   3.307   7.344 -0.1623 -2.9449  0.2562
   39CHL1   C14 2828   6.253   3.382   7.454  0.4055  0.3165  0.3068
   39CHL1   H14 2829   6.359   3.397   7.424  1.2525  0.9204  3.2871
   39CHL1   C15 2830   6.247   3.301   7.583 -0.2697 -0.5557 -0.1409
   39CHL1  H15A 2831   6.142   3.264   7.585  0.0526 -1.6825 -1.7901
   39CHL1  H15B 2832   6.306   3.209   7.564  2.0234  0.9328 -0.6335
   39CHL1   C16 2833   6.283   3.404   7.694  0.7625  0.0087 -0.0265
   39CHL1  H16A 2834   6.204   3.396   7.771 -0.9371 -2.0171 -1.8574
   39CHL1  H16B 2835   6.380   3.375   7.742  0.7350 -0.9627 -0.5265
   39CHL1   C17 2836   6.289   3.542   7.615  0.0035  0.0366 -0.3273
   39CHL1   H17 2837   6.397   3.542   7.589  0.1703  0.2318  0.3618
   39CHL1   C13 2838   6.212   3.525   7.489 -0.1571  1.1243 -0.3821
   39CHL1   C18 2839   6.062   3.528   7.535 -0.1339  0.4567  0.2178
   39CHL1  H18A 2840   6.028   3.633   7.526 -1.5577 -0.0815 -1.0513
   39CHL1  H18B 2841   5.999   3.463   7.471 -1.6043 -0.3901  2.4213
   39CHL1  H18C 2842   6.048   3.482   7.635 -0.2291 -1.9595 -0.8292
   39CHL1   C12 2843   6.241   3.622   7.370 -0.1640  0.4151  0.0706
   39CHL1  H12A 2844   6.200   3.724   7.385 -0.6446  0.4163 -1.1161
   39CHL1  H12B 2845   6.351   3.617   7.353 -0.2567 -1.0224 -0.2653
   39CHL1   C11 2846   6.167   3.567   7.240 -0.1750  0.2131  0.2137
   39CHL1  H11A 2847   6.057   3.575   7.252 -0.8417 -0.6514 -3.8668
   39CHL1  H11B 2848   6.191   3.624   7.148 -0.4967 -0.0956 -0.0595
   39CHL1    C9 2849   6.204   3.419   7.202 -0.3389 -0.0120 -0.1790
   39CHL1    H9 2850   6.313   3.415   7.177  0.0380 -1.2468  1.4999
   39CHL1   C10 2851   6.134   3.361   7.078 -0.2407  0.6213  0.1111
   39CHL1   C19 2852   5.979   3.381   7.090  0.7463 -0.8426  0.0855
   39CHL1  H19A 2853   5.954   3.489   7.084  2.2255 -0.5396 -1.5179
   39CHL1  H19B 2854   5.933   3.336   6.999  1.1544  1.4513 -1.3485
   39CHL1  H19C 2855   5.934   3.348   7.186  1.7701 -0.0772  0.8543
   39CHL1    C1 2856   6.182   3.424   6.945  0.0150 -0.9894 -0.4430
   39CHL1   H1A 2857   6.156   3.532   6.943 -3.5886 -1.6758  1.2300
   39CHL1   H1B 2858   6.293   3.416   6.939  0.3451  2.4796 -1.0432
   39CHL1    C2 2859   6.133   3.369   6.812 -0.8210  0.1000  0.0565
   39CHL1   H2A 2860   6.170   3.418   6.719 -1.4500  0.0305 -0.2323
   39CHL1   H2B 2861   6.022   3.368   6.804 -0.6733 -0.1370 -3.3578
   39CHL1   C20 2862   6.261   3.663   7.711 -0.7182 -0.6620 -0.3924
   39CHL1   H20 2863   6.153   3.680   7.730 -0.3129  0.9971  0.6413
   39CHL1   C21 2864   6.301   3.798   7.648  0.0183 -0.0896  0.3482
   39CHL1  H21A 2865   6.217   3.828   7.582  0.5416 -0.2311 -0.3951
   39CHL1  H21B 2866   6.391   3.795   7.582  0.0672  1.4990  0.3088
   39CHL1  H21C 2867   6.312   3.883   7.719  1.0681  0.4555 -0.4442
   39CHL1   C22 2868   6.349   3.646   7.842  0.6478  0.1988 -0.1877
   39CHL1  H22A 2869   6.293   3.566   7.895 -2.0558  1.9592 -0.1342
   39CHL1  H22B 2870   6.447   3.599   7.822  0.1964 -0.1236 -1.7859
   39CHL1   C23 2871   6.344   3.758   7.946 -0.2871  0.7115 -0.5027
   39CHL1  H23A 2872   6.425   3.824   7.908  1.4033 -0.1079  1.4814
   39CHL1  H23B 2873   6.247   3.811   7.957 -0.4127  0.1833  1.1519
   39CHL1   C24 2874   6.391   3.712   8.083  0.6039  0.1087 -0.4687
   39CHL1  H24A 2875   6.306   3.659   8.132 -1.4153  3.9156  0.5100
   39CHL1  H24B 2876   6.483   3.652   8.063  0.2535  0.0586 -2.0767
   39CHL1   C25 2877   6.424   3.826   8.183 -0.8161  0.1425  0.2291
   39CHL1   H25 2878   6.523   3.864   8.150  0.6215 -1.1283  2.7422
   39CHL1   C26 2879   6.321   3.941   8.187  0.0744 -0.1486 -0.5421
   39CHL1  H26A 2880   6.224   3.895   8.214  0.0490 -1.8930 -3.2488
   39CHL1  H26B 2881   6.352   4.020   8.259 -1.3497 -0.8094  0.8450
   39CHL1  H26C 2882   6.309   3.984   8.085  0.2249  4.4615  1.1443
   39CHL1   C27 2883   6.450   3.768   8.321 -0.2214  1.6778  0.1399
   39CHL1  H27A 2884   6.509   3.675   8.311 -1.7990  0.6427  0.0985
   39CHL1  H27B 2885   6.490   3.839   8.396 -1.7083  1.8661  0.7875
   39CHL1  H27C 2886   6.353   3.739   8.367 -0.8016  2.7590 -0.3540
   40CHL1    C3 2887   0.982   0.261   7.003  0.2543 -0.3449 -0.3701
   40CHL1    H3 2888   1.058   0.342   6.999 -0.1290 -0.0155 -2.9730
   40CHL1    O3 2889   0.963   0.211   6.870 -0.0281 -0.8509  0.7416
   40CHL1   H3' 2890   0.882   0.160   6.868 -0.2642 -0.4666 -0.7834
   40CHL1    C4 2891   1.029   0.143   7.095  0.3327 -0.6812  0.2569
   40CHL1   H4A 2892   0.951   0.067   7.075 -0.8530  1.0988 -2.4453
   40CHL1   H4B 2893   1.127   0.103   7.062  0.3784 -0.1710 -0.2282
   40CHL1    C5 2894   1.014   0.167   7.238 -0.6659 -0.3001  0.0643
   40CHL1    C6 2895   1.117   0.141   7.320 -0.6014  0.0056 -0.0594
   40CHL1    H6 2896   1.206   0.100   7.270 -1.2230  0.4831 -1.6211
   40CHL1    C7 2897   1.118   0.167   7.470 -0.5191 -0.1349 -0.6304
   40CHL1   H7A 2898   1.166   0.084   7.526  0.2312  1.3963  1.1088
   40CHL1   H7B 2899   1.176   0.258   7.499 -0.8782 -0.3844  1.0185
   40CHL1    C8 2900   0.978   0.178   7.529  0.3916 -0.2974 -0.1483
   40CHL1    H8 2901   0.936   0.075   7.525  3.4474 -1.6319 -0.7893
   40CHL1   C14 2902   0.983   0.221   7.677 -0.3122 -0.5343 -0.3481
   40CHL1   H14 2903   1.032   0.320   7.687 -0.8824 -0.3983  1.4355
   40CHL1   C15 2904   1.053   0.129   7.779 -0.7036  0.5751  0.5581
   40CHL1  H15A 2905   1.041   0.019   7.777  0.9450  0.3791 -0.7502
   40CHL1  H15B 2906   1.163   0.146   7.777 -0.7344  1.3759  2.5952
   40CHL1   C16 2907   1.010   0.180   7.916  0.1404  0.2141 -0.0069
   40CHL1  H16A 2908   0.977   0.093   7.977  1.8738  0.6051  1.5894
   40CHL1  H16B 2909   1.095   0.224   7.972  1.1172  2.5833 -3.0321
   40CHL1   C17 2910   0.904   0.288   7.883  0.2301  0.4741 -0.3855
   40CHL1   H17 2911   0.967   0.380   7.877  1.6118 -0.5205 -1.8840
   40CHL1   C13 2912   0.850   0.252   7.745 -0.2047  0.3062  0.1936
   40CHL1   C18 2913   0.762   0.122   7.749  0.4237 -0.6144  0.7540
   40CHL1  H18A 2914   0.658   0.127   7.785  0.3382 -1.3487  0.6281
   40CHL1  H18B 2915   0.762   0.070   7.651 -1.3053  0.4727  0.1330
   40CHL1  H18C 2916   0.807   0.050   7.821  0.1350 -1.2740  0.2895
   40CHL1   C12 2917   0.776   0.357   7.658  0.0258 -0.8221 -0.4714
   40CHL1  H12A 2918   0.670   0.376   7.688 -0.1233 -2.7889  0.4323
   40CHL1  H12B 2919   0.833   0.452   7.664  0.8475 -1.3783  1.4882
   40CHL1   C11 2920   0.758   0.307   7.517  0.1815  1.0790 -0.0699
   40CHL1  H11A 2921   0.692   0.218   7.516 -1.2336  2.0633  1.0288
   40CHL1  H11B 2922   0.706   0.379   7.451 -1.9686 -1.2781 -1.0997
   40CHL1    C9 2923   0.887   0.273   7.442 -0.2433 -0.2226  0.6713
   40CHL1    H9 2924   0.926   0.376   7.447 -0.8707  0.0179  0.6823
   40CHL1   C10 2925   0.882   0.243   7.288 -0.4579  0.5754 -0.0517
   40CHL1   C19 2926   0.766   0.145   7.280  0.3716  0.4064  0.2365
   40CHL1  H19A 2927   0.743   0.103   7.179 -0.3946 -1.9785  1.3251
   40CHL1  H19B 2928   0.789   0.056   7.343 -1.5863  1.5338  2.7227
   40CHL1  H19C 2929   0.667   0.185   7.310 -0.0464 -0.0525 -0.4813
   40CHL1    C1 2930   0.852   0.361   7.203  0.3490  0.6814  0.3655
   40CHL1   H1A 2931   0.753   0.410   7.219 -0.2240  0.3764 -1.8314
   40CHL1   H1B 2932   0.936   0.434   7.211 -0.3295  1.4443  0.6354
   40CHL1    C2 2933   0.850   0.324   7.054 -0.5328  0.6155  0.0027
   40CHL1   H2A 2934   0.829   0.416   6.996 -0.2091 -0.0750 -1.2447
   40CHL1   H2B 2935   0.765   0.262   7.020 -1.1728  0.8874  1.0679
   40CHL1   C20 2936   0.801   0.322   7.996 -0.3292 -0.1869 -0.5323
   40CHL1   H20 2937   0.717   0.253   7.973 -1.6125  1.1529  0.0088
   40CHL1   C21 2938   0.739   0.460   7.969 -0.7933  0.0323 -0.0153
   40CHL1  H21A 2939   0.816   0.538   7.980 -1.8268  0.9023  1.4344
   40CHL1  H21B 2940   0.654   0.482   8.038  0.2985  0.0089  1.3632
   40CHL1  H21C 2941   0.700   0.455   7.865 -0.3367 -1.2732 -0.1501
   40CHL1   C22 2942   0.861   0.301   8.136 -0.3557  0.0858  0.1153
   40CHL1  H22A 2943   0.903   0.199   8.152  0.0911  0.3825  0.8957
   40CHL1  H22B 2944   0.948   0.368   8.150 -0.2304  0.4222 -1.9636
   40CHL1   C23 2945   0.771   0.333   8.251  0.0951 -0.0785 -0.2508
   40CHL1  H23A 2946   0.727   0.433   8.233 -0.2084  0.0262  0.9705
   40CHL1  H23B 2947   0.681   0.269   8.252 -1.0256  1.4511  0.3655
   40CHL1   C24 2948   0.851   0.337   8.387 -0.4479 -0.4171  0.0248
   40CHL1  H24A 2949   0.900   0.239   8.410  2.4180  0.9470  0.2255
   40CHL1  H24B 2950   0.937   0.404   8.366 -0.4553 -0.3369  0.2420
   40CHL1   C25 2951   0.771   0.403   8.503  0.2027  0.0410  0.1215
   40CHL1   H25 2952   0.667   0.367   8.508  0.0077  0.5820  0.0166
   40CHL1   C26 2953   0.842   0.386   8.643 -0.9317 -0.4272  0.0558
   40CHL1  H26A 2954   0.951   0.408   8.638 -1.2461  1.0073 -2.5462
   40CHL1  H26B 2955   0.802   0.467   8.708  0.3874  0.3778 -0.0962
   40CHL1  H26C 2956   0.827   0.286   8.689 -1.0555 -0.5244 -0.1930
   40CHL1   C27 2957   0.755   0.554   8.472  0.0958 -0.2636 -0.0035
   40CHL1  H27A 2958   0.678   0.597   8.540 -0.0990 -0.1668 -0.2836
   40CHL1  H27B 2959   0.858   0.593   8.483  0.8641 -2.1188 -0.2654
   40CHL1  H27C 2960   0.724   0.583   8.369  1.9120  2.2278  0.0640
   41CHL1    C3 2961   1.207   1.664   6.836  0.1041  0.0337 -1.0625
   41CHL1    H3 2962   1.280   1.588   6.870 -0.6300 -0.8275 -1.3880
   41CHL1    O3 2963   1.196   1.660   6.700  0.8189  0.4259 -0.4817
   41CHL1   H3' 2964   1.137   1.732   6.676  2.5776  1.4669 -1.9411
   41CHL1    C4 2965   1.068   1.623   6.899  0.6220  0.1025  0.6226
   41CHL1   H4A 2966   0.993   1.697   6.863  3.2866  2.0246 -1.3857
   41CHL1   H4B 2967   1.040   1.524   6.857  0.0150  0.9208 -0.9888
   41CHL1    C5 2968   1.072   1.629   7.053 -0.2527 -0.4804 -0.3334
   41CHL1    C6 2969   1.051   1.516   7.125  0.0708  0.0912 -0.7877
   41CHL1    H6 2970   1.016   1.424   7.076 -1.3212 -1.0658  2.1637
   41CHL1    C7 2971   1.062   1.519   7.274  0.3261  0.2907 -0.3267
   41CHL1   H7A 2972   0.969   1.476   7.318  0.0068  0.1135 -1.1482
   41CHL1   H7B 2973   1.149   1.463   7.316 -1.1331 -1.0564  1.0798
   41CHL1    C8 2974   1.068   1.656   7.338 -0.8735 -0.3685  0.2131
   41CHL1    H8 2975   0.967   1.698   7.315 -0.3566  0.3086 -0.8542
   41CHL1   C14 2976   1.110   1.650   7.482 -0.3898  0.1171 -0.0399
   41CHL1   H14 2977   1.212   1.608   7.493  0.2042  1.5713  0.1769
   41CHL1   C15 2978   1.031   1.558   7.572  0.1225 -0.0295  0.4693
   41CHL1  H15A 2979   0.922   1.563   7.554  0.1785 -0.1998  0.0562
   41CHL1  H15B 2980   1.068   1.454   7.556 -2.9746 -1.4465  1.7743
   41CHL1   C16 2981   1.060   1.617   7.714  0.0772  0.3117 -0.6369
   41CHL1  H16A 2982   0.966   1.650   7.764  0.0514 -0.4415 -0.1665
   41CHL1  H16B 2983   1.122   1.541   7.768  1.4416  1.0683 -1.0895
   41CHL1   C17 2984   1.137   1.744   7.690  0.0019  0.2234 -0.4724
   41CHL1   H17 2985   1.241   1.706   7.699 -0.3980 -0.9816 -0.7336
   41CHL1   C13 2986   1.117   1.788   7.545  0.1572  0.2234  0.2410
   41CHL1   C18 2987   0.980   1.860   7.540 -0.1245 -0.9858 -0.2318
   41CHL1  H18A 2988   0.891   1.802   7.573 -1.7460  1.4467 -0.0530
   41CHL1  H18B 2989   0.985   1.961   7.585  1.1572 -0.5515 -1.3079
   41CHL1  H18C 2990   0.957   1.874   7.432  2.9217  0.9066 -0.7397
   41CHL1   C12 2991   1.226   1.864   7.474  0.4242 -0.8907 -0.7037
   41CHL1  H12A 2992   1.251   1.957   7.530 -0.4617 -0.3387 -1.2018
   41CHL1  H12B 2993   1.318   1.805   7.494  0.4018 -0.8132 -0.3664
   41CHL1   C11 2994   1.186   1.885   7.326  0.0554  0.8193  0.1056
   41CHL1  H11A 2995   1.092   1.942   7.315 -1.9817 -2.6272 -2.2570
   41CHL1  H11B 2996   1.276   1.934   7.282  0.4528  1.3377  1.4315
   41CHL1    C9 2997   1.166   1.745   7.260  1.3460  0.0928 -0.5077
   41CHL1    H9 2998   1.261   1.687   7.263 -0.3328 -2.9391 -1.8723
   41CHL1   C10 2999   1.128   1.758   7.111  0.6094  0.4424  0.0003
   41CHL1   C19 3000   1.022   1.869   7.087  0.1833  0.0672  0.0209
   41CHL1  H19A 3001   0.930   1.845   7.146  0.5062  0.8708  0.8766
   41CHL1  H19B 3002   1.064   1.964   7.127  3.7452 -0.7758 -1.3957
   41CHL1  H19C 3003   1.000   1.887   6.980  0.7107 -1.6982 -0.4155
   41CHL1    C1 3004   1.260   1.798   7.043 -0.8153 -0.1755 -0.2387
   41CHL1   H1A 3005   1.302   1.893   7.083  0.2268  0.2536 -2.2499
   41CHL1   H1B 3006   1.327   1.713   7.067 -0.3018  0.1428 -0.5195
   41CHL1    C2 3007   1.251   1.802   6.890 -0.3745 -0.1860 -0.7661
   41CHL1   H2A 3008   1.351   1.816   6.845  0.9956 -3.0384  1.1221
   41CHL1   H2B 3009   1.185   1.883   6.851 -1.1207 -0.6839 -0.5726
   41CHL1   C20 3010   1.116   1.846   7.808 -0.4447  0.6424  0.0621
   41CHL1   H20 3011   1.012   1.883   7.809 -0.6921 -0.0489  0.4365
   41CHL1   C21 3012   1.205   1.974   7.795  0.1527  0.2451 -0.4114
   41CHL1  H21A 3013   1.312   1.951   7.781  0.3874  0.3925  1.0382
   41CHL1  H21B 3014   1.192   2.042   7.882  2.8277  0.7050 -0.3017
   41CHL1  H21C 3015   1.168   2.034   7.709  0.4637  1.8025  0.5006
   41CHL1   C22 3016   1.135   1.771   7.944  0.8251 -0.3349  0.1021
   41CHL1  H22A 3017   1.060   1.690   7.948  0.7541 -0.3045 -0.5203
   41CHL1  H22B 3018   1.238   1.730   7.949  1.1595  0.5771  0.9663
   41CHL1   C23 3019   1.111   1.852   8.072  0.1732  0.4634  0.6067
   41CHL1  H23A 3020   1.166   1.947   8.055  0.3769 -0.0528 -1.9664
   41CHL1  H23B 3021   1.001   1.871   8.071 -0.4621 -2.6280  0.6848
   41CHL1   C24 3022   1.153   1.775   8.198 -0.1443 -0.2103 -0.1809
   41CHL1  H24A 3023   1.126   1.831   8.290 -1.6362  0.8603 -1.2158
   41CHL1  H24B 3024   1.105   1.675   8.198  0.5591 -0.5518  0.3042
   41CHL1   C25 3025   1.308   1.746   8.217 -0.2276 -0.5852 -0.5106
   41CHL1   H25 3026   1.329   1.662   8.148 -2.5572 -0.6827 -1.1674
   41CHL1   C26 3027   1.400   1.865   8.196  0.6684 -0.6729  0.0561
   41CHL1  H26A 3028   1.390   1.901   8.091 -0.4565 -2.7611 -0.6138
   41CHL1  H26B 3029   1.366   1.947   8.262 -0.8543  1.0720 -2.7150
   41CHL1  H26C 3030   1.505   1.833   8.215  0.6120 -0.7616  0.2197
   41CHL1   C27 3031   1.337   1.687   8.361  0.0233 -0.2113 -0.3833
   41CHL1  H27A 3032   1.280   1.592   8.364  2.2085 -1.5743  1.5178
   41CHL1  H27B 3033   1.446   1.670   8.373  0.2730  1.4851  0.0537
   41CHL1  H27C 3034   1.310   1.761   8.439  1.5009 -1.3673  1.3080
   42CHL1    C3 3035   3.549   3.965   6.799  0.9502  0.5778  0.2563
   42CHL1    H3 3036   3.464   4.030   6.827 -0.1697 -0.1800 -1.2563
   42CHL1    O3 3037   3.546   3.966   6.655  0.1921 -0.0775  0.9617
   42CHL1   H3' 3038   3.483   3.899   6.629 -1.3362  2.3495 -2.4175
   42CHL1    C4 3039   3.682   4.016   6.852 -0.0256 -0.2210  0.4490
   42CHL1   H4A 3040   3.762   3.946   6.820 -2.3703 -1.3938 -3.5445
   42CHL1   H4B 3041   3.703   4.115   6.805  1.6093 -1.2722 -1.1922
   42CHL1    C5 3042   3.675   4.029   7.006  0.0375  0.3037 -0.0068
   42CHL1    C6 3043   3.695   4.147   7.065 -0.3351 -0.4154  0.3095
   42CHL1    H6 3044   3.729   4.237   7.011 -1.0522 -0.3840 -0.0979
   42CHL1    C7 3045   3.679   4.171   7.216 -0.1921 -0.7444 -0.0072
   42CHL1   H7A 3046   3.770   4.223   7.252 -1.9803  1.6648  1.2858
   42CHL1   H7B 3047   3.595   4.240   7.236  0.7135  0.2726  0.3824
   42CHL1    C8 3048   3.671   4.039   7.298 -0.0678  0.1683 -0.1676
   42CHL1    H8 3049   3.776   4.001   7.302 -0.2876 -0.8656 -2.6152
   42CHL1   C14 3050   3.621   4.068   7.442  0.2142  0.6702  0.2827
   42CHL1   H14 3051   3.518   4.102   7.420 -0.5333 -1.5012  0.1515
   42CHL1   C15 3052   3.694   4.167   7.525 -0.4379  0.3160 -0.0114
   42CHL1  H15A 3053   3.803   4.149   7.517 -0.5192 -0.1904 -0.0085
   42CHL1  H15B 3054   3.687   4.272   7.488 -3.3494 -0.1391 -0.9891
   42CHL1   C16 3055   3.640   4.146   7.668 -0.0192 -0.1461  0.3694
   42CHL1  H16A 3056   3.730   4.141   7.734 -0.3277 -1.5084  0.7227
   42CHL1  H16B 3057   3.575   4.231   7.698  0.1132  0.8728 -2.0438
   42CHL1   C17 3058   3.562   4.010   7.661 -0.0067  0.4493  0.0071
   42CHL1   H17 3059   3.458   4.042   7.641  0.8921  1.7452 -3.0779
   42CHL1   C13 3060   3.605   3.942   7.529 -0.5038 -0.4867  0.5355
   42CHL1   C18 3061   3.743   3.871   7.542 -0.2592 -0.6444 -0.1122
   42CHL1  H18A 3062   3.778   3.846   7.440 -1.2144 -1.0192 -0.3468
   42CHL1  H18B 3063   3.818   3.939   7.590 -0.0936 -1.5606  0.9682
   42CHL1  H18C 3064   3.732   3.774   7.594  1.9564 -1.0532 -0.2789
   42CHL1   C12 3065   3.511   3.848   7.458 -0.8794 -0.4001  0.0911
   42CHL1  H12A 3066   3.498   3.756   7.519 -2.2188 -1.7696 -2.1331
   42CHL1  H12B 3067   3.417   3.907   7.458 -0.1579  0.7839 -0.4572
   42CHL1   C11 3068   3.547   3.809   7.314 -0.0326  0.1002 -0.1560
   42CHL1  H11A 3069   3.634   3.740   7.314  1.6521  2.0630  2.0020
   42CHL1  H11B 3070   3.457   3.761   7.270 -0.1937  0.0034  0.2789
   42CHL1    C9 3071   3.581   3.935   7.229  0.4263  0.3962 -0.9756
   42CHL1    H9 3072   3.477   3.975   7.235  0.5196  0.5166  3.8738
   42CHL1   C10 3073   3.623   3.900   7.085  0.1288  0.1453  0.3763
   42CHL1   C19 3074   3.738   3.802   7.089 -0.2168  0.3160  0.2455
   42CHL1  H19A 3075   3.788   3.806   6.991  0.6932  0.4065  0.7022
   42CHL1  H19B 3076   3.816   3.829   7.164  1.1418 -0.3719 -0.8829
   42CHL1  H19C 3077   3.696   3.700   7.105  0.0101  0.5549  2.9572
   42CHL1    C1 3078   3.499   3.841   7.010 -0.1583 -0.4362  0.0954
   42CHL1   H1A 3079   3.476   3.749   7.067 -0.5616  1.9317  4.1012
   42CHL1   H1B 3080   3.407   3.900   7.032  0.4539  1.1828 -1.4157
   42CHL1    C2 3081   3.510   3.828   6.857  0.2381  0.1202  0.2274
   42CHL1   H2A 3082   3.412   3.787   6.824  0.4052  0.9544 -1.3946
   42CHL1   H2B 3083   3.592   3.757   6.831 -0.6521 -1.1719  0.8374
   42CHL1   C20 3084   3.566   3.925   7.791 -0.1855 -0.0950  0.0370
   42CHL1   H20 3085   3.549   3.819   7.765  3.8394 -0.5441 -1.5604
   42CHL1   C21 3086   3.453   3.979   7.884 -0.1311 -0.1017  0.5784
   42CHL1  H21A 3087   3.459   4.090   7.886  2.0296 -0.0197 -2.7225
   42CHL1  H21B 3088   3.456   3.938   7.987  0.3498  4.0702  2.4560
   42CHL1  H21C 3089   3.354   3.949   7.844  0.4487  1.5174 -2.3845
   42CHL1   C22 3090   3.698   3.926   7.869  0.6151 -0.0130 -0.6063
   42CHL1  H22A 3091   3.788   3.904   7.808  1.8914  1.4196  0.6698
   42CHL1  H22B 3092   3.698   4.029   7.911 -0.2798 -0.1530 -0.2263
   42CHL1   C23 3093   3.705   3.819   7.980  0.0848  0.2796 -0.3674
   42CHL1  H23A 3094   3.615   3.836   8.043  1.3391  3.4096  0.7697
   42CHL1  H23B 3095   3.685   3.724   7.926 -2.3093  2.1443 -3.1540
   42CHL1   C24 3096   3.838   3.826   8.059 -0.3748  0.2437 -0.5589
   42CHL1  H24A 3097   3.920   3.789   7.993  0.3376 -3.3858  2.0131
   42CHL1  H24B 3098   3.864   3.930   8.087 -0.7231 -0.4850  2.8215
   42CHL1   C25 3099   3.840   3.737   8.186  0.3683 -0.2353 -0.2631
   42CHL1   H25 3100   3.831   3.632   8.152  1.0866 -0.0637 -1.0270
   42CHL1   C26 3101   3.970   3.762   8.262  0.2865 -0.0317 -0.1261
   42CHL1  H26A 3102   4.054   3.738   8.194  1.5138 -2.0907  1.9499
   42CHL1  H26B 3103   3.981   3.868   8.294 -1.1272  0.0985 -0.0081
   42CHL1  H26C 3104   3.990   3.702   8.353  2.0078  3.1846  1.7981
   42CHL1   C27 3105   3.725   3.764   8.280 -0.6174 -0.3012  0.4185
   42CHL1  H27A 3106   3.688   3.868   8.292 -0.9446 -0.3959  0.2614
   42CHL1  H27B 3107   3.744   3.697   8.367  3.5778 -2.2591 -1.7258
   42CHL1  H27C 3108   3.636   3.717   8.231 -0.1528  2.3326 -3.3649
   43CHL1    C3 3109   2.778   0.895   6.749 -0.2479  0.3511 -0.1690
   43CHL1    H3 3110   2.675   0.925   6.722 -0.3964 -0.2190 -0.2411
   43CHL1    O3 3111   2.832   0.819   6.635  0.1245 -0.5078  0.1843
   43CHL1   H3' 3112   2.908   0.776   6.675 -1.1175 -1.1152  2.0652
   43CHL1    C4 3113   2.865   1.014   6.780 -1.0229 -0.1594 -0.7805
   43CHL1   H4A 3114   2.971   0.990   6.803 -1.4303  0.7821  2.5286
   43CHL1   H4B 3115   2.860   1.081   6.691 -0.6177 -0.1600 -0.8079
   43CHL1    C5 3116   2.809   1.080   6.901  0.0513  0.0021 -0.3699
   43CHL1    C6 3117   2.783   1.211   6.902 -0.1481  0.0663  0.0329
   43CHL1    H6 3118   2.815   1.275   6.818 -0.1970  0.9026  0.6423
   43CHL1    C7 3119   2.736   1.281   7.026  0.0929 -0.7730  0.2622
   43CHL1   H7A 3120   2.798   1.373   7.033 -1.1321  0.1735 -0.6791
   43CHL1   H7B 3121   2.630   1.309   7.007 -0.9594 -3.2548  1.9488
   43CHL1    C8 3122   2.758   1.207   7.165 -0.2295  0.2931  0.1882
   43CHL1    H8 3123   2.865   1.205   7.195  0.0541 -0.8607 -0.8046
   43CHL1   C14 3124   2.677   1.272   7.278 -0.3482 -0.3474  0.3836
   43CHL1   H14 3125   2.571   1.262   7.247  0.2619 -0.1653 -1.9566
   43CHL1   C15 3126   2.687   1.424   7.311  0.1830 -0.5895  0.5037
   43CHL1  H15A 3127   2.793   1.454   7.330  0.5533 -1.3702 -0.2316
   43CHL1  H15B 3128   2.637   1.481   7.230 -0.3408 -1.3286  0.2943
   43CHL1   C16 3129   2.617   1.437   7.447  0.4084  0.2865 -0.2603
   43CHL1  H16A 3130   2.694   1.484   7.512 -0.0132 -1.2211  1.4170
   43CHL1  H16B 3131   2.522   1.494   7.461  0.7717  1.0062 -0.6892
   43CHL1   C17 3132   2.590   1.291   7.498 -0.2128  0.2290 -0.2562
   43CHL1   H17 3133   2.488   1.258   7.469  0.0818 -2.1797  1.1861
   43CHL1   C13 3134   2.683   1.200   7.421  0.5504  0.3257 -0.0302
   43CHL1   C18 3135   2.823   1.215   7.485 -0.2651  0.5021 -0.3659
   43CHL1  H18A 3136   2.908   1.182   7.422  0.7379  0.1531  1.1335
   43CHL1  H18B 3137   2.848   1.320   7.512  1.7153 -0.1662  0.5900
   43CHL1  H18C 3138   2.838   1.157   7.578 -0.9366 -1.5738 -1.5013
   43CHL1   C12 3139   2.639   1.051   7.406 -0.3417 -0.4879  0.2812
   43CHL1  H12A 3140   2.670   0.998   7.498  1.0017 -2.2764 -1.1510
   43CHL1  H12B 3141   2.529   1.049   7.385 -0.3963  0.7206  0.3372
   43CHL1   C11 3142   2.716   0.981   7.284 -0.0275 -0.0134 -0.3134
   43CHL1  H11A 3143   2.814   0.976   7.336 -0.3723  1.9630  0.6478
   43CHL1  H11B 3144   2.679   0.877   7.272 -1.5288  0.6409 -1.7894
   43CHL1    C9 3145   2.711   1.058   7.148  0.0548 -0.5047 -0.3087
   43CHL1    H9 3146   2.603   1.055   7.124 -0.3239  0.1446  1.1695
   43CHL1   C10 3147   2.787   0.991   7.027 -0.5003 -0.2724  0.2473
   43CHL1   C19 3148   2.923   0.957   7.084  0.3444  0.6465 -0.3433
   43CHL1  H19A 3149   2.908   0.869   7.150 -0.1323  0.5623 -0.5536
   43CHL1  H19B 3150   3.003   0.934   7.011  1.4255 -2.4921  1.6390
   43CHL1  H19C 3151   2.968   1.046   7.132 -0.3661  0.1017  1.4278
   43CHL1    C1 3152   2.705   0.869   6.981 -0.1607  0.0048  0.5148
   43CHL1   H1A 3153   2.692   0.795   7.062 -1.1821  1.0507  1.3425
   43CHL1   H1B 3154   2.605   0.905   6.948 -0.9752  0.5966  3.4074
   43CHL1    C2 3155   2.774   0.799   6.870  0.5878 -0.9535  0.5450
   43CHL1   H2A 3156   2.705   0.718   6.837 -1.1985  0.2921  1.1070
   43CHL1   H2B 3157   2.868   0.747   6.899  1.1593  0.6574  1.7288
   43CHL1   C20 3158   2.592   1.279   7.646  0.4221 -0.5081 -0.0376
   43CHL1   H20 3159   2.695   1.300   7.680  0.4078  0.4559 -0.5518
   43CHL1   C21 3160   2.540   1.141   7.687 -0.7662 -0.6309 -0.0492
   43CHL1  H21A 3161   2.622   1.066   7.675 -2.3311 -2.2841 -0.9130
   43CHL1  H21B 3162   2.454   1.114   7.621 -0.2274 -0.7531 -0.7145
   43CHL1  H21C 3163   2.504   1.130   7.791 -3.8218  1.1815 -0.7998
   43CHL1   C22 3164   2.497   1.385   7.708 -0.1930  0.7308 -0.6481
   43CHL1  H22A 3165   2.510   1.489   7.670 -3.5605  1.8145  0.7463
   43CHL1  H22B 3166   2.397   1.339   7.690  1.4505 -2.3475 -2.8918
   43CHL1   C23 3167   2.524   1.408   7.866  0.3557  0.4599  0.0557
   43CHL1  H23A 3168   2.444   1.476   7.904 -0.3119  0.0238 -0.5553
   43CHL1  H23B 3169   2.518   1.317   7.929  0.3302 -0.6087 -1.4403
   43CHL1   C24 3170   2.658   1.466   7.894  0.1372 -0.1027  0.6163
   43CHL1  H24A 3171   2.739   1.395   7.867 -1.2824 -1.5129 -0.0825
   43CHL1  H24B 3172   2.682   1.560   7.839  1.5905  0.4545  2.1040
   43CHL1   C25 3173   2.683   1.497   8.043  0.4120  0.4319 -0.0215
   43CHL1   H25 3174   2.641   1.412   8.100 -0.9964  1.9071  1.2555
   43CHL1   C26 3175   2.823   1.527   8.088 -0.6454  0.5488 -0.3689
   43CHL1  H26A 3176   2.892   1.457   8.037 -1.0164 -1.2911  1.5012
   43CHL1  H26B 3177   2.864   1.627   8.061 -1.8937  1.2787  0.3567
   43CHL1  H26C 3178   2.841   1.527   8.198  2.3949 -1.0043 -0.7586
   43CHL1   C27 3179   2.600   1.613   8.096  0.2873 -0.3205  0.2076
   43CHL1  H27A 3180   2.641   1.709   8.058 -0.5396 -0.6203 -1.5426
   43CHL1  H27B 3181   2.491   1.616   8.074  0.5765  1.5132 -1.1865
   43CHL1  H27C 3182   2.617   1.625   8.205  1.7657 -0.6704  0.0261
   44CHL1    C3 3183   3.985   0.578   6.492 -0.5482  0.1535  0.3354
   44CHL1    H3 3184   3.961   0.469   6.488  0.3598 -0.0870  1.2045
   44CHL1    O3 3185   3.999   0.613   6.357 -0.7323  0.4995  0.5999
   44CHL1   H3' 3186   3.988   0.708   6.357 -0.9006  0.4802  0.3743
   44CHL1    C4 3187   3.866   0.650   6.551  0.8912 -0.6121  0.1447
   44CHL1   H4A 3188   3.877   0.761   6.554  5.3805 -0.8765  3.2500
   44CHL1   H4B 3189   3.776   0.616   6.494  0.0318 -0.3260  1.2795
   44CHL1    C5 3190   3.844   0.606   6.696  0.6206  0.4909  0.0486
   44CHL1    C6 3191   3.725   0.542   6.729 -0.6376 -0.4960 -0.8012
   44CHL1    H6 3192   3.649   0.515   6.654 -0.5955 -1.4692 -0.5063
   44CHL1    C7 3193   3.700   0.498   6.869  1.2379 -0.0921  0.1419
   44CHL1   H7A 3194   3.595   0.531   6.887  0.9395 -0.8626 -0.1666
   44CHL1   H7B 3195   3.701   0.387   6.869 -0.0999 -0.2081 -2.6544
   44CHL1    C8 3196   3.796   0.573   6.971 -0.0375  0.2038 -0.1662
   44CHL1    H8 3197   3.772   0.681   6.983  0.6407  0.2778  0.6561
   44CHL1   C14 3198   3.779   0.511   7.111  0.2708  0.7970 -0.0050
   44CHL1   H14 3199   3.802   0.405   7.088 -0.2821  0.2145  1.9181
   44CHL1   C15 3200   3.637   0.501   7.175  0.5105  0.1362 -0.5019
   44CHL1  H15A 3201   3.586   0.599   7.178 -0.8062 -0.5169 -0.6942
   44CHL1  H15B 3202   3.571   0.423   7.132 -0.3317  1.1723 -1.1454
   44CHL1   C16 3203   3.667   0.480   7.323  0.0931 -0.9795 -0.0014
   44CHL1  H16A 3204   3.616   0.560   7.380 -1.0099  0.2408 -2.5386
   44CHL1  H16B 3205   3.623   0.383   7.356 -0.7760 -1.5333 -2.5482
   44CHL1   C17 3206   3.817   0.483   7.342  0.1488 -0.0168 -0.3533
   44CHL1   H17 3207   3.854   0.379   7.335  0.7162  0.0218  1.5590
   44CHL1   C13 3208   3.866   0.563   7.222 -0.9140  0.9986 -0.1759
   44CHL1   C18 3209   3.842   0.717   7.250  0.2575 -0.0558  0.0811
   44CHL1  H18A 3210   3.904   0.780   7.183  0.0991  0.0907  0.0737
   44CHL1  H18B 3211   3.733   0.738   7.242 -0.5395 -2.3554  2.9282
   44CHL1  H18C 3212   3.885   0.747   7.348  0.7490  1.7022 -0.6349
   44CHL1   C12 3213   4.007   0.540   7.176  0.0948 -0.4540 -0.2390
   44CHL1  H12A 3214   4.088   0.580   7.241 -0.4060  1.7902 -0.8935
   44CHL1  H12B 3215   4.025   0.430   7.177  1.3027 -0.3510  3.0728
   44CHL1   C11 3216   4.037   0.605   7.039  0.2946 -0.1008  0.5748
   44CHL1  H11A 3217   4.036   0.713   7.065  1.7539  0.3534 -1.1055
   44CHL1  H11B 3218   4.144   0.583   7.018 -0.0778 -1.7450  0.2257
   44CHL1    C9 3219   3.938   0.568   6.925 -0.5789  0.2929  0.1662
   44CHL1    H9 3220   3.971   0.462   6.911  0.0052  0.4268  0.4763
   44CHL1   C10 3221   3.958   0.641   6.790  0.3289 -0.1481 -0.8969
   44CHL1   C19 3222   3.972   0.789   6.820  0.8780 -1.0672  0.0966
   44CHL1  H19A 3223   3.878   0.832   6.860  0.1252 -0.5880 -2.0288
   44CHL1  H19B 3224   4.051   0.805   6.896 -1.3731 -0.8620  2.5537
   44CHL1  H19C 3225   3.998   0.853   6.733  0.2887 -0.5174  0.3119
   44CHL1    C1 3226   4.087   0.576   6.727  0.3297 -0.6893 -0.1749
   44CHL1   H1A 3227   4.176   0.622   6.774 -0.4304  1.6786 -0.9353
   44CHL1   H1B 3228   4.098   0.465   6.732  2.4846 -0.7869 -3.6689
   44CHL1    C2 3229   4.112   0.598   6.578 -0.2778  0.1982 -0.2242
   44CHL1   H2A 3230   4.194   0.533   6.539 -1.3097 -1.6460  0.5745
   44CHL1   H2B 3231   4.124   0.707   6.558 -1.4741  0.4996  0.6172
   44CHL1   C20 3232   3.854   0.534   7.486  0.8366 -0.2239  0.2713
   44CHL1   H20 3233   3.844   0.643   7.504  1.0858 -0.4163  1.7489
   44CHL1   C21 3234   4.006   0.518   7.499  0.0543 -0.8698 -0.5743
   44CHL1  H21A 3235   4.074   0.580   7.437  2.0214 -1.9688  0.3626
   44CHL1  H21B 3236   4.033   0.412   7.477 -1.8379 -1.8218  1.3261
   44CHL1  H21C 3237   4.042   0.542   7.601  0.7519  0.7132 -1.1619
   44CHL1   C22 3238   3.781   0.455   7.599  0.5223  0.0145  0.6098
   44CHL1  H22A 3239   3.673   0.452   7.575  0.5223  2.2537  0.1647
   44CHL1  H22B 3240   3.808   0.347   7.599 -0.0556 -0.1737  2.6023
   44CHL1   C23 3241   3.805   0.504   7.743 -0.0250 -0.5678 -0.3878
   44CHL1  H23A 3242   3.911   0.536   7.752 -0.2371 -0.4946  2.9407
   44CHL1  H23B 3243   3.732   0.586   7.759 -2.1091 -2.1780 -1.1441
   44CHL1   C24 3244   3.773   0.405   7.852  0.5020 -0.0548 -0.8329
   44CHL1  H24A 3245   3.666   0.375   7.853  0.2418  0.7502 -2.0168
   44CHL1  H24B 3246   3.831   0.312   7.834  0.2087 -0.3537 -0.2508
   44CHL1   C25 3247   3.806   0.467   8.000 -0.3235 -0.4052  0.0859
   44CHL1   H25 3248   3.906   0.515   7.996 -1.2235  2.0188  3.0516
   44CHL1   C26 3249   3.712   0.586   8.035  0.0366 -0.0872  0.9602
   44CHL1  H26A 3250   3.719   0.658   7.951  0.0649 -1.4029 -0.1920
   44CHL1  H26B 3251   3.608   0.546   8.036 -0.4542  0.9669 -1.3059
   44CHL1  H26C 3252   3.741   0.630   8.133 -1.6502 -0.0705  1.4746
   44CHL1   C27 3253   3.793   0.359   8.107  0.2932 -0.4546 -0.6163
   44CHL1  H27A 3254   3.691   0.317   8.101  1.0084 -2.1148 -1.8299
   44CHL1  H27B 3255   3.868   0.279   8.089 -0.6998 -0.9217 -3.0613
   44CHL1  H27C 3256   3.810   0.411   8.204 -3.1608 -0.4522  0.0935
   45CHL1    C3 3257   5.684   5.229   6.774 -0.4567 -0.5583  0.4490
   45CHL1    H3 3258   5.680   5.120   6.793 -0.1605 -0.7468 -0.5013
   45CHL1    O3 3259   5.656   5.246   6.635 -0.2486 -0.0801  0.0127
   45CHL1   H3' 3260   5.678   5.336   6.611 -2.9381  0.7746  0.4196
   45CHL1    C4 3261   5.585   5.314   6.857  0.1320  0.2106  0.0542
   45CHL1   H4A 3262   5.569   5.415   6.815 -4.2927 -0.4030 -0.1555
   45CHL1   H4B 3263   5.486   5.264   6.854  2.1471 -4.2505  0.2475
   45CHL1    C5 3264   5.617   5.307   7.007  0.8186 -1.1046 -0.4722
   45CHL1    C6 3265   5.525   5.265   7.094  0.1182  0.4668  0.1139
   45CHL1    H6 3266   5.427   5.242   7.052  0.3025 -2.3043  0.9626
   45CHL1    C7 3267   5.544   5.248   7.248 -0.0662 -0.5928  0.8123
   45CHL1   H7A 3268   5.459   5.288   7.308 -1.4840 -0.9038 -0.8803
   45CHL1   H7B 3269   5.566   5.141   7.268 -0.8230 -0.8340  0.3875
   45CHL1    C8 3270   5.667   5.330   7.286 -0.3721 -1.0707 -0.2821
   45CHL1    H8 3271   5.629   5.435   7.278  0.3688 -0.8888 -1.8764
   45CHL1   C14 3272   5.708   5.296   7.430  0.5000  0.4782  0.8430
   45CHL1   H14 3273   5.744   5.191   7.428 -0.2151  0.2291  0.4534
   45CHL1   C15 3274   5.602   5.304   7.536  0.4125 -0.9667 -0.0716
   45CHL1  H15A 3275   5.526   5.382   7.516  1.0102 -0.5232 -0.6425
   45CHL1  H15B 3276   5.552   5.205   7.545 -2.1663  0.3102  0.6882
   45CHL1   C16 3277   5.681   5.326   7.670 -0.5686  0.6393  0.0893
   45CHL1  H16A 3278   5.671   5.429   7.710  0.2535  1.0683 -0.7582
   45CHL1  H16B 3279   5.655   5.245   7.741  0.9159 -0.8774 -1.0125
   45CHL1   C17 3280   5.836   5.323   7.630 -0.2533 -0.0525  0.1066
   45CHL1   H17 3281   5.863   5.216   7.619  3.8050  0.6050  1.9615
   45CHL1   C13 3282   5.835   5.379   7.484 -0.2902 -0.6213  0.1901
   45CHL1   C18 3283   5.806   5.529   7.492 -0.2087 -0.0520  0.6864
   45CHL1  H18A 3284   5.901   5.585   7.491  1.3125 -2.4636 -1.2707
   45CHL1  H18B 3285   5.749   5.561   7.402 -1.0580 -0.6094  1.0111
   45CHL1  H18C 3286   5.737   5.566   7.571 -0.5028 -0.9093  0.8469
   45CHL1   C12 3287   5.954   5.344   7.388  0.0752  0.0572 -1.0513
   45CHL1  H12A 3288   6.037   5.401   7.435 -1.7607  1.0058  1.2271
   45CHL1  H12B 3289   5.991   5.241   7.405  0.2079  0.4854  1.6768
   45CHL1   C11 3290   5.912   5.385   7.245 -0.3653  0.1107 -0.4245
   45CHL1  H11A 3291   5.901   5.496   7.244  0.9994  0.2568 -0.4000
   45CHL1  H11B 3292   5.997   5.354   7.180 -1.7081 -0.6814 -1.8691
   45CHL1    C9 3293   5.782   5.315   7.190  0.3543  0.2792  0.4752
   45CHL1    H9 3294   5.804   5.206   7.187 -0.1915  0.1200  1.7448
   45CHL1   C10 3295   5.756   5.356   7.043 -0.2811  0.4784  0.0295
   45CHL1   C19 3296   5.766   5.515   7.026 -0.3547 -0.3480 -0.2657
   45CHL1  H19A 3297   5.707   5.578   7.096  0.1013 -0.9783  0.6972
   45CHL1  H19B 3298   5.875   5.527   7.039 -0.2811 -1.5116  0.3170
   45CHL1  H19C 3299   5.736   5.535   6.920  1.1705  2.7966 -0.2346
   45CHL1    C1 3300   5.857   5.279   6.951 -0.3101  0.5359  0.1118
   45CHL1   H1A 3301   5.962   5.309   6.969 -1.1700  1.9809  3.6310
   45CHL1   H1B 3302   5.853   5.171   6.974  2.9917 -0.2233 -2.2172
   45CHL1    C2 3303   5.828   5.280   6.801  0.6089 -0.2670  0.0178
   45CHL1   H2A 3304   5.898   5.209   6.751 -0.9263 -1.2204 -0.8640
   45CHL1   H2B 3305   5.847   5.385   6.767  0.2419  0.9522  3.2356
   45CHL1   C20 3306   5.925   5.377   7.747 -0.1816 -0.1886  0.6806
   45CHL1   H20 3307   5.908   5.485   7.763 -0.4370 -0.1205 -0.0544
   45CHL1   C21 3308   6.067   5.361   7.701  0.2153  0.3256  0.3730
   45CHL1  H21A 3309   6.071   5.284   7.621 -1.7775  0.7403 -0.1902
   45CHL1  H21B 3310   6.134   5.328   7.783 -0.6167  1.2275  1.4476
   45CHL1  H21C 3311   6.100   5.461   7.666  1.3477 -0.0594  0.3023
   45CHL1   C22 3312   5.899   5.301   7.881  0.3429  0.0861 -0.1235
   45CHL1  H22A 3313   5.877   5.192   7.873  1.1020 -0.1189  0.3515
   45CHL1  H22B 3314   5.996   5.293   7.937 -0.4691 -1.9357  1.1196
   45CHL1   C23 3315   5.808   5.373   7.980 -0.0901 -0.2431  0.5465
   45CHL1  H23A 3316   5.819   5.482   7.963 -1.2759 -0.4195 -1.7220
   45CHL1  H23B 3317   5.703   5.360   7.949 -0.4764  0.9297  1.3040
   45CHL1   C24 3318   5.819   5.327   8.128  0.0295 -0.0641 -0.4926
   45CHL1  H24A 3319   5.803   5.218   8.141  1.6034 -0.0960  1.7111
   45CHL1  H24B 3320   5.919   5.350   8.170 -0.3774  0.8761 -0.0044
   45CHL1   C25 3321   5.725   5.406   8.220  0.0858 -0.6665 -0.5902
   45CHL1   H25 3322   5.745   5.514   8.203 -0.0423 -0.4599  0.4671
   45CHL1   C26 3323   5.578   5.378   8.187  0.0423  0.6731 -0.5670
   45CHL1  H26A 3324   5.498   5.442   8.229 -0.8324 -0.7433 -0.0165
   45CHL1  H26B 3325   5.557   5.392   8.079 -0.3348  1.7846 -0.3665
   45CHL1  H26C 3326   5.549   5.276   8.218 -0.8255  0.4465 -2.0377
   45CHL1   C27 3327   5.760   5.380   8.365  0.4293  0.3925 -0.0742
   45CHL1  H27A 3328   5.732   5.472   8.421  2.7487  2.0096 -1.3853
   45CHL1  H27B 3329   5.703   5.289   8.394 -0.2939 -0.2735 -3.2710
   45CHL1  H27C 3330   5.870   5.376   8.379  0.3615  0.9665  0.6832
   46CHL1    C3 3331   4.785   0.974   7.083  0.1841 -0.3302  1.0061
   46CHL1    H3 3332   4.778   1.081   7.110 -0.7996  0.3069 -1.5128
   46CHL1    O3 3333   4.793   0.954   6.939 -0.0078 -0.4660  0.4445
   46CHL1   H3' 3334   4.777   0.863   6.912  0.8523  0.1324 -2.4198
   46CHL1    C4 3335   4.910   0.911   7.150 -0.3778 -0.2454 -0.1269
   46CHL1   H4A 3336   4.920   0.809   7.107  2.9176  0.2054 -0.6910
   46CHL1   H4B 3337   5.002   0.956   7.108  0.1785 -1.4133 -0.1936
   46CHL1    C5 3338   4.907   0.901   7.303 -0.6000  0.4030  0.3593
   46CHL1    C6 3339   5.010   0.941   7.377  0.1856 -0.1709  0.0428
   46CHL1    H6 3340   5.101   0.980   7.328 -0.0749  0.7899  0.2919
   46CHL1    C7 3341   5.012   0.933   7.530  0.7735  0.2306  0.3895
   46CHL1   H7A 3342   5.098   0.877   7.573  0.3930  0.1478  1.0723
   46CHL1   H7B 3343   5.014   1.037   7.568  0.7757  0.1110  0.7194
   46CHL1    C8 3344   4.881   0.861   7.585  0.1594 -0.0749 -1.1912
   46CHL1    H8 3345   4.904   0.752   7.578  2.0813  0.3499 -2.1558
   46CHL1   C14 3346   4.847   0.899   7.728 -0.3013 -0.4093 -0.5260
   46CHL1   H14 3347   4.822   1.008   7.726 -1.4301 -0.6241 -3.3334
   46CHL1   C15 3348   4.962   0.898   7.832 -0.0764 -0.0203 -0.0882
   46CHL1  H15A 3349   5.012   0.800   7.815 -0.2463 -0.0345 -0.5232
   46CHL1  H15B 3350   5.025   0.989   7.820 -1.0880  0.9674  1.6547
   46CHL1   C16 3351   4.892   0.885   7.972  0.0471 -0.2614  0.0606
   46CHL1  H16A 3352   4.933   0.795   8.023 -0.8923  0.0292  1.3984
   46CHL1  H16B 3353   4.921   0.966   8.043 -0.3642 -0.3335  0.3142
   46CHL1   C17 3354   4.743   0.872   7.939  0.6019  0.9793 -1.4697
   46CHL1   H17 3355   4.703   0.976   7.939 -0.1735  0.7105  0.2385
   46CHL1   C13 3356   4.740   0.820   7.795  0.0730 -0.2061 -0.0002
   46CHL1   C18 3357   4.757   0.661   7.796 -0.2486 -0.9668  0.2237
   46CHL1  H18A 3358   4.856   0.626   7.833  0.1985  0.0125 -0.0076
   46CHL1  H18B 3359   4.679   0.602   7.848 -0.8896 -1.4233 -1.2014
   46CHL1  H18C 3360   4.762   0.625   7.691 -2.0276  0.0353 -0.2516
   46CHL1   C12 3361   4.611   0.863   7.721 -0.4980  0.4712  0.7122
   46CHL1  H12A 3362   4.518   0.819   7.763 -0.8838 -1.6415 -2.0742
   46CHL1  H12B 3363   4.593   0.972   7.734  3.3635  1.4608 -0.7517
   46CHL1   C11 3364   4.622   0.828   7.569 -0.7360 -0.0629 -0.7992
   46CHL1  H11A 3365   4.623   0.720   7.542  2.0396  0.0703 -1.5141
   46CHL1  H11B 3366   4.532   0.871   7.520 -0.4364  1.6288  0.0922
   46CHL1    C9 3367   4.753   0.892   7.503 -0.4889 -0.6908 -0.5119
   46CHL1    H9 3368   4.735   1.001   7.517  0.4952 -0.5893  0.1058
   46CHL1   C10 3369   4.769   0.864   7.355 -0.0759 -0.3288  0.6735
   46CHL1   C19 3370   4.768   0.715   7.332 -0.7314  1.1319 -0.0422
   46CHL1  H19A 3371   4.836   0.660   7.401 -0.1457  0.3843 -1.1767
   46CHL1  H19B 3372   4.672   0.662   7.345  1.4873 -2.9748  1.6856
   46CHL1  H19C 3373   4.805   0.683   7.233  4.1991  0.4995  1.7092
   46CHL1    C1 3374   4.647   0.932   7.282  0.0847 -0.6438 -0.0597
   46CHL1   H1A 3375   4.555   0.891   7.328  0.0008 -0.9293 -0.4782
   46CHL1   H1B 3376   4.645   1.042   7.295 -2.7973 -0.7828  1.5411
   46CHL1    C2 3377   4.644   0.909   7.136  0.1197 -0.2363  1.0026
   46CHL1   H2A 3378   4.562   0.964   7.086  3.2024  2.7052 -1.2623
   46CHL1   H2B 3379   4.641   0.801   7.109  2.5758 -0.5973  1.8793
   46CHL1   C20 3380   4.646   0.805   8.043 -0.1319 -0.9014  0.5440
   46CHL1   H20 3381   4.556   0.772   7.987  1.2644 -0.2283 -2.3126
   46CHL1   C21 3382   4.583   0.918   8.129 -0.2126 -0.1503  0.1188
   46CHL1  H21A 3383   4.518   0.872   8.206  1.3336  0.1314  1.6595
   46CHL1  H21B 3384   4.514   0.985   8.075  1.8091 -0.0579 -2.5848
   46CHL1  H21C 3385   4.661   0.980   8.178  0.4990 -1.3333  0.5475
   46CHL1   C22 3386   4.705   0.696   8.130 -0.0230  0.1281 -0.3009
   46CHL1  H22A 3387   4.759   0.620   8.069  2.2209 -0.1643  1.9325
   46CHL1  H22B 3388   4.781   0.730   8.203  1.3850 -0.9789 -1.2046
   46CHL1   C23 3389   4.601   0.618   8.209 -0.3376 -0.0047  0.8210
   46CHL1  H23A 3390   4.561   0.688   8.285 -1.0742  1.5172 -0.8882
   46CHL1  H23B 3391   4.527   0.603   8.128  0.8098  3.0288 -0.9678
   46CHL1   C24 3392   4.645   0.492   8.281  0.5382  0.0607  0.2504
   46CHL1  H24A 3393   4.676   0.401   8.225 -0.6838 -0.7098  0.7740
   46CHL1  H24B 3394   4.737   0.517   8.339  0.4604  0.6342  0.1300
   46CHL1   C25 3395   4.541   0.440   8.381  0.1217 -0.1408 -0.4672
   46CHL1   H25 3396   4.505   0.529   8.437  0.3875 -1.7979  2.5503
   46CHL1   C26 3397   4.419   0.367   8.308 -0.4404  0.0584  0.2311
   46CHL1  H26A 3398   4.376   0.444   8.241  0.2979  0.1177 -0.1743
   46CHL1  H26B 3399   4.462   0.281   8.252  2.6982  0.9030  1.1447
   46CHL1  H26C 3400   4.350   0.336   8.390 -0.3792  1.4390  0.8307
   46CHL1   C27 3401   4.610   0.345   8.484  0.0332  0.1144  0.3101
   46CHL1  H27A 3402   4.678   0.411   8.541  1.5066 -0.1767 -1.0431
   46CHL1  H27B 3403   4.535   0.299   8.553  1.4508 -1.9529  0.5844
   46CHL1  H27C 3404   4.674   0.273   8.429  0.0286  0.4910 -0.1889
   47CHL1    C3 3405   3.474   6.697   6.673 -0.5402  0.7606 -0.6937
   47CHL1    H3 3406   3.562   6.760   6.647  0.3364  0.1584  0.7143
   47CHL1    O3 3407   3.455   6.604   6.567  1.0283  0.0780 -0.4640
   47CHL1   H3' 3408   3.361   6.585   6.561  0.9488 -0.3325  1.4327
   47CHL1    C4 3409   3.503   6.616   6.799 -0.2330  0.3648 -0.6904
   47CHL1   H4A 3410   3.420   6.542   6.804 -1.2328  1.4704 -0.4473
   47CHL1   H4B 3411   3.594   6.552   6.790 -0.9098 -0.6539 -0.4299
   47CHL1    C5 3412   3.500   6.698   6.928 -0.6273  0.0112 -0.1398
   47CHL1    C6 3413   3.603   6.714   7.013 -0.0079  0.1104  0.5901
   47CHL1    H6 3414   3.689   6.648   6.992 -0.3284 -0.5470  1.2926
   47CHL1    C7 3415   3.600   6.794   7.140  0.4276 -0.1506  0.0010
   47CHL1   H7A 3416   3.631   6.731   7.226  2.4127  0.9317  0.1339
   47CHL1   H7B 3417   3.674   6.877   7.141 -1.1726  1.3560  2.4166
   47CHL1    C8 3418   3.461   6.839   7.189 -0.0255  0.2859 -0.6494
   47CHL1    H8 3419   3.411   6.748   7.227 -2.0457  2.5919  2.8817
   47CHL1   C14 3420   3.466   6.942   7.301  0.0765 -0.1784  0.1567
   47CHL1   H14 3421   3.521   7.028   7.257 -1.7582  0.1817 -1.6003
   47CHL1   C15 3422   3.553   6.915   7.419  0.3756 -0.2404 -0.2627
   47CHL1  H15A 3423   3.552   6.804   7.429  0.1990 -0.0628  2.5492
   47CHL1  H15B 3424   3.660   6.936   7.397  0.8415 -1.4032  0.7412
   47CHL1   C16 3425   3.477   6.984   7.537  0.3563  0.3050  0.0015
   47CHL1  H16A 3426   3.433   6.909   7.607 -2.9482  1.5618 -0.5196
   47CHL1  H16B 3427   3.554   7.031   7.602  0.6130 -1.0767  0.7347
   47CHL1   C17 3428   3.372   7.079   7.468  0.1528 -0.4571 -0.5436
   47CHL1   H17 3429   3.426   7.166   7.423  1.2699 -1.5285 -1.3448
   47CHL1   C13 3430   3.329   6.997   7.347  0.4586 -0.5677 -0.0950
   47CHL1   C18 3431   3.251   6.869   7.397 -0.5099  0.7501  0.3359
   47CHL1  H18A 3432   3.235   6.798   7.313 -1.0589  0.6172  0.5524
   47CHL1  H18B 3433   3.308   6.808   7.470 -2.2659 -0.7906  0.4779
   47CHL1  H18C 3434   3.159   6.908   7.444 -0.3517 -0.0206  1.3082
   47CHL1   C12 3435   3.265   7.064   7.228  0.3083 -0.0098 -0.1371
   47CHL1  H12A 3436   3.159   7.092   7.243 -0.3283 -0.6746 -2.7952
   47CHL1  H12B 3437   3.327   7.154   7.209 -1.1918  1.1596  0.3598
   47CHL1   C11 3438   3.256   6.972   7.103  0.2552  0.1238 -0.0846
   47CHL1  H11A 3439   3.172   6.901   7.120 -0.7193  1.5960  1.5848
   47CHL1  H11B 3440   3.231   7.028   7.010  0.7424 -1.7325 -1.3832
   47CHL1    C9 3441   3.385   6.892   7.070 -0.2473  0.5505  0.0951
   47CHL1    H9 3442   3.453   6.974   7.039  2.2243 -1.1867  0.6827
   47CHL1   C10 3443   3.376   6.783   6.950  0.3946 -0.9110 -0.5893
   47CHL1   C19 3444   3.262   6.684   6.984 -0.1170  0.3418  0.7452
   47CHL1  H19A 3445   3.174   6.744   7.013 -0.1099  0.0555  1.3665
   47CHL1  H19B 3446   3.241   6.618   6.897  1.3853 -0.6389  1.0743
   47CHL1  H19C 3447   3.294   6.616   7.066 -1.4510  0.8264  1.6871
   47CHL1    C1 3448   3.346   6.862   6.823  0.6096 -0.3662  0.1174
   47CHL1   H1A 3449   3.249   6.912   6.842  1.5220  1.0630  1.2111
   47CHL1   H1B 3450   3.424   6.941   6.817  1.8154 -1.4751  0.6215
   47CHL1    C2 3451   3.347   6.783   6.696  0.8950  0.0747 -0.0405
   47CHL1   H2A 3452   3.331   6.838   6.601  1.1324  1.0054  0.4355
   47CHL1   H2B 3453   3.262   6.712   6.698  0.8688  0.1076  0.0244
   47CHL1   C20 3454   3.273   7.136   7.576 -0.6095 -0.2200  0.2752
   47CHL1   H20 3455   3.238   7.049   7.636 -1.8673  0.3144  0.3345
   47CHL1   C21 3456   3.156   7.207   7.505  0.0037 -0.4118  0.4585
   47CHL1  H21A 3457   3.082   7.248   7.577 -1.0514  0.7874 -1.2504
   47CHL1  H21B 3458   3.096   7.145   7.436 -0.7555  1.7956 -0.9385
   47CHL1  H21C 3459   3.199   7.298   7.457 -0.8589 -0.8966 -1.3060
   47CHL1   C22 3460   3.345   7.224   7.682 -0.0622 -0.4068 -0.0428
   47CHL1  H22A 3461   3.419   7.164   7.739  1.2720  0.6497 -0.6045
   47CHL1  H22B 3462   3.410   7.294   7.625 -0.1853 -0.1658  0.1140
   47CHL1   C23 3463   3.267   7.310   7.774 -0.1844  0.0756  0.0371
   47CHL1  H23A 3464   3.228   7.399   7.718 -0.4833  0.0786  0.2472
   47CHL1  H23B 3465   3.176   7.254   7.806  1.1145 -0.4219  3.2323
   47CHL1   C24 3466   3.336   7.367   7.898 -0.3379 -0.3902  0.3320
   47CHL1  H24A 3467   3.372   7.280   7.958  0.3915 -0.5238 -0.2847
   47CHL1  H24B 3468   3.426   7.428   7.873  0.0738 -0.6368  1.1653
   47CHL1   C25 3469   3.238   7.452   7.979  0.3185 -0.6355  0.1543
   47CHL1   H25 3470   3.182   7.503   7.898  0.9097 -1.2780 -0.6792
   47CHL1   C26 3471   3.146   7.364   8.066 -0.0174  0.1129 -0.1657
   47CHL1  H26A 3472   3.080   7.428   8.129 -0.8552  2.0617 -2.8111
   47CHL1  H26B 3473   3.068   7.312   8.007 -1.8706  1.7076  0.7459
   47CHL1  H26C 3474   3.199   7.285   8.122 -0.0970  1.2922  1.6609
   47CHL1   C27 3475   3.313   7.556   8.068  0.7362 -0.3331  0.2487
   47CHL1  H27A 3476   3.244   7.636   8.103  0.1917  0.2825 -2.0872
   47CHL1  H27B 3477   3.354   7.509   8.160 -0.0341 -0.2429  0.6454
   47CHL1  H27C 3478   3.396   7.593   8.004  0.4593  0.2009  0.1933
   48CHL1    C3 3479   0.789   2.823   6.299  0.2287 -0.0245  0.4401
   48CHL1    H3 3480   0.696   2.785   6.345 -0.3567  1.6682  0.7215
   48CHL1    O3 3481   0.783   2.826   6.153  0.7210 -0.2893 -0.2765
   48CHL1   H3' 3482   0.863   2.790   6.115 -0.3778 -1.4199 -1.6181
   48CHL1    C4 3483   0.829   2.960   6.350 -0.3580 -0.3836  0.8636
   48CHL1   H4A 3484   0.924   2.990   6.300 -0.3388 -1.0861  0.4562
   48CHL1   H4B 3485   0.752   3.026   6.305 -0.2520 -2.2019 -2.2594
   48CHL1    C5 3486   0.856   2.960   6.496 -0.8675  0.7994 -0.6358
   48CHL1    C6 3487   0.778   3.030   6.578 -0.7135 -0.0374  0.2454
   48CHL1    H6 3488   0.697   3.093   6.538 -1.6626  0.7600  3.2123
   48CHL1    C7 3489   0.783   3.021   6.726 -0.1064  0.2576 -0.5303
   48CHL1   H7A 3490   0.764   3.111   6.790 -1.4859  0.8310 -1.7001
   48CHL1   H7B 3491   0.707   2.947   6.758 -0.4277 -0.1337 -2.1179
   48CHL1    C8 3492   0.918   2.965   6.777  0.1035 -0.6150 -0.3883
   48CHL1    H8 3493   0.986   3.049   6.751 -1.6083  0.8305 -0.4282
   48CHL1   C14 3494   0.918   2.937   6.928 -0.2065  0.3356 -0.6489
   48CHL1   H14 3495   0.842   2.863   6.962  0.0707  0.1704 -0.3818
   48CHL1   C15 3496   0.871   3.062   7.012 -0.2870 -0.3338 -0.5099
   48CHL1  H15A 3497   0.919   3.153   6.971 -3.5920  1.8153 -0.0189
   48CHL1  H15B 3498   0.760   3.075   7.008 -0.2777 -0.4055 -1.1454
   48CHL1   C16 3499   0.927   3.036   7.153  0.2266  0.3698  0.5412
   48CHL1  H16A 3500   0.979   3.127   7.190  1.4917 -0.2884  0.4494
   48CHL1  H16B 3501   0.848   3.015   7.229 -0.3497  0.2153 -0.0931
   48CHL1   C17 3502   1.016   2.906   7.137 -0.1577  0.0156 -0.4363
   48CHL1   H17 3503   0.941   2.826   7.150  0.7955 -0.5233  2.7190
   48CHL1   C13 3504   1.047   2.898   6.984  0.0326  0.8603 -0.2443
   48CHL1   C18 3505   1.156   2.997   6.951 -0.0838  0.1787 -0.1151
   48CHL1  H18A 3506   1.253   2.972   6.998 -0.8534  0.2134  1.5366
   48CHL1  H18B 3507   1.160   3.043   6.850  0.7600  2.2653  0.8102
   48CHL1  H18C 3508   1.134   3.093   7.002  1.3336  1.0543 -1.0542
   48CHL1   C12 3509   1.083   2.762   6.921 -0.1501 -0.2484 -0.0855
   48CHL1  H12A 3510   1.181   2.722   6.953 -0.8703 -2.1414 -0.1381
   48CHL1  H12B 3511   1.005   2.685   6.941 -2.9684  2.4846  0.2830
   48CHL1   C11 3512   1.082   2.769   6.766 -0.3576  0.2715 -0.0655
   48CHL1  H11A 3513   1.174   2.828   6.747 -1.6942  2.0236 -1.3924
   48CHL1  H11B 3514   1.098   2.671   6.716  1.3764 -0.5442  1.9163
   48CHL1    C9 3515   0.951   2.839   6.703 -0.1259  0.1316  0.8710
   48CHL1    H9 3516   0.867   2.770   6.725 -0.1906 -0.4097 -0.8860
   48CHL1   C10 3517   0.959   2.858   6.547 -0.0935 -0.2519 -0.4606
   48CHL1   C19 3518   1.091   2.926   6.514 -0.3809 -0.1594 -0.7139
   48CHL1  H19A 3519   1.181   2.867   6.542 -0.9422  0.1344  1.9778
   48CHL1  H19B 3520   1.103   2.966   6.411 -0.1987  0.9684 -0.2623
   48CHL1  H19C 3521   1.101   3.012   6.583 -1.7760  0.4265 -1.1936
   48CHL1    C1 3522   0.936   2.723   6.483 -0.0630  0.0387  0.9033
   48CHL1   H1A 3523   1.025   2.661   6.504 -0.8966 -0.9597  1.5855
   48CHL1   H1B 3524   0.848   2.672   6.529 -0.2962  0.2060  0.6442
   48CHL1    C2 3525   0.905   2.728   6.330  0.3553 -0.2738 -0.0745
   48CHL1   H2A 3526   0.882   2.631   6.282  1.2918  0.8623 -3.0556
   48CHL1   H2B 3527   0.992   2.778   6.281 -0.3686  0.4985 -0.6057
   48CHL1   C20 3528   1.121   2.875   7.239  0.3700  0.1307 -0.0927
   48CHL1   H20 3529   1.220   2.915   7.209  0.7379  0.3889  1.4025
   48CHL1   C21 3530   1.124   2.721   7.261  0.3177  0.2283  0.0679
   48CHL1  H21A 3531   1.022   2.686   7.285 -0.2989  2.1831  0.4050
   48CHL1  H21B 3532   1.203   2.692   7.334  0.1811 -1.1899 -0.3096
   48CHL1  H21C 3533   1.151   2.677   7.162  1.1431  2.5454 -0.8071
   48CHL1   C22 3534   1.083   2.940   7.374  0.4387  0.6552 -0.1964
   48CHL1  H22A 3535   1.106   3.047   7.355  0.4589  0.4520 -1.4336
   48CHL1  H22B 3536   0.976   2.925   7.396  0.3352  1.4554 -0.1467
   48CHL1   C23 3537   1.162   2.905   7.499 -0.1098 -0.1083  0.4440
   48CHL1  H23A 3538   1.115   2.956   7.585 -0.5784  2.7419 -1.3587
   48CHL1  H23B 3539   1.158   2.796   7.520  1.5683 -0.2450  0.1529
   48CHL1   C24 3540   1.309   2.938   7.477 -0.1151 -0.6459 -0.9841
   48CHL1  H24A 3541   1.357   2.872   7.402 -1.6246 -1.4128 -1.3229
   48CHL1  H24B 3542   1.318   3.047   7.459  0.5457 -0.2041  1.5973
   48CHL1   C25 3543   1.411   2.913   7.596 -0.5239  0.0763  0.2339
   48CHL1   H25 3544   1.427   2.803   7.599  1.1123  0.1704 -2.0937
   48CHL1   C26 3545   1.550   2.977   7.559 -0.4901  0.1838 -0.3633
   48CHL1  H26A 3546   1.639   2.935   7.612  0.2271 -0.8634 -2.3038
   48CHL1  H26B 3547   1.564   2.951   7.452  0.6648 -1.1617  0.0853
   48CHL1  H26C 3548   1.544   3.085   7.586 -2.5200 -0.3944  1.8283
   48CHL1   C27 3549   1.363   2.956   7.733  0.3788  1.2615 -0.2576
   48CHL1  H27A 3550   1.288   2.883   7.770 -1.1883  1.9447 -1.8967
   48CHL1  H27B 3551   1.451   2.956   7.800 -1.0517  0.9457  1.7163
   48CHL1  H27C 3552   1.315   3.056   7.735  0.7908  1.4642 -0.3276
   49CHL1    C3 3553   5.732   4.595   6.830 -0.0448  0.8247 -0.8406
   49CHL1    H3 3554   5.837   4.629   6.841 -1.1992  4.1986  1.2173
   49CHL1    O3 3555   5.707   4.549   6.693  0.2653  0.7472 -0.1851
   49CHL1   H3' 3556   5.790   4.555   6.647  0.7096 -1.5841  0.1937
   49CHL1    C4 3557   5.703   4.483   6.926  0.7660 -0.5836 -0.2764
   49CHL1   H4A 3558   5.600   4.448   6.904  0.7714 -0.6676 -0.1710
   49CHL1   H4B 3559   5.772   4.400   6.901  0.6485 -0.3050 -1.5823
   49CHL1    C5 3560   5.713   4.517   7.070 -0.1047 -0.1818 -0.0833
   49CHL1    C6 3561   5.788   4.443   7.151  0.4241  0.2497  0.5269
   49CHL1    H6 3562   5.848   4.357   7.115  0.3492  1.2901 -2.3319
   49CHL1    C7 3563   5.799   4.486   7.295 -0.6220 -0.4439 -0.7518
   49CHL1   H7A 3564   5.807   4.399   7.364 -0.0691 -0.0739 -0.3411
   49CHL1   H7B 3565   5.898   4.534   7.309 -1.7237  1.6339  0.3865
   49CHL1    C8 3566   5.691   4.579   7.352  0.0124  0.2834 -0.5352
   49CHL1    H8 3567   5.596   4.524   7.372  1.3980 -1.5909  1.3399
   49CHL1   C14 3568   5.728   4.633   7.485  0.5286 -0.5781  0.0290
   49CHL1   H14 3569   5.822   4.692   7.481  0.4401 -0.3301  1.1786
   49CHL1   C15 3570   5.752   4.538   7.600  0.3740 -0.0125 -0.1108
   49CHL1  H15A 3571   5.653   4.490   7.613 -1.2345  2.9383 -0.5384
   49CHL1  H15B 3572   5.830   4.460   7.587  1.2894  0.8354  0.1972
   49CHL1   C16 3573   5.763   4.635   7.721  0.1590 -0.3148 -0.1185
   49CHL1  H16A 3574   5.714   4.597   7.813  0.1005  0.7275  0.2959
   49CHL1  H16B 3575   5.873   4.646   7.731 -0.0375  0.8315  1.0686
   49CHL1   C17 3576   5.697   4.770   7.677  0.4637  0.1053  0.2204
   49CHL1   H17 3577   5.777   4.845   7.656 -0.4440  1.3898  1.1362
   49CHL1   C13 3578   5.630   4.740   7.543  0.7948  0.4277  0.2738
   49CHL1   C18 3579   5.481   4.683   7.564  0.6389  0.4228 -0.6258
   49CHL1  H18A 3580   5.436   4.633   7.476  0.6238 -1.4976  0.4071
   49CHL1  H18B 3581   5.489   4.600   7.638  2.3492 -0.2988 -1.5856
   49CHL1  H18C 3582   5.417   4.759   7.615  2.9363  1.9966  0.0442
   49CHL1   C12 3583   5.622   4.859   7.436  0.1765 -0.7910  0.1832
   49CHL1  H12A 3584   5.540   4.931   7.459 -1.5065 -1.9413 -1.8517
   49CHL1  H12B 3585   5.727   4.894   7.442 -0.3105  0.5411  1.6858
   49CHL1   C11 3586   5.581   4.807   7.298 -0.4993  0.3323 -0.3837
   49CHL1  H11A 3587   5.473   4.782   7.307 -0.9852  1.8430 -1.5366
   49CHL1  H11B 3588   5.582   4.904   7.243 -1.0054  0.1837 -0.6544
   49CHL1    C9 3589   5.670   4.695   7.252  0.0006  0.5977 -0.7424
   49CHL1    H9 3590   5.769   4.745   7.246  0.8804 -0.8764  0.5199
   49CHL1   C10 3591   5.631   4.642   7.110  0.7065  0.5858  0.3511
   49CHL1   C19 3592   5.473   4.608   7.109  0.2209  0.2222  0.1149
   49CHL1  H19A 3593   5.406   4.696   7.101 -1.8614 -1.2781  0.1323
   49CHL1  H19B 3594   5.451   4.560   7.011  2.0507 -2.3319  0.8765
   49CHL1  H19C 3595   5.439   4.533   7.184  1.1017  0.5514  0.8480
   49CHL1    C1 3596   5.659   4.755   7.007  0.2929  0.1781 -0.1417
   49CHL1   H1A 3597   5.592   4.842   7.026 -1.9721 -1.6341  0.6229
   49CHL1   H1B 3598   5.766   4.781   7.021  0.7286 -0.6420 -1.6939
   49CHL1    C2 3599   5.641   4.716   6.860 -0.2559  0.4713 -0.5866
   49CHL1   H2A 3600   5.674   4.797   6.792 -0.6862  0.8575 -0.3375
   49CHL1   H2B 3601   5.540   4.684   6.828 -0.8607  0.4821  1.1887
   49CHL1   C20 3602   5.625   4.833   7.789  0.2062  0.2299  1.1309
   49CHL1   H20 3603   5.552   4.757   7.825  2.4412 -1.9137  1.4790
   49CHL1   C21 3604   5.562   4.964   7.739  0.5683 -0.5333  0.6091
   49CHL1  H21A 3605   5.538   5.048   7.809  1.8316  0.2012  0.2009
   49CHL1  H21B 3606   5.472   4.939   7.680  0.5230 -1.4243  1.0474
   49CHL1  H21C 3607   5.634   4.999   7.662  0.0042 -2.2808 -0.7469
   49CHL1   C22 3608   5.718   4.855   7.914  1.4751 -0.4938  0.1079
   49CHL1  H22A 3609   5.766   4.762   7.951  0.4889 -0.2903  1.9843
   49CHL1  H22B 3610   5.804   4.919   7.883  1.1733 -0.6679 -1.1495
   49CHL1   C23 3611   5.641   4.926   8.028  0.8242 -0.5228  0.2785
   49CHL1  H23A 3612   5.635   5.031   7.991  0.1436 -1.1593 -1.5314
   49CHL1  H23B 3613   5.538   4.885   8.026  0.7244 -0.2689 -0.0189
   49CHL1   C24 3614   5.722   4.919   8.154  0.4437  0.7972 -0.1647
   49CHL1  H24A 3615   5.751   4.814   8.177  1.2036  1.0069 -0.1642
   49CHL1  H24B 3616   5.825   4.960   8.151  0.2970  1.3674  1.5620
   49CHL1   C25 3617   5.640   4.982   8.276  0.3202  0.2340  0.0204
   49CHL1   H25 3618   5.605   5.080   8.238 -1.3530 -0.6467 -0.8739
   49CHL1   C26 3619   5.500   4.903   8.310 -0.4214 -0.6885  0.0219
   49CHL1  H26A 3620   5.451   4.955   8.394 -2.4541  1.3777 -2.3103
   49CHL1  H26B 3621   5.433   4.903   8.221 -1.8056  0.4913  1.0225
   49CHL1  H26C 3622   5.515   4.796   8.338 -0.1688 -0.6826 -0.0851
   49CHL1   C27 3623   5.730   4.983   8.401 -0.3613  0.5778 -0.1833
   49CHL1  H27A 3624   5.803   4.899   8.402  0.4734  1.2280 -1.9240
   49CHL1  H27B 3625   5.793   5.073   8.387 -0.0077  0.3812  0.1361
   49CHL1  H27C 3626   5.669   4.979   8.494 -1.6605  0.8957 -1.0030
   50CHL1    C3 3627   0.925   5.689   6.973  0.1324  0.4700 -0.6706
   50CHL1    H3 3628   0.956   5.604   7.038  0.9677  1.1515 -0.1501
   50CHL1    O3 3629   0.983   5.671   6.845  0.7107  0.5361  0.1936
   50CHL1   H3' 3630   0.925   5.728   6.793 -1.0569 -1.0571  0.3140
   50CHL1    C4 3631   0.771   5.673   6.961 -0.4482 -0.7249  0.2352
   50CHL1   H4A 3632   0.737   5.766   6.909  1.4304  0.6750  1.3551
   50CHL1   H4B 3633   0.745   5.586   6.898  0.8479  0.0578 -1.4683
   50CHL1    C5 3634   0.703   5.678   7.101 -0.3160  0.2786 -0.2886
   50CHL1    C6 3635   0.635   5.569   7.144  0.3574 -0.0702 -0.2156
   50CHL1    H6 3636   0.621   5.480   7.082  0.4836 -1.3996  1.5663
   50CHL1    C7 3637   0.587   5.559   7.285  0.1092  0.1082  0.7359
   50CHL1   H7A 3638   0.494   5.497   7.287 -0.2910  0.5781 -1.2547
   50CHL1   H7B 3639   0.669   5.497   7.327  0.9030 -0.4149 -1.4601
   50CHL1    C8 3640   0.571   5.696   7.362 -0.3912  0.1244 -0.1127
   50CHL1    H8 3641   0.486   5.748   7.312 -2.3430 -1.6191  1.1740
   50CHL1   C14 3642   0.553   5.675   7.513 -0.1351  0.1440 -0.2700
   50CHL1   H14 3643   0.645   5.628   7.554  0.9204  0.9415 -1.6508
   50CHL1   C15 3644   0.441   5.584   7.565  0.0031 -0.2027 -0.6674
   50CHL1  H15A 3645   0.351   5.603   7.502  0.2923 -0.4385 -1.1507
   50CHL1  H15B 3646   0.472   5.477   7.566  2.8840  0.5624 -0.0018
   50CHL1   C16 3647   0.421   5.629   7.715  0.0580  0.7059 -0.4353
   50CHL1  H16A 3648   0.315   5.658   7.734  0.3650  1.6398 -0.0875
   50CHL1  H16B 3649   0.438   5.538   7.776 -1.3453  0.1853 -0.7794
   50CHL1   C17 3650   0.515   5.751   7.742 -0.5186 -0.3512  0.5976
   50CHL1   H17 3651   0.613   5.707   7.770 -0.8559 -0.8153  1.0693
   50CHL1   C13 3652   0.542   5.806   7.599  0.0464 -0.2981 -0.3389
   50CHL1   C18 3653   0.419   5.889   7.551 -0.1470  0.0552 -0.0962
   50CHL1  H18A 3654   0.417   5.981   7.612  2.0886  0.5786 -0.7445
   50CHL1  H18B 3655   0.414   5.915   7.443  0.1559 -0.2363 -0.1808
   50CHL1  H18C 3656   0.329   5.828   7.576  0.3179  0.2716  2.2932
   50CHL1   C12 3657   0.672   5.893   7.577  0.0658  0.1278 -0.1708
   50CHL1  H12A 3658   0.655   5.995   7.618 -1.3355  0.1522 -0.7411
   50CHL1  H12B 3659   0.755   5.842   7.629  0.4145 -0.2821 -1.1181
   50CHL1   C11 3660   0.706   5.911   7.430 -0.1958 -0.1648  0.1282
   50CHL1  H11A 3661   0.635   5.983   7.384  0.0172  0.9173  1.4353
   50CHL1  H11B 3662   0.807   5.954   7.413  0.6109 -1.8693  0.3712
   50CHL1    C9 3663   0.695   5.777   7.342 -0.1588  0.1493  0.5386
   50CHL1    H9 3664   0.770   5.701   7.375  0.1882 -0.7485 -2.0507
   50CHL1   C10 3665   0.726   5.801   7.185  0.1125  1.0152  0.2926
   50CHL1   C19 3666   0.634   5.917   7.137  0.2481 -0.1739 -0.6645
   50CHL1  H19A 3667   0.533   5.908   7.183  0.5092 -0.1504 -0.0706
   50CHL1  H19B 3668   0.683   6.012   7.167  0.4222 -0.4985  0.1161
   50CHL1  H19C 3669   0.627   5.915   7.026  1.3843  3.1438 -0.9023
   50CHL1    C1 3670   0.880   5.838   7.174 -0.1534  0.4440 -0.5629
   50CHL1   H1A 3671   0.912   5.939   7.207  2.4412 -0.0501 -1.2982
   50CHL1   H1B 3672   0.926   5.761   7.239 -1.5264  0.6734  0.7324
   50CHL1    C2 3673   0.954   5.820   7.042 -0.1844  0.0135  0.1247
   50CHL1   H2A 3674   1.064   5.828   7.054  0.2928  0.8226 -3.5385
   50CHL1   H2B 3675   0.910   5.893   6.970 -3.1173 -1.9555 -0.2691
   50CHL1   C20 3676   0.463   5.842   7.855  0.1636 -0.7487 -0.3350
   50CHL1   H20 3677   0.361   5.872   7.822  0.5482  1.7928  0.5444
   50CHL1   C21 3678   0.545   5.972   7.887  0.1238 -0.6491 -0.3785
   50CHL1  H21A 3679   0.511   6.020   7.981 -1.3195 -0.8098 -0.7994
   50CHL1  H21B 3680   0.512   6.040   7.805 -2.5245 -1.6116 -0.2211
   50CHL1  H21C 3681   0.654   5.954   7.898 -0.1726 -1.9607  0.5595
   50CHL1   C22 3682   0.450   5.758   7.987 -0.1680 -0.0547 -0.4646
   50CHL1  H22A 3683   0.436   5.652   7.955 -0.2307  0.0326 -0.7263
   50CHL1  H22B 3684   0.548   5.754   8.040  0.0317 -2.2234 -0.8740
   50CHL1   C23 3685   0.331   5.803   8.071 -0.0507  0.9791  0.2852
   50CHL1  H23A 3686   0.342   5.910   8.097  0.2197  1.3178 -1.1870
   50CHL1  H23B 3687   0.243   5.786   8.005  1.7944 -0.8723 -1.8657
   50CHL1   C24 3688   0.328   5.721   8.203  0.2410 -0.1329  0.1905
   50CHL1  H24A 3689   0.241   5.755   8.263 -1.2435  0.5494 -2.2157
   50CHL1  H24B 3690   0.312   5.615   8.172  1.1097 -0.4499  0.7754
   50CHL1   C25 3691   0.445   5.727   8.299 -0.0916 -0.3642 -0.5086
   50CHL1   H25 3692   0.535   5.711   8.235 -0.1560 -0.4023 -0.5896
   50CHL1   C26 3693   0.466   5.864   8.364 -0.1639 -0.1591 -0.3091
   50CHL1  H26A 3694   0.560   5.859   8.424 -0.3832 -0.5667  0.0104
   50CHL1  H26B 3695   0.491   5.940   8.287 -0.8206 -0.8945 -1.2704
   50CHL1  H26C 3696   0.384   5.905   8.426 -1.4512 -1.5185 -1.0573
   50CHL1   C27 3697   0.434   5.617   8.410 -0.9290  0.1485  0.4907
   50CHL1  H27A 3698   0.360   5.626   8.492 -0.8189 -0.0103  0.6092
   50CHL1  H27B 3699   0.420   5.518   8.363  0.4870  0.5195 -0.8115
   50CHL1  H27C 3700   0.527   5.610   8.472 -0.5949 -2.5178 -0.2152
   51CHL1    C3 3701   0.044   4.229   6.905 -0.7909 -0.2474 -0.8459
   51CHL1    H3 3702  -0.020   4.160   6.964 -2.6166  1.2351 -1.0087
   51CHL1    O3 3703   0.028   4.222   6.768 -0.4071 -0.0316 -0.2812
   51CHL1   H3' 3704  -0.067   4.212   6.757 -0.5307 -0.0123  0.6790
   51CHL1    C4 3705   0.002   4.366   6.959  0.6969 -0.0964  0.0881
   51CHL1   H4A 3706   0.050   4.452   6.905  0.6173  0.6746  1.2144
   51CHL1   H4B 3707  -0.105   4.380   6.934  0.9409  1.3075 -0.2833
   51CHL1    C5 3708   0.022   4.379   7.108  0.1766  0.5123  0.0931
   51CHL1    C6 3709  -0.073   4.413   7.191  0.8494  0.2734 -0.3979
   51CHL1    H6 3710  -0.171   4.431   7.145  1.9938 -1.5607 -3.9648
   51CHL1    C7 3711  -0.055   4.443   7.334 -0.2494 -0.5478 -0.0600
   51CHL1   H7A 3712  -0.107   4.538   7.358  1.0834  0.8409 -2.2990
   51CHL1   H7B 3713  -0.102   4.363   7.395  1.9225 -0.2868  2.0970
   51CHL1    C8 3714   0.100   4.446   7.377  0.1820  0.0150 -0.6362
   51CHL1    H8 3715   0.139   4.546   7.347  2.3682 -0.3093  0.8796
   51CHL1   C14 3716   0.099   4.438   7.528 -0.4425 -0.6415 -0.0369
   51CHL1   H14 3717   0.054   4.338   7.543  2.1543 -2.1266 -1.5177
   51CHL1   C15 3718   0.016   4.544   7.619  0.3026 -0.5619 -0.2228
   51CHL1  H15A 3719   0.014   4.642   7.568 -1.3925  0.1644  1.0957
   51CHL1  H15B 3720  -0.092   4.519   7.628  0.2058  0.3362  1.7381
   51CHL1   C16 3721   0.087   4.528   7.756  0.2204 -0.5545  0.0321
   51CHL1  H16A 3722   0.115   4.625   7.802  0.1266 -0.9022  0.8459
   51CHL1  H16B 3723   0.023   4.476   7.830 -2.0571  0.8674 -0.8106
   51CHL1   C17 3724   0.210   4.434   7.739  0.0477  0.2168 -0.2042
   51CHL1   H17 3725   0.171   4.334   7.768  0.4138  0.1008 -0.0983
   51CHL1   C13 3726   0.240   4.435   7.588  0.0737  0.0480 -0.7019
   51CHL1   C18 3727   0.323   4.570   7.561  0.2098 -0.8559 -0.0339
   51CHL1  H18A 3728   0.323   4.596   7.454 -1.4858 -1.4454 -0.2175
   51CHL1  H18B 3729   0.283   4.649   7.629 -0.5692 -1.7060  0.5394
   51CHL1  H18C 3730   0.425   4.537   7.588 -0.5018 -2.7062  0.6035
   51CHL1   C12 3731   0.320   4.319   7.524 -0.1251  0.3165 -0.5794
   51CHL1  H12A 3732   0.418   4.318   7.577 -1.1609 -2.3727  1.5116
   51CHL1  H12B 3733   0.273   4.223   7.557 -1.0632  1.3276  1.1864
   51CHL1   C11 3734   0.329   4.327   7.371  0.0988  0.6512  0.7446
   51CHL1  H11A 3735   0.369   4.429   7.358 -1.1095  1.4496  2.7929
   51CHL1  H11B 3736   0.389   4.252   7.315  0.2944  2.5933 -1.7992
   51CHL1    C9 3737   0.179   4.334   7.307  0.1758 -0.1952  0.4650
   51CHL1    H9 3738   0.133   4.237   7.334 -0.7236  0.0622 -0.1136
   51CHL1   C10 3739   0.167   4.343   7.155  0.8722 -0.2557  0.0322
   51CHL1   C19 3740   0.262   4.465   7.113  1.1255  0.8754  0.2722
   51CHL1  H19A 3741   0.233   4.553   7.174 -1.7269 -0.4074  0.9441
   51CHL1  H19B 3742   0.368   4.440   7.133  0.9838  0.8086  0.9782
   51CHL1  H19C 3743   0.261   4.474   7.002  0.2297 -1.7523 -0.0141
   51CHL1    C1 3744   0.225   4.208   7.087 -0.1270  0.6520 -0.0486
   51CHL1   H1A 3745   0.336   4.210   7.096  0.1558  0.0636 -2.5207
   51CHL1   H1B 3746   0.193   4.119   7.145  2.2277  0.9736  1.9524
   51CHL1    C2 3747   0.191   4.201   6.934 -0.1062  0.3072 -0.3476
   51CHL1   H2A 3748   0.213   4.098   6.899 -0.8111  0.0433 -0.0381
   51CHL1   H2B 3749   0.251   4.278   6.881  1.0968 -0.7432 -0.5544
   51CHL1   C20 3750   0.322   4.455   7.856  0.3165 -0.1701  0.6000
   51CHL1   H20 3751   0.371   4.553   7.840  0.0939 -0.0692  0.5227
   51CHL1   C21 3752   0.418   4.329   7.858 -0.0658  0.4750  0.1009
   51CHL1  H21A 3753   0.491   4.334   7.942 -1.2452 -0.7895  1.2511
   51CHL1  H21B 3754   0.472   4.336   7.761 -1.7323 -1.1693 -1.0154
   51CHL1  H21C 3755   0.361   4.234   7.857 -0.3620  0.6323 -1.7998
   51CHL1   C22 3756   0.259   4.459   7.993  0.1193  0.0450 -0.0211
   51CHL1  H22A 3757   0.174   4.531   7.994 -0.9551 -1.1539 -1.0313
   51CHL1  H22B 3758   0.216   4.359   8.015 -1.6075  0.9020  0.6892
   51CHL1   C23 3759   0.347   4.505   8.108 -1.1950 -0.3893 -0.3670
   51CHL1  H23A 3760   0.420   4.425   8.135 -1.7590 -0.2350  1.8410
   51CHL1  H23B 3761   0.401   4.598   8.082 -2.5740  0.8183  0.9134
   51CHL1   C24 3762   0.273   4.543   8.248 -0.0917 -0.0860  0.1277
   51CHL1  H24A 3763   0.200   4.623   8.226 -0.6172 -1.1667 -2.4562
   51CHL1  H24B 3764   0.215   4.453   8.276 -0.7694  0.8337  1.8536
   51CHL1   C25 3765   0.348   4.584   8.373 -0.3957  0.6461  0.1399
   51CHL1   H25 3766   0.393   4.492   8.417 -0.8901  0.2250 -0.2175
   51CHL1   C26 3767   0.457   4.691   8.343  0.1476 -0.0895 -0.3868
   51CHL1  H26A 3768   0.523   4.659   8.260 -1.4501 -0.8475 -1.4040
   51CHL1  H26B 3769   0.408   4.779   8.296  1.1705 -0.4799 -2.2565
   51CHL1  H26C 3770   0.513   4.713   8.437 -0.4806  1.2230 -0.3012
   51CHL1   C27 3771   0.252   4.640   8.481  0.0278  0.2302  0.6073
   51CHL1  H27A 3772   0.207   4.731   8.437  1.4946 -0.0996 -1.7604
   51CHL1  H27B 3773   0.170   4.570   8.509  0.5634  0.4513  2.9549
   51CHL1  H27C 3774   0.311   4.672   8.570  0.5177  0.4579  0.2039
   52CHL1    C3 3775   2.756   5.211   6.893  0.4446 -0.2820 -0.5585
   52CHL1    H3 3776   2.721   5.315   6.881 -1.1912 -0.7344  0.0512
   52CHL1    O3 3777   2.762   5.149   6.765 -0.1028 -0.0650 -0.2357
   52CHL1   H3' 3778   2.711   5.201   6.702  0.9407 -0.8064 -1.7433
   52CHL1    C4 3779   2.887   5.214   6.967  0.2201 -0.2732  0.2363
   52CHL1   H4A 3780   2.921   5.108   6.963 -1.5755 -0.8411 -1.4069
   52CHL1   H4B 3781   2.973   5.264   6.916 -0.4534  1.3371  0.6071
   52CHL1    C5 3782   2.880   5.267   7.103  0.3234  0.2537  0.2131
   52CHL1    C6 3783   2.955   5.375   7.149 -1.1324 -1.1794 -0.2407
   52CHL1    H6 3784   3.031   5.418   7.082 -0.8523 -0.8978  0.2526
   52CHL1    C7 3785   2.953   5.425   7.287 -0.1185  0.3348  1.0674
   52CHL1   H7A 3786   3.058   5.452   7.308  0.1276 -0.3794  0.7760
   52CHL1   H7B 3787   2.910   5.527   7.285  0.7375  0.6982  0.0496
   52CHL1    C8 3788   2.876   5.336   7.386 -1.1123 -0.6783  0.1025
   52CHL1    H8 3789   2.950   5.255   7.401  1.8853  1.3421 -2.5776
   52CHL1   C14 3790   2.846   5.415   7.511 -0.3040  0.0665 -0.2366
   52CHL1   H14 3791   2.783   5.500   7.476  0.6428  0.7212 -0.3846
   52CHL1   C15 3792   2.972   5.481   7.571  0.9421  0.0087  0.2479
   52CHL1  H15A 3793   3.061   5.416   7.556  1.5723  0.9383 -0.1853
   52CHL1  H15B 3794   3.000   5.572   7.514 -0.7120  1.6937  1.9770
   52CHL1   C16 3795   2.923   5.515   7.712  0.0241 -0.0985  0.4317
   52CHL1  H16A 3796   2.985   5.466   7.789  0.3306  1.1964  1.0133
   52CHL1  H16B 3797   2.914   5.622   7.737 -1.6280  0.1477 -0.9814
   52CHL1   C17 3798   2.781   5.453   7.725 -0.0367 -0.0072  0.2386
   52CHL1   H17 3799   2.700   5.520   7.689 -0.5174 -2.2784 -3.5126
   52CHL1   C13 3800   2.770   5.336   7.616  0.6640  0.2874 -0.3784
   52CHL1   C18 3801   2.852   5.200   7.664 -0.2636  0.0076 -0.2407
   52CHL1  H18A 3802   2.858   5.150   7.565  1.7600  0.5537 -0.4452
   52CHL1  H18B 3803   2.951   5.230   7.705 -0.4015 -0.5178  0.4978
   52CHL1  H18C 3804   2.796   5.145   7.742 -0.4324  0.2197 -0.2126
   52CHL1   C12 3805   2.628   5.313   7.554  0.2784 -0.0296  0.2516
   52CHL1  H12A 3806   2.551   5.256   7.610 -2.8670  1.7569 -1.9139
   52CHL1  H12B 3807   2.582   5.411   7.530  2.4872  1.2554  1.0083
   52CHL1   C11 3808   2.646   5.226   7.425  0.4622 -0.4181 -0.6511
   52CHL1  H11A 3809   2.694   5.133   7.462  0.6556  0.5398  1.6600
   52CHL1  H11B 3810   2.545   5.203   7.385 -0.3528  1.5119  0.1905
   52CHL1    C9 3811   2.745   5.292   7.320 -0.2695  0.1999  0.6031
   52CHL1    H9 3812   2.697   5.388   7.292 -2.0919 -0.0324  2.5927
   52CHL1   C10 3813   2.770   5.205   7.192  0.7521  0.7538  0.0049
   52CHL1   C19 3814   2.817   5.064   7.232 -0.4555 -0.6701 -0.4504
   52CHL1  H19A 3815   2.732   5.005   7.273 -0.2868 -0.4940  0.1617
   52CHL1  H19B 3816   2.845   5.006   7.142  0.9841  0.0381 -0.4804
   52CHL1  H19C 3817   2.904   5.069   7.301 -1.5254 -2.8696  1.1853
   52CHL1    C1 3818   2.634   5.204   7.113 -0.0972 -0.8297  0.8362
   52CHL1   H1A 3819   2.553   5.158   7.173 -1.0934 -1.0505 -0.6040
   52CHL1   H1B 3820   2.604   5.308   7.091 -1.8306 -1.4517 -0.0029
   52CHL1    C2 3821   2.647   5.140   6.973  0.4784  0.5346  0.2963
   52CHL1   H2A 3822   2.551   5.132   6.918  0.4791 -2.2390  0.5490
   52CHL1   H2B 3823   2.673   5.036   7.003 -0.9673  0.1396  0.2814
   52CHL1   C20 3824   2.748   5.409   7.867 -0.0410  0.2033 -0.0023
   52CHL1   H20 3825   2.825   5.339   7.907 -0.5025  1.5404  3.5543
   52CHL1   C21 3826   2.605   5.347   7.858  0.5117  0.2728 -0.6197
   52CHL1  H21A 3827   2.542   5.406   7.788 -1.4351 -1.2283 -0.2278
   52CHL1  H21B 3828   2.554   5.342   7.956 -0.1542 -1.9573 -1.0021
   52CHL1  H21C 3829   2.609   5.242   7.822 -0.0644 -0.3773  1.1139
   52CHL1   C22 3830   2.760   5.521   7.973 -0.0932 -0.1092 -0.4353
   52CHL1  H22A 3831   2.855   5.579   7.962 -0.2415  0.3145  0.4558
   52CHL1  H22B 3832   2.674   5.590   7.961  0.0922  0.3478  0.7273
   52CHL1   C23 3833   2.770   5.462   8.119 -0.0410  0.5111 -0.1414
   52CHL1  H23A 3834   2.690   5.389   8.145  2.1281 -2.1592 -0.4481
   52CHL1  H23B 3835   2.864   5.403   8.124 -0.7999 -0.6293  1.6749
   52CHL1   C24 3836   2.763   5.568   8.232  0.7256 -0.9382  0.5479
   52CHL1  H24A 3837   2.835   5.545   8.313 -1.8053 -0.2622  3.1804
   52CHL1  H24B 3838   2.788   5.665   8.183 -0.7713 -0.2570  1.0714
   52CHL1   C25 3839   2.616   5.597   8.292 -0.3363  1.2461 -0.4676
   52CHL1   H25 3840   2.583   5.506   8.348 -0.1062  1.4589  0.0240
   52CHL1   C26 3841   2.636   5.706   8.397  0.3682  0.1198  0.1619
   52CHL1  H26A 3842   2.542   5.731   8.451 -0.1789  0.7412 -1.0213
   52CHL1  H26B 3843   2.710   5.673   8.472 -0.8349  0.8595  1.7228
   52CHL1  H26C 3844   2.668   5.801   8.348  2.0061  0.1464  1.2159
   52CHL1   C27 3845   2.512   5.630   8.190  0.1125 -0.1933  0.7289
   52CHL1  H27A 3846   2.550   5.714   8.127  1.7780 -0.1586  1.7399
   52CHL1  H27B 3847   2.497   5.546   8.119  2.0246  1.2947 -1.6275
   52CHL1  H27C 3848   2.409   5.650   8.227  0.3795 -1.5412  2.3295
   53CHL1    C3 3849   5.247   3.762   7.163  0.2831 -0.2608  0.1830
   53CHL1    H3 3850   5.355   3.756   7.188  0.2585 -0.2344  0.3001
   53CHL1    O3 3851   5.246   3.817   7.033  0.5921 -0.4410 -0.4089
   53CHL1   H3' 3852   5.321   3.877   7.035 -0.2110  0.6623 -1.5857
   53CHL1    C4 3853   5.184   3.628   7.159  0.8564 -0.2084 -0.5250
   53CHL1   H4A 3854   5.077   3.646   7.137  0.5088  1.4127  2.0815
   53CHL1   H4B 3855   5.234   3.573   7.076 -1.1598 -2.7691 -0.1757
   53CHL1    C5 3856   5.181   3.557   7.302  0.4205 -0.3821  0.6587
   53CHL1    C6 3857   5.215   3.428   7.307  0.3847  0.0195 -0.2973
   53CHL1    H6 3858   5.250   3.372   7.219  1.0888 -1.7862  1.0625
   53CHL1    C7 3859   5.196   3.352   7.438 -0.4957  0.0326 -0.4660
   53CHL1   H7A 3860   5.159   3.248   7.424  1.7865 -1.1333  1.3692
   53CHL1   H7B 3861   5.295   3.346   7.489 -1.9681 -0.6797  2.5528
   53CHL1    C8 3862   5.122   3.435   7.541 -0.3684 -0.2053  0.0394
   53CHL1    H8 3863   5.017   3.412   7.515  0.0710 -0.0251 -2.0407
   53CHL1   C14 3864   5.146   3.378   7.679 -0.5562 -0.0845 -0.2366
   53CHL1   H14 3865   5.252   3.375   7.710 -1.1013 -1.2244  1.6834
   53CHL1   C15 3866   5.119   3.225   7.688  0.3212  0.0152  0.2364
   53CHL1  H15A 3867   5.025   3.207   7.631  0.9738  1.9643 -1.5960
   53CHL1  H15B 3868   5.206   3.169   7.647  0.9248 -0.5941  2.2475
   53CHL1   C16 3869   5.101   3.201   7.836 -0.0314 -0.6533  0.2859
   53CHL1  H16A 3870   5.001   3.158   7.857  0.2273 -1.4671 -0.1228
   53CHL1  H16B 3871   5.179   3.131   7.873  1.3774  0.3675 -0.6496
   53CHL1   C17 3872   5.119   3.349   7.901 -0.2820 -0.3053  0.3795
   53CHL1   H17 3873   5.229   3.367   7.906 -0.5484  2.3652 -1.2439
   53CHL1   C13 3874   5.076   3.446   7.795  0.2776  0.7372  0.4495
   53CHL1   C18 3875   4.924   3.442   7.766 -0.1057  0.0011 -0.1078
   53CHL1  H18A 3876   4.887   3.338   7.752 -3.1693  1.1093 -1.2421
   53CHL1  H18B 3877   4.864   3.491   7.847  1.5941 -0.4097  1.4672
   53CHL1  H18C 3878   4.899   3.494   7.671  2.8621  1.0944 -0.3799
   53CHL1   C12 3879   5.120   3.590   7.807  0.0394 -0.3580  0.0849
   53CHL1  H12A 3880   5.065   3.651   7.882 -0.0072  0.3484 -0.5229
   53CHL1  H12B 3881   5.228   3.585   7.832  0.2974 -2.0460 -1.1695
   53CHL1   C11 3882   5.113   3.673   7.667 -0.6664 -0.6337 -0.1767
   53CHL1  H11A 3883   5.007   3.702   7.650 -0.4150 -1.0678 -2.9091
   53CHL1  H11B 3884   5.177   3.762   7.687  1.2367 -1.7583 -1.0103
   53CHL1    C9 3885   5.162   3.585   7.543 -0.7402 -0.0026  0.3537
   53CHL1    H9 3886   5.273   3.581   7.556 -0.9575 -1.1892  2.2661
   53CHL1   C10 3887   5.125   3.644   7.409 -0.1215 -0.3690  0.2111
   53CHL1   C19 3888   4.968   3.654   7.399  0.1179  0.0925  0.0928
   53CHL1  H19A 3889   4.923   3.722   7.474 -0.3989 -1.3587  1.1200
   53CHL1  H19B 3890   4.927   3.694   7.303 -0.3678 -0.4260  0.0826
   53CHL1  H19C 3891   4.918   3.559   7.426  1.6121 -0.3570  1.4440
   53CHL1    C1 3892   5.185   3.798   7.403 -0.3022 -0.3503 -0.1286
   53CHL1   H1A 3893   5.134   3.870   7.471  0.1275  0.8007 -0.9961
   53CHL1   H1B 3894   5.292   3.791   7.434  0.1339  0.7568 -1.3037
   53CHL1    C2 3895   5.183   3.858   7.263  0.4141  0.3466 -0.1598
   53CHL1   H2A 3896   5.241   3.952   7.256 -0.3027  0.7071 -1.4353
   53CHL1   H2B 3897   5.077   3.875   7.236  0.1693 -1.5379 -0.5804
   53CHL1   C20 3898   5.070   3.372   8.044 -0.4135 -0.6397 -0.6074
   53CHL1   H20 3899   5.052   3.481   8.059  1.2894 -0.4862  0.5380
   53CHL1   C21 3900   5.190   3.323   8.129  0.2561 -0.0136 -0.4292
   53CHL1  H21A 3901   5.278   3.383   8.096  1.4367 -1.7830 -0.6475
   53CHL1  H21B 3902   5.211   3.214   8.122 -0.4910 -0.3981  2.1178
   53CHL1  H21C 3903   5.177   3.349   8.236 -1.8302  1.0769 -0.8918
   53CHL1   C22 3904   4.938   3.312   8.092  0.1398 -0.7149  0.1179
   53CHL1  H22A 3905   4.852   3.344   8.029 -0.2469  0.6282  1.2725
   53CHL1  H22B 3906   4.951   3.202   8.086  1.4565 -0.5494 -0.4712
   53CHL1   C23 3907   4.906   3.372   8.231 -0.1336  0.4003  0.6156
   53CHL1  H23A 3908   4.985   3.356   8.308 -0.3488  2.0362  1.2162
   53CHL1  H23B 3909   4.878   3.480   8.229  0.2310  0.5017 -0.9512
   53CHL1   C24 3910   4.781   3.308   8.299 -0.7200  0.1928 -0.1739
   53CHL1  H24A 3911   4.687   3.317   8.241 -0.9475 -0.5422  0.0748
   53CHL1  H24B 3912   4.805   3.200   8.304 -0.5707  0.1990 -0.6379
   53CHL1   C25 3913   4.756   3.352   8.444  0.2116 -0.5070 -0.1140
   53CHL1   H25 3914   4.850   3.339   8.502 -0.6624  0.7001  1.6857
   53CHL1   C26 3915   4.715   3.502   8.445  0.5128 -1.2980  0.1322
   53CHL1  H26A 3916   4.621   3.514   8.387  1.6907 -1.1942 -1.8657
   53CHL1  H26B 3917   4.697   3.537   8.549 -2.0338 -2.2952  0.0882
   53CHL1  H26C 3918   4.792   3.568   8.400 -0.1466 -0.7422 -0.1996
   53CHL1   C27 3919   4.648   3.264   8.505  0.7892  0.2452 -0.2492
   53CHL1  H27A 3920   4.659   3.153   8.505  1.1074  0.2333  1.6914
   53CHL1  H27B 3921   4.627   3.286   8.612  1.0623  1.5254 -0.4481
   53CHL1  H27C 3922   4.554   3.281   8.449  0.1209 -1.5076  0.2511
   54CHL1    C3 3923   4.681   3.970   6.991 -0.2932 -0.1556  0.3690
   54CHL1    H3 3924   4.573   3.993   6.995  0.1853  2.2903  1.4670
   54CHL1    O3 3925   4.740   3.892   6.884  0.0959 -1.1596 -0.3829
   54CHL1   H3' 3926   4.828   3.867   6.913  0.7607  0.8845 -0.4817
   54CHL1    C4 3927   4.756   4.107   7.013 -0.5285  0.0781 -0.1858
   54CHL1   H4A 3928   4.866   4.095   7.002 -0.7711 -2.2762 -0.7015
   54CHL1   H4B 3929   4.727   4.162   6.921 -0.9439 -0.2211 -0.2351
   54CHL1    C5 3930   4.728   4.177   7.139  0.1825 -0.8809 -0.6285
   54CHL1    C6 3931   4.693   4.306   7.132 -0.2691 -1.0023 -0.3022
   54CHL1    H6 3932   4.693   4.359   7.035 -2.1878  0.0291  0.2007
   54CHL1    C7 3933   4.654   4.398   7.254  0.3869  0.1330  0.1698
   54CHL1   H7A 3934   4.721   4.486   7.254 -0.1152  0.5213 -0.0620
   54CHL1   H7B 3935   4.547   4.423   7.240  0.6317  0.3216 -1.6752
   54CHL1    C8 3936   4.664   4.326   7.397  0.1126  0.5106  0.2768
   54CHL1    H8 3937   4.771   4.319   7.427  0.0042 -0.4241  0.4698
   54CHL1   C14 3938   4.582   4.396   7.505  0.9486 -0.4619  0.8111
   54CHL1   H14 3939   4.477   4.405   7.471  1.7205  0.2748 -1.6090
   54CHL1   C15 3940   4.607   4.546   7.537  0.0476  0.0386  0.5173
   54CHL1  H15A 3941   4.716   4.565   7.546 -0.2621  3.2286 -0.9024
   54CHL1  H15B 3942   4.566   4.609   7.455 -1.4556 -1.0314  0.3974
   54CHL1   C16 3943   4.529   4.561   7.668  0.4156  0.4342 -0.6812
   54CHL1  H16A 3944   4.595   4.622   7.733 -2.5415  2.8324  0.2700
   54CHL1  H16B 3945   4.431   4.607   7.646 -0.5850 -1.4186 -0.3438
   54CHL1   C17 3946   4.502   4.418   7.731  0.5240 -0.4460 -0.3573
   54CHL1   H17 3947   4.395   4.406   7.703 -0.2076  3.0806  0.4334
   54CHL1   C13 3948   4.582   4.325   7.638  0.6245  0.3004  0.3521
   54CHL1   C18 3949   4.727   4.323   7.692 -0.0953  0.3551 -0.1087
   54CHL1  H18A 3950   4.766   4.427   7.700 -1.0794  1.0274 -2.9306
   54CHL1  H18B 3951   4.727   4.256   7.781  0.6910 -2.3021 -1.9883
   54CHL1  H18C 3952   4.789   4.270   7.617  1.0980  1.5388 -0.0021
   54CHL1   C12 3953   4.521   4.181   7.615 -0.4048 -0.2363  0.1726
   54CHL1  H12A 3954   4.519   4.127   7.712  1.5073 -1.4263 -0.3893
   54CHL1  H12B 3955   4.413   4.185   7.592 -0.5890  0.2463  1.0585
   54CHL1   C11 3956   4.593   4.104   7.501 -0.1605 -0.5063 -0.3909
   54CHL1  H11A 3957   4.694   4.079   7.540  1.0366  1.7181 -1.7714
   54CHL1  H11B 3958   4.534   4.011   7.486 -1.9352  0.0737  2.3764
   54CHL1    C9 3959   4.621   4.179   7.368 -0.5463 -0.3998  0.1305
   54CHL1    H9 3960   4.521   4.184   7.320 -0.8873 -2.3816  0.5414
   54CHL1   C10 3961   4.707   4.092   7.267  0.2602  0.7621  0.1863
   54CHL1   C19 3962   4.844   4.068   7.335 -0.3743  0.2925  0.2199
   54CHL1  H19A 3963   4.917   4.034   7.258 -0.5586 -3.9250  1.6014
   54CHL1  H19B 3964   4.878   4.160   7.386 -1.8596  1.1749 -0.3284
   54CHL1  H19C 3965   4.829   3.983   7.405  0.3184 -0.2053 -0.2227
   54CHL1    C1 3966   4.629   3.962   7.228 -0.3753  0.1803 -0.3904
   54CHL1   H1A 3967   4.627   3.897   7.318  1.4527  1.4862  0.6521
   54CHL1   H1B 3968   4.523   3.985   7.208 -0.7605 -0.8114  0.4118
   54CHL1    C2 3969   4.694   3.882   7.119 -0.3855  0.1454  0.3582
   54CHL1   H2A 3970   4.629   3.794   7.100  0.1437  0.0312 -1.0968
   54CHL1   H2B 3971   4.801   3.859   7.138 -0.2587 -1.7192 -2.0636
   54CHL1   C20 3972   4.511   4.413   7.885  0.1095  0.1467  0.7438
   54CHL1   H20 3973   4.619   4.407   7.910  0.5209  0.5347 -0.8570
   54CHL1   C21 3974   4.452   4.272   7.926  0.8824 -0.7239 -0.1725
   54CHL1  H21A 3975   4.532   4.196   7.912  0.1831 -1.4903 -0.0911
   54CHL1  H21B 3976   4.361   4.243   7.869  0.3503 -1.2147  0.9101
   54CHL1  H21C 3977   4.425   4.277   8.033  3.2598 -0.5821  0.4869
   54CHL1   C22 3978   4.445   4.525   7.970 -0.3151 -0.3043 -0.1922
   54CHL1  H22A 3979   4.471   4.626   7.930  0.4490 -1.6475 -3.4428
   54CHL1  H22B 3980   4.338   4.500   7.985  0.1406 -0.8463  2.6436
   54CHL1   C23 3981   4.508   4.515   8.114 -0.2409  0.2500  0.0559
   54CHL1  H23A 3982   4.528   4.409   8.142 -2.1849 -0.6048 -1.5515
   54CHL1  H23B 3983   4.610   4.561   8.114 -0.2222  0.2145 -0.5304
   54CHL1   C24 3984   4.422   4.594   8.219 -0.7223  0.1838 -0.2451
   54CHL1  H24A 3985   4.434   4.701   8.191 -0.3867  0.3415  0.4655
   54CHL1  H24B 3986   4.316   4.561   8.223 -0.8763  0.7758  0.9303
   54CHL1   C25 3987   4.473   4.596   8.362 -0.3011 -0.2084 -0.1354
   54CHL1   H25 3988   4.401   4.660   8.417  1.2867  1.8245 -0.2999
   54CHL1   C26 3989   4.474   4.457   8.424 -0.2632  0.2267  0.4164
   54CHL1  H26A 3990   4.496   4.454   8.533 -2.2143  1.2561  0.8938
   54CHL1  H26B 3991   4.376   4.408   8.406 -0.0770  0.7915 -2.6705
   54CHL1  H26C 3992   4.536   4.387   8.364 -2.0004 -0.5653 -0.5197
   54CHL1   C27 3993   4.605   4.672   8.360 -0.8865  0.3385  0.1895
   54CHL1  H27A 3994   4.644   4.679   8.464 -0.4587  0.3888  0.0271
   54CHL1  H27B 3995   4.688   4.640   8.294 -1.3444 -0.0503 -0.2132
   54CHL1  H27C 3996   4.592   4.775   8.322 -1.0207  1.2956  2.6678
   55CHL1    C3 3997   4.756   6.147   6.844  0.1249 -0.1264 -0.0348
   55CHL1    H3 3998   4.850   6.094   6.819  1.8272  2.2406  1.0479
   55CHL1    O3 3999   4.691   6.171   6.721 -1.0049  0.4578  0.7348
   55CHL1   H3' 4000   4.628   6.239   6.744 -1.3522  0.5033 -0.3090
   55CHL1    C4 4001   4.665   6.061   6.930 -0.9837  0.7402 -0.4423
   55CHL1   H4A 4002   4.559   6.094   6.941 -1.7714 -1.7023 -0.1668
   55CHL1   H4B 4003   4.652   5.962   6.882  0.3537  0.9942 -1.3858
   55CHL1    C5 4004   4.727   6.047   7.066  0.3342 -0.3539  0.3090
   55CHL1    C6 4005   4.743   5.924   7.121 -0.8763  0.3673 -0.0376
   55CHL1    H6 4006   4.720   5.830   7.067 -0.9802 -0.6821  1.7652
   55CHL1    C7 4007   4.795   5.901   7.260  0.5411 -0.1195  0.0637
   55CHL1   H7A 4008   4.738   5.814   7.299  0.6371 -0.0057  0.4652
   55CHL1   H7B 4009   4.901   5.867   7.262  1.1498  1.6860  1.4202
   55CHL1    C8 4010   4.782   6.025   7.351  0.0752  0.4729  0.0802
   55CHL1    H8 4011   4.676   6.037   7.383 -0.9633 -1.5237 -2.2680
   55CHL1   C14 4012   4.871   6.005   7.479  0.5077 -0.4544  0.3156
   55CHL1   H14 4013   4.972   6.002   7.433 -0.2734  1.4360 -1.7707
   55CHL1   C15 4014   4.851   5.879   7.567 -0.5152  0.5634  1.1801
   55CHL1  H15A 4015   4.743   5.857   7.580 -0.5322 -0.9313 -0.9186
   55CHL1  H15B 4016   4.894   5.790   7.516 -0.2496  1.4038 -0.1102
   55CHL1   C16 4017   4.931   5.907   7.695 -0.1953 -0.2253  0.1067
   55CHL1  H16A 4018   4.866   5.900   7.784  1.9434  1.0512  1.8933
   55CHL1  H16B 4019   5.020   5.842   7.714  1.1640  1.9471  1.6684
   55CHL1   C17 4020   4.972   6.064   7.682  0.3818  0.3866  0.0738
   55CHL1   H17 4021   5.070   6.068   7.630  0.4414  1.0625  0.2317
   55CHL1   C13 4022   4.873   6.124   7.577 -0.0168  0.1975  0.1538
   55CHL1   C18 4023   4.734   6.139   7.639  0.0425 -0.2220  0.3631
   55CHL1  H18A 4024   4.662   6.144   7.555  0.5244 -1.1100 -0.1163
   55CHL1  H18B 4025   4.707   6.052   7.703  0.1179  0.0666  0.7955
   55CHL1  H18C 4026   4.725   6.237   7.691 -0.2788 -0.1800  0.2312
   55CHL1   C12 4027   4.925   6.247   7.507 -0.0290  0.2488 -0.7529
   55CHL1  H12A 4028   4.920   6.346   7.557 -1.9775 -0.4881  0.6631
   55CHL1  H12B 4029   5.034   6.239   7.488  0.7999  1.8483  2.5302
   55CHL1   C11 4030   4.850   6.267   7.372 -0.0327  0.0822  0.2748
   55CHL1  H11A 4031   4.750   6.307   7.400 -0.8098 -0.2441 -1.8663
   55CHL1  H11B 4032   4.897   6.351   7.318  0.9966 -0.5420  0.1723
   55CHL1    C9 4033   4.829   6.144   7.280 -0.1270 -0.6854  0.6307
   55CHL1    H9 4034   4.930   6.112   7.244 -0.0246 -1.1143  1.2839
   55CHL1   C10 4035   4.752   6.169   7.149 -0.2024 -0.3860 -0.1336
   55CHL1   C19 4036   4.617   6.239   7.170 -0.0677 -0.6538 -0.0919
   55CHL1  H19A 4037   4.555   6.173   7.234  0.5686 -2.6012 -1.3901
   55CHL1  H19B 4038   4.633   6.332   7.228  0.7018 -1.8577  1.7196
   55CHL1  H19C 4039   4.566   6.263   7.074 -2.9833 -0.1888  1.4737
   55CHL1    C1 4040   4.842   6.261   7.060 -0.4881 -0.3439  0.8695
   55CHL1   H1A 4041   4.850   6.358   7.114  2.1358 -0.2739  0.5067
   55CHL1   H1B 4042   4.947   6.225   7.064  1.0800  3.7402  0.9507
   55CHL1    C2 4043   4.796   6.279   6.910 -0.0025 -0.0002 -0.4360
   55CHL1   H2A 4044   4.881   6.321   6.852  1.1389 -0.6785  0.7013
   55CHL1   H2B 4045   4.710   6.350   6.906  0.3712  0.8315  2.9499
   55CHL1   C20 4046   4.989   6.132   7.819 -0.2232 -0.3574 -0.4985
   55CHL1   H20 4047   4.893   6.117   7.872  0.2421  0.1092  0.5070
   55CHL1   C21 4048   4.997   6.286   7.810 -0.2596 -0.0171 -0.1560
   55CHL1  H21A 4049   4.896   6.324   7.784  0.1931 -0.6361 -3.2812
   55CHL1  H21B 4050   5.057   6.329   7.727  0.0181 -1.6425 -0.8442
   55CHL1  H21C 4051   5.012   6.329   7.911  1.2639  1.9187 -1.1553
   55CHL1   C22 4052   5.102   6.075   7.909 -1.3677  0.2272  0.2730
   55CHL1  H22A 4053   5.181   6.039   7.839 -0.6558  1.5256  0.3770
   55CHL1  H22B 4054   5.160   6.143   7.974  0.2367 -1.5452  0.7801
   55CHL1   C23 4055   5.065   5.957   8.004  0.1912  0.0196 -0.1274
   55CHL1  H23A 4056   4.974   5.979   8.062 -0.7801  1.8010 -2.1596
   55CHL1  H23B 4057   5.037   5.869   7.943  0.3724  0.0630 -0.2753
   55CHL1   C24 4058   5.177   5.930   8.099  0.7297  0.3490  0.0837
   55CHL1  H24A 4059   5.269   5.934   8.038  0.1951 -1.5601 -0.9393
   55CHL1  H24B 4060   5.189   6.021   8.161 -0.4992  1.2100 -0.8873
   55CHL1   C25 4061   5.175   5.803   8.185 -0.4943 -0.9123  0.1336
   55CHL1   H25 4062   5.272   5.792   8.238  0.5583  2.1219 -0.9578
   55CHL1   C26 4063   5.065   5.811   8.299  0.2221 -0.4888  0.5843
   55CHL1  H26A 4064   5.067   5.718   8.361  0.9086 -0.4840  0.5803
   55CHL1  H26B 4065   5.094   5.891   8.370  1.0412  0.2523 -0.5585
   55CHL1  H26C 4066   4.966   5.818   8.250  1.7401 -1.7109 -3.0157
   55CHL1   C27 4067   5.167   5.667   8.104  0.6811  0.5062 -0.5360
   55CHL1  H27A 4068   5.070   5.659   8.050 -0.2081 -2.5067  1.2250
   55CHL1  H27B 4069   5.254   5.659   8.036  1.3461 -1.2306  0.4328
   55CHL1  H27C 4070   5.177   5.584   8.177  0.4079  0.8691 -0.0815
   56CHL1    C3 4071   2.667   3.333   6.963  0.6113  0.6525 -0.1721
   56CHL1    H3 4072   2.593   3.416   6.963 -1.6153 -1.1676  2.1532
   56CHL1    O3 4073   2.726   3.306   6.839 -0.5069  0.0331  0.6191
   56CHL1   H3' 4074   2.699   3.375   6.777  3.0378  1.8965  0.8925
   56CHL1    C4 4075   2.773   3.364   7.071 -0.1107 -0.3666  0.0070
   56CHL1   H4A 4076   2.835   3.272   7.067 -0.3620 -0.5329 -0.0882
   56CHL1   H4B 4077   2.839   3.449   7.042 -0.8907 -0.4052 -2.0382
   56CHL1    C5 4078   2.717   3.382   7.208 -0.3336  0.0001  0.1364
   56CHL1    C6 4079   2.717   3.497   7.269  0.3942  0.1491 -0.2895
   56CHL1    H6 4080   2.759   3.585   7.218  0.7089  0.1957  0.0418
   56CHL1    C7 4081   2.667   3.519   7.409  0.0668 -0.2763 -0.0489
   56CHL1   H7A 4082   2.744   3.571   7.469  1.2646  1.2721 -2.7633
   56CHL1   H7B 4083   2.574   3.580   7.414  0.4644  0.2154  1.7711
   56CHL1    C8 4084   2.637   3.382   7.487 -0.5857  0.1360  0.3005
   56CHL1    H8 4085   2.733   3.338   7.521 -0.6275  1.1948  1.9153
   56CHL1   C14 4086   2.551   3.407   7.607 -0.3276  0.4742 -0.6636
   56CHL1   H14 4087   2.453   3.442   7.569 -0.3412  0.6175 -0.4962
   56CHL1   C15 4088   2.601   3.520   7.694 -0.1647  0.4466 -0.8407
   56CHL1  H15A 4089   2.708   3.499   7.718 -0.1107  1.2681 -0.3338
   56CHL1  H15B 4090   2.589   3.625   7.659  1.1686  1.3372  1.1429
   56CHL1   C16 4091   2.511   3.504   7.821 -0.1388  0.3024  0.5917
   56CHL1  H16A 4092   2.572   3.513   7.913 -2.2293 -0.4368  2.1452
   56CHL1  H16B 4093   2.423   3.572   7.823  0.2076  1.0135 -2.7471
   56CHL1   C17 4094   2.453   3.355   7.819  0.0412  0.0955  0.2042
   56CHL1   H17 4095   2.348   3.374   7.788 -0.3927  0.8846  2.0527
   56CHL1   C13 4096   2.517   3.284   7.699  0.0852 -0.7649  0.4036
   56CHL1   C18 4097   2.640   3.214   7.754  0.3017  0.4035  0.3043
   56CHL1  H18A 4098   2.686   3.164   7.666  1.8607 -0.3721  1.5149
   56CHL1  H18B 4099   2.710   3.284   7.803 -1.7174  1.9418  1.0924
   56CHL1  H18C 4100   2.611   3.127   7.816 -1.9026 -1.2296 -2.6996
   56CHL1   C12 4101   2.433   3.188   7.608 -0.1314  0.0677 -0.1996
   56CHL1  H12A 4102   2.405   3.091   7.653 -1.9862  0.9986  0.7863
   56CHL1  H12B 4103   2.334   3.233   7.585 -0.0072 -0.1517 -1.1920
   56CHL1   C11 4104   2.503   3.161   7.477  0.0836 -0.0060  0.0900
   56CHL1  H11A 4105   2.585   3.091   7.503 -0.0612  0.5350  2.2092
   56CHL1  H11B 4106   2.435   3.102   7.412 -3.2827  1.3226  2.1646
   56CHL1    C9 4107   2.556   3.285   7.393 -0.3386  0.1955  0.0711
   56CHL1    H9 4108   2.469   3.339   7.350  0.8532  0.1514 -2.5515
   56CHL1   C10 4109   2.634   3.256   7.261 -0.5774 -0.4385 -0.7641
   56CHL1   C19 4110   2.743   3.144   7.279  0.1985 -0.6341 -0.2349
   56CHL1  H19A 4111   2.812   3.177   7.360 -1.3457  2.5557 -0.0657
   56CHL1  H19B 4112   2.705   3.041   7.298  0.4816 -0.4487  1.5669
   56CHL1  H19C 4113   2.797   3.121   7.185  2.9697  1.1186  0.8126
   56CHL1    C1 4114   2.535   3.214   7.149  0.0283  0.4680  0.1632
   56CHL1   H1A 4115   2.491   3.115   7.175 -2.3666  0.6612 -2.6063
   56CHL1   H1B 4116   2.450   3.284   7.137  0.6833  0.9986 -1.9929
   56CHL1    C2 4117   2.588   3.208   7.002  0.0184 -0.3083  0.0380
   56CHL1   H2A 4118   2.505   3.196   6.928  1.8513  0.8074 -2.3465
   56CHL1   H2B 4119   2.664   3.127   6.997  0.6049  0.2687 -3.7766
   56CHL1   C20 4120   2.440   3.292   7.960 -0.2049 -0.0296  0.2347
   56CHL1   H20 4121   2.544   3.271   7.993 -0.5625 -0.4632  1.1179
   56CHL1   C21 4122   2.360   3.162   7.946  0.1248 -0.0773 -0.2824
   56CHL1  H21A 4123   2.406   3.090   7.875 -1.0090  0.1398 -1.2725
   56CHL1  H21B 4124   2.256   3.170   7.908  0.2716 -0.0483 -0.6794
   56CHL1  H21C 4125   2.352   3.113   8.046 -0.3630 -1.2606 -0.8874
   56CHL1   C22 4126   2.385   3.388   8.065  0.3240 -0.4901 -0.6677
   56CHL1  H22A 4127   2.417   3.494   8.074 -0.1856 -0.4466  0.9059
   56CHL1  H22B 4128   2.277   3.394   8.037  0.1674  2.0543  0.2553
   56CHL1   C23 4129   2.391   3.330   8.203  0.0445 -0.4201  0.6282
   56CHL1  H23A 4130   2.340   3.231   8.197 -2.9348  0.9141  1.9300
   56CHL1  H23B 4131   2.500   3.312   8.216  0.8567  2.3986 -1.5089
   56CHL1   C24 4132   2.335   3.424   8.307 -0.6213  0.3127  0.7529
   56CHL1  H24A 4133   2.391   3.518   8.285  2.0052 -1.3591 -0.1582
   56CHL1  H24B 4134   2.228   3.440   8.284 -0.5982  1.3603  1.3395
   56CHL1   C25 4135   2.363   3.384   8.450 -0.6518  0.4353 -0.1299
   56CHL1   H25 4136   2.472   3.369   8.467 -0.5261 -0.7696 -1.7718
   56CHL1   C26 4137   2.328   3.500   8.541  0.2144 -0.3572 -0.9377
   56CHL1  H26A 4138   2.223   3.529   8.519  0.1346 -0.6814 -0.9875
   56CHL1  H26B 4139   2.396   3.585   8.523 -0.4576  0.0183 -1.7581
   56CHL1  H26C 4140   2.328   3.469   8.648  2.6397 -0.5404 -0.9488
   56CHL1   C27 4141   2.280   3.261   8.489 -0.3362  0.2345  0.0559
   56CHL1  H27A 4142   2.289   3.237   8.597 -0.8651  1.8885  0.4944
   56CHL1  H27B 4143   2.171   3.278   8.483 -0.4575 -0.2408  0.8113
   56CHL1  H27C 4144   2.300   3.170   8.429  1.4226 -0.0434  0.9874
   57SAPC     N 4145   4.114   6.031  10.919  0.2424  0.0240 -0.2940
   57SAPC   C12 4146   4.075   6.058  10.771 -0.7953 -0.1002 -0.2430
   57SAPC  H12A 4147   4.147   6.000  10.716  0.3665 -0.1035  1.2134
   57SAPC  H12B 4148   4.083   6.162  10.745 -1.4109  0.4070  1.4534
   57SAPC   C13 4149   4.013   6.091  11.021 -0.0333 -0.4519 -0.2141
   57SAPC  H13A 4150   3.981   6.182  10.974  1.1577  1.0776  1.7821
   57SAPC  H13B 4151   3.927   6.026  11.025 -1.1120  0.8697 -1.1259
   57SAPC  H13C 4152   4.048   6.097  11.123  1.0759  0.0749 -0.6079
   57SAPC   C14 4153   4.133   5.887  10.940  0.1203 -0.0561  0.2187
   57SAPC  H14A 4154   4.205   5.848  10.869  0.1257  1.5421 -0.7097
   57SAPC  H14B 4155   4.169   5.855  11.037  1.5335 -2.1415 -0.9213
   57SAPC  H14C 4156   4.039   5.837  10.918  0.6857 -0.2438 -2.0273
   57SAPC   C15 4157   4.245   6.093  10.954  0.2287  0.1144  0.0673
   57SAPC  H15A 4158   4.255   6.200  10.963  0.3609 -0.0252  2.0153
   57SAPC  H15B 4159   4.278   6.045  11.045 -1.6738  1.7358  1.6993
   57SAPC  H15C 4160   4.319   6.071  10.878  0.3112 -0.1283  0.2172
   57SAPC   C11 4161   3.924   6.022  10.722  0.0561 -0.1505  0.3943
   57SAPC  H11A 4162   3.920   5.911  10.726  1.4935 -0.1943  1.4764
   57SAPC  H11B 4163   3.913   6.040  10.613 -0.9904  0.3940  0.5865
   57SAPC     P 4164   3.778   6.222  10.771  0.0973 -0.2155  0.1328
   57SAPC   O13 4165   3.641   6.244  10.826 -0.4444  0.0919  0.5768
   57SAPC   O14 4166   3.874   6.322  10.817  0.8199  0.2815 -0.2492
   57SAPC   O12 4167   3.824   6.069  10.801  0.1710 -0.6182  0.2007
   57SAPC   O11 4168   3.768   6.230  10.612  0.4494  0.2999 -0.6503
   57SAPC    C1 4169   3.869   6.288  10.529 -0.0457 -0.1137 -0.2453
   57SAPC    HA 4170   3.966   6.288  10.582  0.0385 -0.8753 -0.3888
   57SAPC    HB 4171   3.875   6.220  10.441  0.3389  0.4993 -0.6941
   57SAPC    C2 4172   3.827   6.426  10.478 -0.5828  0.3626  0.6587
   57SAPC    HS 4173   3.792   6.488  10.563  2.0878  2.4669  0.3655
   57SAPC   O21 4174   3.729   6.408  10.378 -0.3592  0.4444  0.6278
   57SAPC   C21 4175   3.677   6.513  10.315 -0.3829 -0.4228 -0.2131
   57SAPC   O22 4176   3.675   6.631  10.340  0.4726  0.0973  0.0779
   57SAPC   C22 4177   3.616   6.449  10.193  0.0403  0.1156  1.0299
   57SAPC   H2R 4178   3.668   6.355  10.164 -2.9356 -2.2680  2.8088
   57SAPC   H2S 4179   3.509   6.421  10.200  0.3364 -1.6226 -0.5593
   57SAPC    C3 4180   3.947   6.507  10.420  0.0588  0.4161 -0.3997
   57SAPC    HX 4181   4.033   6.467  10.478 -1.9111 -0.6405  2.0077
   57SAPC    HY 4182   3.944   6.617  10.437  0.9219  0.5700 -1.2080
   57SAPC   O31 4183   3.976   6.472  10.281  0.2818  0.4074  0.6122
   57SAPC   C31 4184   4.068   6.550  10.223 -0.2803  0.1940 -0.9825
   57SAPC   O32 4185   4.111   6.652  10.271  0.0576  0.0827  0.0089
   57SAPC   C32 4186   4.111   6.497  10.093 -0.1885 -0.3245 -0.0375
   57SAPC   H2X 4187   4.036   6.440  10.034  0.9213 -0.4894 -1.3412
   57SAPC   H2Y 4188   4.200   6.432  10.110  0.7517  1.3980  2.3025
   57SAPC   C23 4189   3.619   6.553  10.073 -0.3736 -0.3308 -0.1725
   57SAPC   H3R 4190   3.723   6.569  10.037 -1.1556  1.0965 -2.0054
   57SAPC   H3S 4191   3.581   6.648  10.117 -1.3703 -0.1195 -1.4371
   57SAPC   C24 4192   3.535   6.513   9.953  0.0564  0.2536 -0.2756
   57SAPC   H4R 4193   3.539   6.591   9.873 -2.4899 -0.4959 -1.2238
   57SAPC   H4S 4194   3.430   6.504   9.987  0.0414  1.4388  0.0413
   57SAPC   C25 4195   3.587   6.389   9.889  0.5008  0.4051 -0.1378
   57SAPC   H5R 4196   3.608   6.302   9.953 -1.9993 -1.3832 -1.6143
   57SAPC   C26 4197   3.604   6.370   9.758 -1.0408  0.3601 -0.6254
   57SAPC   H6R 4198   3.648   6.274   9.728 -0.6328  0.0956  0.7305
   57SAPC   C27 4199   3.582   6.468   9.644  0.0112  0.5337 -0.2192
   57SAPC   H7R 4200   3.615   6.569   9.676  2.9766  0.1457 -1.7165
   57SAPC   H7S 4201   3.473   6.467   9.622 -0.1315 -0.7249  0.4786
   57SAPC   C28 4202   3.643   6.433   9.512 -0.8174 -0.5306  0.5683
   57SAPC   H8R 4203   3.753   6.435   9.518 -0.8819 -0.2327  4.2843
   57SAPC   C29 4204   3.591   6.416   9.390  0.4186  0.1542  0.6523
   57SAPC   H9R 4205   3.652   6.402   9.300 -3.1358 -2.2493 -1.6780
   57SAPC  C210 4206   3.444   6.425   9.347 -0.0200  0.5425  0.9578
   57SAPC  H10R 4207   3.386   6.360   9.416 -1.2598  2.2643  1.5947
   57SAPC  H10S 4208   3.429   6.392   9.242  2.1615  3.1114 -0.2528
   57SAPC  C211 4209   3.388   6.563   9.359 -0.2215  0.3635 -0.4790
   57SAPC  H11R 4210   3.401   6.603   9.461 -0.2387 -0.3979 -0.1726
   57SAPC  C212 4211   3.335   6.647   9.273  0.6990 -0.0010  1.0207
   57SAPC  H12R 4212   3.305   6.747   9.308 -1.6376 -0.7865  1.4640
   57SAPC  C213 4213   3.312   6.620   9.125 -0.3588  0.4571 -0.2936
   57SAPC  H13R 4214   3.202   6.616   9.109 -0.6034 -0.2769  1.3918
   57SAPC  H13S 4215   3.359   6.525   9.095 -0.8768 -0.4841  1.7096
   57SAPC  C214 4216   3.392   6.719   9.041 -0.0114 -0.5714  0.2411
   57SAPC  H14R 4217   3.499   6.726   9.067  0.1849 -0.3207 -0.6308
   57SAPC  C215 4218   3.347   6.800   8.941 -0.6398  1.2311 -0.0639
   57SAPC  H15R 4219   3.410   6.862   8.875  0.7619 -0.5678 -0.5226
   57SAPC  C216 4220   3.208   6.803   8.885  0.3553  0.2350  0.8954
   57SAPC  H16R 4221   3.166   6.906   8.891 -1.9305 -0.6118  0.5689
   57SAPC  H16S 4222   3.137   6.743   8.945 -2.1592  1.1015 -1.0323
   57SAPC  C217 4223   3.197   6.747   8.740  0.2726 -0.2396 -0.6135
   57SAPC  H17R 4224   3.235   6.642   8.745 -0.6786 -0.5901 -0.6119
   57SAPC  H17S 4225   3.271   6.811   8.688 -2.6277  1.7137 -2.6018
   57SAPC  C218 4226   3.054   6.752   8.676 -0.2887 -0.2082 -0.3984
   57SAPC  H18R 4227   3.006   6.850   8.700  0.7696  0.4680 -0.9624
   57SAPC  H18S 4228   2.993   6.672   8.724  0.0227 -1.0200 -1.3463
   57SAPC  C219 4229   3.054   6.731   8.530  0.2696 -0.1767 -0.2165
   57SAPC  H19R 4230   3.112   6.644   8.493  0.7207  0.3295 -0.7128
   57SAPC  H19S 4231   3.085   6.818   8.469 -2.4637 -0.6893 -2.6175
   57SAPC  C220 4232   2.903   6.721   8.503  0.0349  0.0925 -0.0060
   57SAPC  H20R 4233   2.856   6.813   8.544 -0.2937 -0.9857  2.1519
   57SAPC  H20S 4234   2.846   6.646   8.561  0.1841  1.0529  1.4230
   57SAPC  H20T 4235   2.875   6.703   8.397  0.8313 -2.1943  0.1163
   57SAPC   C33 4236   4.167   6.627  10.015  0.4426 -0.8195 -0.4446
   57SAPC   H3X 4237   4.241   6.685  10.074 -1.5082  0.9908  0.3560
   57SAPC   H3Y 4238   4.089   6.702   9.992 -0.2968 -1.9500 -1.8006
   57SAPC   C34 4239   4.226   6.577   9.881 -0.6059 -0.4825 -0.6025
   57SAPC   H4X 4240   4.183   6.482   9.843 -0.0741 -0.5531 -1.0429
   57SAPC   H4Y 4241   4.332   6.549   9.903 -0.2296  1.0983 -0.3315
   57SAPC   C35 4242   4.214   6.681   9.773 -0.3770 -0.2294  0.1865
   57SAPC   H5X 4243   4.272   6.762   9.822 -1.2897 -0.3954  1.6244
   57SAPC   H5Y 4244   4.110   6.719   9.770  0.8237  3.3111 -1.3769
   57SAPC   C36 4245   4.271   6.654   9.635 -0.0802  0.5209 -0.3624
   57SAPC   H6X 4246   4.348   6.576   9.659  0.1017 -0.1536 -2.8361
   57SAPC   H6Y 4247   4.307   6.747   9.587  0.9722 -0.8560 -2.4179
   57SAPC   C37 4248   4.161   6.592   9.542 -0.5096  0.9499 -0.2099
   57SAPC   H7X 4249   4.093   6.680   9.543  0.1144  1.4705  2.3962
   57SAPC   H7Y 4250   4.100   6.509   9.585 -0.0790  0.6709 -0.1293
   57SAPC   C38 4251   4.223   6.551   9.403 -0.3302  0.5503 -0.9161
   57SAPC   H8X 4252   4.289   6.464   9.421  0.4307  0.8867 -1.9618
   57SAPC   H8Y 4253   4.288   6.636   9.372 -1.9493  1.5842 -1.6247
   57SAPC   C39 4254   4.120   6.519   9.293  0.7197  0.4593 -0.7549
   57SAPC   H9X 4255   4.043   6.599   9.300  2.0090  1.6649  0.4969
   57SAPC   H9Y 4256   4.080   6.419   9.320  1.1445  1.3149  3.8773
   57SAPC  C310 4257   4.182   6.529   9.153  1.1696 -0.3185  0.7118
   57SAPC  H10X 4258   4.238   6.437   9.127 -0.0096 -1.4698  2.0943
   57SAPC  H10Y 4259   4.241   6.620   9.129 -0.6198  0.6679 -0.2064
   57SAPC  C311 4260   4.066   6.540   9.041  0.1895 -0.5986  0.6045
   57SAPC  H11X 4261   4.112   6.554   8.941 -2.6364  2.9267 -0.4285
   57SAPC  H11Y 4262   4.002   6.627   9.067  0.4411 -0.7485  1.8029
   57SAPC  C312 4263   3.966   6.423   9.046  0.6759 -0.3911 -0.5041
   57SAPC  H12X 4264   3.908   6.419   9.141 -0.6089 -0.5626 -1.2660
   57SAPC  H12Y 4265   4.021   6.327   9.037  0.5182 -0.6404  0.9642
   57SAPC  C313 4266   3.859   6.434   8.942 -0.0896 -0.4614  1.0821
   57SAPC  H13X 4267   3.907   6.434   8.841  0.4028 -1.2975  1.3051
   57SAPC  H13Y 4268   3.807   6.531   8.959  0.3168 -0.2771  1.2909
   57SAPC  C314 4269   3.747   6.322   8.948 -0.5722 -0.1046  0.0076
   57SAPC  H14X 4270   3.745   6.299   9.057  0.7083 -1.1647 -0.1562
   57SAPC  H14Y 4271   3.791   6.235   8.894  1.6284  2.1997 -2.1406
   57SAPC  C315 4272   3.616   6.372   8.908 -0.2260 -0.7484 -0.2990
   57SAPC  H15X 4273   3.596   6.462   8.969  0.7153 -0.0901 -0.9342
   57SAPC  H15Y 4274   3.538   6.295   8.930 -0.5111 -0.0076  1.4067
   57SAPC  C316 4275   3.613   6.427   8.764 -0.6711  0.2257 -1.0318
   57SAPC  H16X 4276   3.634   6.341   8.697 -1.0607  0.9381 -2.1089
   57SAPC  H16Y 4277   3.684   6.510   8.744  1.0548 -1.2484 -1.2251
   57SAPC  C317 4278   3.480   6.493   8.727 -0.4791  0.2328 -0.0386
   57SAPC  H17X 4279   3.454   6.574   8.799  1.2818  1.4131 -0.6542
   57SAPC  H17Y 4280   3.400   6.417   8.739  0.8446 -1.0027  1.1995
   57SAPC  C318 4281   3.468   6.554   8.587 -0.3302 -0.2509  0.0323
   57SAPC  H18X 4282   3.367   6.568   8.541 -0.2323 -0.8181 -0.3599
   57SAPC  H18Y 4283   3.527   6.485   8.523  2.1292  1.5480  0.1883
   57SAPC  H18Z 4284   3.530   6.647   8.586  0.3394 -0.6896 -0.9195
   58SAPC     N 4285   5.281   4.123  10.840 -0.1118  0.4127 -0.3189
   58SAPC   C12 4286   5.241   4.205  10.711  0.2195  0.4036 -1.2533
   58SAPC  H12A 4287   5.294   4.299  10.704  0.2938  0.4802  0.0488
   58SAPC  H12B 4288   5.137   4.233  10.719  0.7104  2.7741 -2.2996
   58SAPC   C13 4289   5.227   4.193  10.963  0.0201 -0.2645  0.5416
   58SAPC  H13A 4290   5.249   4.132  11.049  0.6663 -0.0446  0.5414
   58SAPC  H13B 4291   5.266   4.290  10.988 -1.1605  0.4047 -0.0998
   58SAPC  H13C 4292   5.121   4.205  10.951 -0.3320 -2.3437  1.1987
   58SAPC   C14 4293   5.215   3.984  10.838  0.3227  0.4791 -0.0924
   58SAPC  H14A 4294   5.226   3.934  10.743 -1.3839  1.2951 -0.7669
   58SAPC  H14B 4295   5.269   3.926  10.911  1.6777  2.8803  0.9232
   58SAPC  H14C 4296   5.108   3.969  10.845  0.0314  1.6052 -1.5250
   58SAPC   C15 4297   5.429   4.097  10.851 -0.1644  0.3999  0.2446
   58SAPC  H15A 4298   5.458   4.054  10.756 -1.0731  2.4797 -1.0288
   58SAPC  H15B 4299   5.483   4.186  10.880 -0.5040  1.0954 -1.1923
   58SAPC  H15C 4300   5.438   4.028  10.934 -2.0638  0.1209  0.2606
   58SAPC   C11 4301   5.255   4.146  10.571  0.2304 -0.1599 -0.1844
   58SAPC  H11A 4302   5.200   4.212  10.500 -0.1889  0.4516  0.6939
   58SAPC  H11B 4303   5.212   4.044  10.581  2.8889 -1.3049  0.2978
   58SAPC     P 4304   5.453   4.209  10.423 -0.0872  0.0964  0.1097
   58SAPC   O13 4305   5.471   4.355  10.447 -0.2487  0.8610 -0.0056
   58SAPC   O14 4306   5.569   4.133  10.378 -0.3115 -0.1691 -0.8543
   58SAPC   O12 4307   5.396   4.132  10.549 -0.5378  0.5421 -0.6371
   58SAPC   O11 4308   5.337   4.189  10.315 -0.3769 -0.0536  0.7180
   58SAPC    C1 4309   5.306   4.058  10.265 -0.3382 -0.1154 -0.1095
   58SAPC    HA 4310   5.393   4.016  10.211 -0.2425 -0.8560  0.5967
   58SAPC    HB 4311   5.262   3.985  10.337  1.0588  0.7498  1.6867
   58SAPC    C2 4312   5.201   4.078  10.149 -0.2898 -0.0713  0.1707
   58SAPC    HS 4313   5.157   3.977  10.131 -1.1268  0.2947  0.1037
   58SAPC   O21 4314   5.272   4.117  10.025  0.4356 -0.6385  0.0704
   58SAPC   C21 4315   5.324   4.023   9.955  0.0832  1.1128  0.8961
   58SAPC   O22 4316   5.309   3.905   9.983 -0.1618  0.3121 -0.8283
   58SAPC   C22 4317   5.404   4.084   9.830  0.4218 -0.0858  0.0354
   58SAPC   H2R 4318   5.362   4.183   9.803 -1.1572 -0.4492  0.9723
   58SAPC   H2S 4319   5.501   4.094   9.883 -0.2930 -1.2656  1.6541
   58SAPC    C3 4320   5.083   4.170  10.185  0.7177 -0.1173  0.5869
   58SAPC    HX 4321   5.130   4.264  10.221  2.4944 -0.5940 -0.3889
   58SAPC    HY 4322   5.036   4.130  10.278  1.2144 -0.2004  0.8029
   58SAPC   O31 4323   4.992   4.194  10.075  0.0987  0.0881 -0.5135
   58SAPC   C31 4324   5.026   4.281   9.986 -0.5166  0.1919  0.3791
   58SAPC   O32 4325   5.123   4.357   9.982  0.5014  0.2362  0.0677
   58SAPC   C32 4326   4.916   4.300   9.884 -0.5761  0.8422  0.4006
   58SAPC   H2X 4327   4.830   4.340   9.942 -1.1003 -1.5344  1.3925
   58SAPC   H2Y 4328   4.884   4.200   9.847  0.3950  1.2811 -1.7766
   58SAPC   C23 4329   5.389   3.990   9.713 -0.2916 -0.1873 -0.2248
   58SAPC   H3R 4330   5.419   3.889   9.749  0.4045  0.2735  0.5433
   58SAPC   H3S 4331   5.469   4.024   9.643 -1.5177  0.3012 -1.4125
   58SAPC   C24 4332   5.254   3.984   9.650 -0.4385 -0.2433  0.2740
   58SAPC   H4R 4333   5.177   3.970   9.730 -1.6611  1.0129 -0.6482
   58SAPC   H4S 4334   5.247   3.894   9.585 -0.5454 -0.8549  1.1134
   58SAPC   C25 4335   5.215   4.112   9.579 -0.2610 -0.5404  0.2244
   58SAPC   H5R 4336   5.198   4.186   9.659  1.9842 -0.5788  0.8061
   58SAPC   C26 4337   5.217   4.157   9.451  0.1576  0.2718 -0.4088
   58SAPC   H6R 4338   5.197   4.264   9.434  3.6110  1.0063 -0.4378
   58SAPC   C27 4339   5.247   4.067   9.332 -0.1869 -0.7831  0.2008
   58SAPC   H7R 4340   5.157   4.036   9.277  0.0464  0.6434 -1.0659
   58SAPC   H7S 4341   5.294   3.971   9.361 -2.8093 -1.9140  0.9911
   58SAPC   C28 4342   5.345   4.148   9.236  0.0600 -0.1425 -0.2187
   58SAPC   H8R 4343   5.452   4.132   9.256 -0.3515 -0.0524  2.3594
   58SAPC   C29 4344   5.312   4.221   9.129 -0.2146 -0.1625 -0.5559
   58SAPC   H9R 4345   5.394   4.249   9.061 -0.7113 -0.9464 -1.5129
   58SAPC  C210 4346   5.172   4.251   9.078 -0.1610  0.2898  0.2612
   58SAPC  H10R 4347   5.098   4.216   9.154  0.6592  1.1292  1.4929
   58SAPC  H10S 4348   5.160   4.177   8.996  2.5341 -1.2495  1.1218
   58SAPC  C211 4349   5.144   4.390   9.022  0.2470  0.5954  0.4871
   58SAPC  H11R 4350   5.125   4.477   9.087  1.3244  0.9891  0.2876
   58SAPC  C212 4351   5.152   4.425   8.894  0.4281 -0.7269  0.7914
   58SAPC  H12R 4352   5.124   4.529   8.873 -0.8661 -0.9400  1.3351
   58SAPC  C213 4353   5.188   4.346   8.771 -0.1659 -0.6959 -0.9574
   58SAPC  H13R 4354   5.092   4.298   8.740 -0.8143  0.9084 -1.5218
   58SAPC  H13S 4355   5.246   4.254   8.796 -0.4492 -0.7693 -0.5567
   58SAPC  C214 4356   5.262   4.440   8.669  0.6391  0.6861  0.5040
   58SAPC  H14R 4357   5.278   4.546   8.695 -1.1604  0.4769  2.7726
   58SAPC  C215 4358   5.331   4.385   8.565  0.2223 -0.1035  0.5705
   58SAPC  H15R 4359   5.406   4.440   8.506 -2.9259  1.6112 -2.1685
   58SAPC  C216 4360   5.332   4.233   8.539  0.0146  0.3451  0.6732
   58SAPC  H16R 4361   5.248   4.187   8.594 -1.8237  1.1498 -1.3311
   58SAPC  H16S 4362   5.427   4.188   8.575  0.6654  2.5690  1.9493
   58SAPC  C217 4363   5.320   4.185   8.391  0.3670 -0.2894  0.0233
   58SAPC  H17R 4364   5.412   4.227   8.344 -0.2491  2.7830  1.2987
   58SAPC  H17S 4365   5.237   4.240   8.342 -0.4541 -0.1939  1.4756
   58SAPC  C218 4366   5.304   4.035   8.385 -0.1622 -0.5734 -0.6194
   58SAPC  H18R 4367   5.223   4.012   8.457  0.8215 -0.2542  0.6065
   58SAPC  H18S 4368   5.396   3.990   8.429 -1.1040  0.4218  2.6328
   58SAPC  C219 4369   5.262   3.984   8.245  0.2223  0.9133  0.5152
   58SAPC  H19R 4370   5.342   4.003   8.171 -1.4853 -1.2859 -2.0806
   58SAPC  H19S 4371   5.180   4.052   8.213 -0.8091 -1.2340 -1.7493
   58SAPC  C220 4372   5.206   3.840   8.241  0.3408  0.7364  0.0184
   58SAPC  H20R 4373   5.125   3.824   8.166  1.4788 -0.5565 -0.9915
   58SAPC  H20S 4374   5.153   3.820   8.337  2.8569  0.1809  1.3774
   58SAPC  H20T 4375   5.288   3.769   8.217 -0.5845 -0.1968 -0.4141
   58SAPC   C33 4376   4.940   4.400   9.765  0.4566 -0.3141  0.1374
   58SAPC   H3X 4377   5.038   4.368   9.722  2.0225  0.1031  3.1316
   58SAPC   H3Y 4378   4.954   4.499   9.813  0.5282 -1.0726  1.7239
   58SAPC   C34 4379   4.833   4.407   9.659  0.5941 -0.0569 -0.1541
   58SAPC   H4X 4380   4.767   4.496   9.668 -1.3197 -1.4200 -0.0001
   58SAPC   H4Y 4381   4.763   4.320   9.655  0.6513 -0.0792 -1.1464
   58SAPC   C35 4382   4.897   4.416   9.525 -0.2762  0.3207  0.3534
   58SAPC   H5X 4383   4.958   4.324   9.509  0.6454  0.7459  1.2617
   58SAPC   H5Y 4384   4.969   4.500   9.517  0.0403  0.1816  1.5243
   58SAPC   C36 4385   4.795   4.431   9.407 -0.3837  0.4607  0.1279
   58SAPC   H6X 4386   4.722   4.513   9.427 -0.2859  1.0585 -1.7172
   58SAPC   H6Y 4387   4.739   4.335   9.398  0.5193  0.0230 -1.0111
   58SAPC   C37 4388   4.856   4.454   9.266  0.2713  0.0740 -0.2851
   58SAPC   H7X 4389   4.935   4.376   9.253 -0.5662 -0.7253 -0.6665
   58SAPC   H7Y 4390   4.907   4.552   9.253  1.2832 -0.0421  2.3287
   58SAPC   C38 4391   4.740   4.436   9.159 -0.1650 -0.3942  0.1938
   58SAPC   H8X 4392   4.679   4.529   9.161 -2.9021 -2.0776  0.6502
   58SAPC   H8Y 4393   4.674   4.349   9.176  0.0311 -0.5186  0.3115
   58SAPC   C39 4394   4.787   4.416   9.016  0.1963  0.2325  0.1791
   58SAPC   H9X 4395   4.876   4.349   9.009 -0.0765  0.0112 -1.8244
   58SAPC   H9Y 4396   4.820   4.516   8.981  2.4608 -0.7842 -0.8219
   58SAPC  C310 4397   4.678   4.363   8.922  0.6134  0.6433  0.1952
   58SAPC  H10X 4398   4.601   4.443   8.916  0.3527  0.4991  1.4024
   58SAPC  H10Y 4399   4.632   4.281   8.980 -1.4613  0.3059 -1.8315
   58SAPC  C311 4400   4.714   4.310   8.778 -0.2442 -1.0993  0.6177
   58SAPC  H11X 4401   4.625   4.280   8.718  1.3049 -0.6502 -2.1105
   58SAPC  H11Y 4402   4.783   4.222   8.774  2.4164  0.8715 -3.1277
   58SAPC  C312 4403   4.780   4.421   8.693 -0.0175 -0.5940 -0.0685
   58SAPC  H12X 4404   4.882   4.451   8.725  0.4111  1.2893 -2.8597
   58SAPC  H12Y 4405   4.703   4.501   8.699  0.3801 -0.3100  1.7158
   58SAPC  C313 4406   4.795   4.382   8.548 -0.0538  0.0082  0.0587
   58SAPC  H13X 4407   4.791   4.471   8.483  2.3094  0.4469  0.4217
   58SAPC  H13Y 4408   4.710   4.315   8.523 -0.4487 -0.1014  1.5709
   58SAPC  C314 4409   4.926   4.305   8.523 -0.2298  0.3217  0.0765
   58SAPC  H14X 4410   4.934   4.229   8.604 -1.4610 -0.4828 -0.5296
   58SAPC  H14Y 4411   5.016   4.371   8.533  1.6844 -1.4976 -3.2334
   58SAPC  C315 4412   4.934   4.262   8.377 -0.2999 -0.1239 -0.1937
   58SAPC  H15X 4413   4.838   4.209   8.360  0.3331 -1.7009  0.9702
   58SAPC  H15Y 4414   5.014   4.186   8.368  1.0406  0.9328  2.0983
   58SAPC  C316 4415   4.967   4.377   8.276  0.0142  0.1382  1.0316
   58SAPC  H16X 4416   5.053   4.436   8.313  0.9061 -1.2573  1.2220
   58SAPC  H16Y 4417   4.889   4.454   8.256 -0.3034  0.1398  2.1988
   58SAPC  C317 4418   5.008   4.324   8.132 -0.0362  0.2348 -0.3638
   58SAPC  H17X 4419   5.082   4.243   8.149  0.1382  0.7914  1.9329
   58SAPC  H17Y 4420   5.069   4.394   8.072  0.1938  1.7115  1.4880
   58SAPC  C318 4421   4.885   4.276   8.047 -0.0423 -0.1485  0.0210
   58SAPC  H18X 4422   4.832   4.367   8.014 -0.4137 -0.2663  0.2840
   58SAPC  H18Y 4423   4.816   4.207   8.100 -0.0568 -0.8786 -0.9180
   58SAPC  H18Z 4424   4.922   4.212   7.964  3.2447  0.8629  0.5422
   59SAPC     N 4425   5.834   5.999  10.872  0.6484 -0.2357  0.0538
   59SAPC   C12 4426   5.877   5.856  10.833  0.1196 -0.0520  0.1352
   59SAPC  H12A 4427   5.956   5.860  10.759  1.8074 -1.0791  1.8043
   59SAPC  H12B 4428   5.800   5.796  10.786  1.5284 -0.8154 -1.3401
   59SAPC   C13 4429   5.833   6.096  10.756  0.1603  1.0248 -0.3301
   59SAPC  H13A 4430   5.758   6.064  10.685 -0.6808 -1.7039  1.6266
   59SAPC  H13B 4431   5.804   6.191  10.797 -0.9032  0.4953  0.1770
   59SAPC  H13C 4432   5.926   6.118  10.706  0.9673 -0.9716  0.1647
   59SAPC   C14 4433   5.695   5.982  10.931 -1.1218 -1.1541  0.2971
   59SAPC  H14A 4434   5.646   6.079  10.924  0.8501 -0.1369 -0.2225
   59SAPC  H14B 4435   5.632   5.926  10.864 -0.3625  1.3978 -2.8089
   59SAPC  H14C 4436   5.683   5.935  11.028 -0.8245 -0.5900  0.6176
   59SAPC   C15 4437   5.927   6.064  10.967 -0.2010 -0.5597  0.1886
   59SAPC  H15A 4438   6.022   6.087  10.921  0.6487 -0.0203  2.0879
   59SAPC  H15B 4439   5.879   6.154  11.003  0.6871 -0.3514  0.8908
   59SAPC  H15C 4440   5.948   5.991  11.045 -0.8613 -0.5230  0.4027
   59SAPC   C11 4441   5.922   5.758  10.944 -0.1353 -0.0792  0.1146
   59SAPC  H11A 4442   5.936   5.656  10.902 -0.7724  0.2838 -1.0190
   59SAPC  H11B 4443   5.839   5.739  11.016  0.8772 -3.4376  0.5459
   59SAPC     P 4444   6.191   5.768  10.951 -0.1058 -0.1319 -0.2062
   59SAPC   O13 4445   6.291   5.858  11.016  0.4906 -0.5866 -0.5385
   59SAPC   O14 4446   6.213   5.624  10.964  0.1355  0.1366 -0.9769
   59SAPC   O12 4447   6.045   5.806  11.005  0.4093 -0.1480  0.6596
   59SAPC   O11 4448   6.176   5.807  10.792 -0.3278 -0.2561  0.5277
   59SAPC    C1 4449   6.213   5.694  10.701 -0.2784 -0.0700 -0.1732
   59SAPC    HA 4450   6.318   5.662  10.718 -0.0129  0.1059 -1.4329
   59SAPC    HB 4451   6.142   5.609  10.705  0.5442 -0.7860 -0.3939
   59SAPC    C2 4452   6.219   5.747  10.556  0.7479 -0.4101 -1.0399
   59SAPC    HS 4453   6.216   5.858  10.562  1.9596 -0.3027 -2.1185
   59SAPC   O21 4454   6.114   5.687  10.479  0.2180  0.2536 -0.5940
   59SAPC   C21 4455   5.997   5.737  10.488 -0.6971  0.1896  0.1681
   59SAPC   O22 4456   5.962   5.827  10.564  0.0913 -0.0917 -0.2080
   59SAPC   C22 4457   5.900   5.643  10.406  0.4025  0.2544 -0.1984
   59SAPC   H2R 4458   5.936   5.540  10.423  0.0937 -0.1807 -2.0410
   59SAPC   H2S 4459   5.798   5.650  10.448  1.1533  0.8011  1.6423
   59SAPC    C3 4460   6.356   5.714  10.495 -0.6575  0.2008 -0.1208
   59SAPC    HX 4461   6.362   5.604  10.495  1.3380  0.2866 -0.4300
   59SAPC    HY 4462   6.430   5.753  10.567  1.4017  1.8054 -2.8972
   59SAPC   O31 4463   6.377   5.774  10.364  0.5283 -0.3440  0.3240
   59SAPC   C31 4464   6.441   5.694  10.280 -1.1749 -0.0965 -1.1117
   59SAPC   O32 4465   6.498   5.589  10.310  0.1441  0.1198  0.0363
   59SAPC   C32 4466   6.444   5.766  10.147 -0.4594  0.4686  0.5604
   59SAPC   H2X 4467   6.485   5.868  10.165  1.6839 -0.5753  2.0590
   59SAPC   H2Y 4468   6.343   5.771  10.102 -0.5265 -0.8075  0.5164
   59SAPC   C23 4469   5.902   5.666  10.258 -0.5113 -0.7213 -0.3150
   59SAPC   H3R 4470   6.005   5.683  10.219  0.3897 -2.0859  1.3027
   59SAPC   H3S 4471   5.833   5.746  10.225 -0.2896  0.6899  2.3199
   59SAPC   C24 4472   5.845   5.537  10.189 -0.2985 -0.4601  0.2966
   59SAPC   H4R 4473   5.895   5.448  10.232 -1.5599 -1.1293  0.3977
   59SAPC   H4S 4474   5.880   5.535  10.083 -1.9086 -0.6062 -0.2473
   59SAPC   C25 4475   5.698   5.516  10.189 -0.5862  0.3101 -0.2610
   59SAPC   H5R 4476   5.655   5.475  10.281  2.6636 -1.2123  0.7211
   59SAPC   C26 4477   5.621   5.537  10.082 -0.6029 -0.0734 -0.1195
   59SAPC   H6R 4478   5.512   5.523  10.093 -0.8244  1.3668 -0.3618
   59SAPC   C27 4479   5.648   5.603   9.946  0.6975  0.2112 -0.6377
   59SAPC   H7R 4480   5.749   5.650   9.948  0.2476  1.1969  1.3496
   59SAPC   H7S 4481   5.574   5.685   9.937 -0.0441 -0.3023  0.5168
   59SAPC   C28 4482   5.633   5.514   9.820 -0.6989  0.4774 -0.2160
   59SAPC   H8R 4483   5.596   5.412   9.839  0.9751 -0.1050  0.0628
   59SAPC   C29 4484   5.653   5.562   9.692  0.2602  0.2737 -0.7036
   59SAPC   H9R 4485   5.639   5.490   9.610  1.5592 -2.6625  1.4910
   59SAPC  C210 4486   5.685   5.702   9.654  0.4427 -0.2638  0.1034
   59SAPC  H10R 4487   5.729   5.759   9.739 -0.8387 -0.8202  1.1662
   59SAPC  H10S 4488   5.589   5.748   9.622 -0.3067 -1.5320  0.4900
   59SAPC  C211 4489   5.785   5.716   9.538  0.3349 -0.0688 -0.1168
   59SAPC  H11R 4490   5.882   5.757   9.571  0.1280  1.9258 -1.7594
   59SAPC  C212 4491   5.760   5.687   9.407 -0.4362  0.4835  0.1794
   59SAPC  H12R 4492   5.826   5.718   9.325  1.3498 -1.3245  0.8481
   59SAPC  C213 4493   5.627   5.641   9.351  0.3278  0.7459 -0.2029
   59SAPC  H13R 4494   5.565   5.585   9.424  0.7989  1.1427  0.5030
   59SAPC  H13S 4495   5.643   5.568   9.268  1.8696 -0.1292  0.8169
   59SAPC  C214 4496   5.547   5.757   9.289 -0.0450 -0.3286  0.7502
   59SAPC  H14R 4497   5.479   5.803   9.361 -0.7763  0.2984 -0.3086
   59SAPC  C215 4498   5.567   5.804   9.162 -1.1558 -0.2542 -1.0741
   59SAPC  H15R 4499   5.509   5.892   9.130 -0.1885  0.9614  0.3841
   59SAPC  C216 4500   5.681   5.767   9.064  0.3013 -0.1469  0.1488
   59SAPC  H16R 4501   5.726   5.667   9.082  0.0550 -0.4712 -0.9948
   59SAPC  H16S 4502   5.752   5.853   9.064  0.7925 -0.5329 -0.7844
   59SAPC  C217 4503   5.634   5.761   8.919  0.3399 -0.7804 -0.0319
   59SAPC  H17R 4504   5.594   5.857   8.879  2.4097  1.1942  2.2997
   59SAPC  H17S 4505   5.555   5.683   8.925 -0.5963  0.2504  1.9924
   59SAPC  C218 4506   5.748   5.719   8.825 -0.6146 -0.1755 -0.0062
   59SAPC  H18R 4507   5.795   5.624   8.858 -0.1305  0.3838  0.9560
   59SAPC  H18S 4508   5.820   5.802   8.839 -1.7775  0.9188 -0.2856
   59SAPC  C219 4509   5.698   5.719   8.680 -0.3191 -0.0046  0.3814
   59SAPC  H19R 4510   5.645   5.814   8.655 -1.0041 -0.3357  0.5537
   59SAPC  H19S 4511   5.635   5.628   8.687  0.2807 -0.3668  1.1386
   59SAPC  C220 4512   5.814   5.697   8.575 -0.3249  0.3184 -0.4596
   59SAPC  H20R 4513   5.875   5.607   8.597  1.2828  1.8125  1.5782
   59SAPC  H20S 4514   5.877   5.789   8.575  1.6407 -0.9662 -2.1565
   59SAPC  H20T 4515   5.781   5.696   8.469  0.9431 -1.1128 -0.8633
   59SAPC   C33 4516   6.541   5.690  10.059  0.0066 -0.3329  1.0513
   59SAPC   H3X 4517   6.519   5.586  10.028  2.4242 -1.4084  2.5615
   59SAPC   H3Y 4518   6.644   5.688  10.102  0.1568 -0.4890  0.6878
   59SAPC   C34 4519   6.543   5.767   9.930 -0.6545  0.0985 -0.1714
   59SAPC   H4X 4520   6.560   5.874   9.952  1.4124 -0.7459  3.1449
   59SAPC   H4Y 4521   6.447   5.765   9.874  0.4176  1.0386 -2.1378
   59SAPC   C35 4522   6.659   5.726   9.833 -0.4462 -0.4061 -0.1173
   59SAPC   H5X 4523   6.625   5.626   9.799 -2.6655 -0.0062  0.7145
   59SAPC   H5Y 4524   6.757   5.720   9.884  0.5802  1.9639 -1.6627
   59SAPC   C36 4525   6.699   5.805   9.713  0.4190 -0.0552 -0.0399
   59SAPC   H6X 4526   6.797   5.776   9.671  1.1206 -1.8047  2.5758
   59SAPC   H6Y 4527   6.706   5.915   9.731 -2.1262  0.0396  0.7563
   59SAPC   C37 4528   6.595   5.786   9.599  0.1561 -0.3798 -0.4503
   59SAPC   H7X 4529   6.497   5.819   9.641  0.1953 -0.4353 -0.3142
   59SAPC   H7Y 4530   6.575   5.680   9.573 -3.4647 -0.1829  0.9196
   59SAPC   C38 4531   6.615   5.860   9.468  0.3204 -0.4991 -0.4380
   59SAPC   H8X 4532   6.656   5.960   9.495 -1.5021  0.1142  0.2901
   59SAPC   H8Y 4533   6.520   5.886   9.417  0.2749  1.4758  0.5172
   59SAPC   C39 4534   6.697   5.786   9.355 -0.6402 -0.1775 -0.1969
   59SAPC   H9X 4535   6.689   5.679   9.384  1.1868 -0.4666 -0.6356
   59SAPC   H9Y 4536   6.801   5.826   9.352 -0.1104 -1.3931  0.9020
   59SAPC  C310 4537   6.665   5.831   9.210 -0.0002 -0.6935  0.2795
   59SAPC  H10X 4538   6.752   5.824   9.142  1.0026  1.9291  1.1892
   59SAPC  H10Y 4539   6.635   5.938   9.209  1.0017 -0.3822  1.6734
   59SAPC  C311 4540   6.545   5.754   9.153  0.1258  0.1156 -0.3623
   59SAPC  H11X 4541   6.455   5.756   9.218  0.1161 -0.9393 -0.3273
   59SAPC  H11Y 4542   6.581   5.651   9.131 -0.3989 -0.1517  0.0345
   59SAPC  C312 4543   6.499   5.795   9.011  0.1977  0.7173 -0.2161
   59SAPC  H12X 4544   6.577   5.845   8.949  0.3752  0.0060 -0.5810
   59SAPC  H12Y 4545   6.423   5.876   9.014  0.2562  0.7741  2.0133
   59SAPC  C313 4546   6.460   5.663   8.935 -0.3293  0.2638 -0.3005
   59SAPC  H13X 4547   6.389   5.602   8.995  0.2327  1.0624  1.2257
   59SAPC  H13Y 4548   6.549   5.597   8.926  0.6979  1.1541  2.4549
   59SAPC  C314 4549   6.392   5.681   8.798  0.6178 -0.3004 -0.4699
   59SAPC  H14X 4550   6.475   5.712   8.730 -0.8524 -0.7919 -2.5879
   59SAPC  H14Y 4551   6.315   5.761   8.794 -0.1329 -1.0046 -0.1902
   59SAPC  C315 4552   6.336   5.559   8.719  0.3102 -0.1959 -0.4072
   59SAPC  H15X 4553   6.245   5.531   8.776 -1.0322  1.2532 -1.7622
   59SAPC  H15Y 4554   6.412   5.481   8.742  1.9773  1.3403 -0.4848
   59SAPC  C316 4555   6.315   5.594   8.571  0.7233 -0.4861 -0.8816
   59SAPC  H16X 4556   6.269   5.502   8.527 -2.2088 -0.2032  1.2518
   59SAPC  H16Y 4557   6.411   5.618   8.521  1.1102 -1.3554 -0.5877
   59SAPC  C317 4558   6.232   5.720   8.540  0.3578 -0.0338 -0.5894
   59SAPC  H17X 4559   6.290   5.810   8.573 -0.9964  0.4734  0.5245
   59SAPC  H17Y 4560   6.142   5.702   8.602 -1.2900 -3.3666 -3.5817
   59SAPC  C318 4561   6.198   5.741   8.391  0.3680  0.7039 -0.6330
   59SAPC  H18X 4562   6.286   5.798   8.353 -0.5535  2.5625 -0.1135
   59SAPC  H18Y 4563   6.100   5.794   8.384 -0.2861 -0.5544 -1.3136
   59SAPC  H18Z 4564   6.198   5.641   8.344  1.7547 -0.0743  0.9173
   60SAPC     N 4565   2.028   3.966  10.788  0.8552 -0.2616  0.3012
   60SAPC   C12 4566   2.122   4.041  10.692  0.0368  0.4056  0.1410
   60SAPC  H12A 4567   2.112   3.986  10.599 -1.1363  0.1328  0.4101
   60SAPC  H12B 4568   2.222   4.030  10.730  0.3145  0.5785 -0.5194
   60SAPC   C13 4569   2.032   3.819  10.774 -0.7578 -0.3859  0.2904
   60SAPC  H13A 4570   1.966   3.780  10.699 -0.2949 -2.7782  1.0372
   60SAPC  H13B 4571   2.136   3.793  10.759 -0.2130  0.2959  2.4389
   60SAPC  H13C 4572   2.003   3.773  10.868 -2.0395 -0.7863 -0.2851
   60SAPC   C14 4573   2.064   4.009  10.932 -0.1544  0.1247  0.4713
   60SAPC  H14A 4574   2.164   3.978  10.962 -1.4101 -3.0509  1.8871
   60SAPC  H14B 4575   2.056   4.114  10.954  2.4476  0.0136  2.5803
   60SAPC  H14C 4576   1.999   3.949  10.994 -0.5829 -0.7857 -0.8036
   60SAPC   C15 4577   1.880   3.998  10.763 -0.1552 -0.0405 -0.1517
   60SAPC  H15A 4578   1.861   4.103  10.780 -2.1679 -0.3575 -0.1583
   60SAPC  H15B 4579   1.853   3.976  10.661 -0.8573 -2.2254  0.4439
   60SAPC  H15C 4580   1.814   3.942  10.828 -0.6647 -0.1526 -0.7455
   60SAPC   C11 4581   2.099   4.194  10.663  0.3149  0.3826  0.3968
   60SAPC  H11A 4582   2.008   4.209  10.601  0.3274 -4.4222 -1.2076
   60SAPC  H11B 4583   2.182   4.218  10.593  1.1621 -0.1528  1.1880
   60SAPC     P 4584   2.228   4.329  10.846  0.1092  0.2354  0.1158
   60SAPC   O13 4585   2.212   4.371  10.987  0.4533  0.4438  0.3289
   60SAPC   O14 4586   2.327   4.219  10.811 -0.1769  0.4303 -0.5727
   60SAPC   O12 4587   2.088   4.286  10.772  0.5263  0.0374 -0.4513
   60SAPC   O11 4588   2.276   4.461  10.772  0.1620 -0.3587 -0.3635
   60SAPC    C1 4589   2.181   4.561  10.740 -0.1675  0.1383  0.5014
   60SAPC    HA 4590   2.100   4.569  10.816  0.5143 -0.4409  1.3048
   60SAPC    HB 4591   2.237   4.657  10.738 -0.5654  0.3701 -0.5613
   60SAPC    C2 4592   2.127   4.552  10.597 -0.7991  0.1299 -0.1045
   60SAPC    HS 4593   2.067   4.460  10.587 -0.0496 -0.1923 -2.2516
   60SAPC   O21 4594   2.231   4.562  10.500  0.2313  0.4429  0.2964
   60SAPC   C21 4595   2.236   4.468  10.409  0.4624 -0.2645  0.3850
   60SAPC   O22 4596   2.147   4.380  10.386  0.4700 -0.6310  0.0034
   60SAPC   C22 4597   2.375   4.474  10.341  0.4173 -0.4164  0.8840
   60SAPC   H2R 4598   2.375   4.577  10.299  0.2460  0.3282  2.6022
   60SAPC   H2S 4599   2.452   4.467  10.421  0.1746  0.6873  1.2277
   60SAPC    C3 4600   2.031   4.672  10.576 -0.7876  0.0391  0.3274
   60SAPC    HX 4601   2.094   4.760  10.602 -1.5161  0.9141 -0.7819
   60SAPC    HY 4602   1.951   4.667  10.653 -0.0940  1.5160  1.1848
   60SAPC   O31 4603   1.987   4.690  10.438  0.9105  0.2489  0.1930
   60SAPC   C31 4604   1.852   4.676  10.430 -0.0328  0.1248 -0.5350
   60SAPC   O32 4605   1.772   4.667  10.526  0.3217 -0.0263  0.7453
   60SAPC   C32 4606   1.826   4.671  10.281  0.3929 -0.3917  0.5345
   60SAPC   H2X 4607   1.902   4.607  10.232  0.5255 -2.6359  3.3559
   60SAPC   H2Y 4608   1.844   4.775  10.249  4.3546 -1.4002 -1.0852
   60SAPC   C23 4609   2.400   4.374  10.221  0.4742  0.0122 -0.1970
   60SAPC   H3R 4610   2.326   4.392  10.140  1.1233 -1.2145 -1.1100
   60SAPC   H3S 4611   2.370   4.277  10.266  3.0420 -1.3815 -1.2465
   60SAPC   C24 4612   2.549   4.361  10.175  0.4568 -0.5002 -0.5440
   60SAPC   H4R 4613   2.538   4.283  10.097  1.2930  1.2290 -2.4820
   60SAPC   H4S 4614   2.602   4.320  10.263  1.8487  0.1635 -1.0508
   60SAPC   C25 4615   2.574   4.506  10.129 -0.6644 -0.1894 -0.3432
   60SAPC   H5R 4616   2.603   4.588  10.197  3.7175  0.4999 -2.6971
   60SAPC   C26 4617   2.587   4.541   9.997  0.1910  0.7927  0.0910
   60SAPC   H6R 4618   2.610   4.648   9.983 -2.0754  2.0693  4.3497
   60SAPC   C27 4619   2.567   4.445   9.882 -0.3663  0.6810  0.1070
   60SAPC   H7R 4620   2.580   4.340   9.916  0.0854  0.9243  0.7178
   60SAPC   H7S 4621   2.646   4.457   9.804 -0.4781  0.2418 -0.0725
   60SAPC   C28 4622   2.433   4.458   9.813  0.3154 -0.5292  0.0029
   60SAPC   H8R 4623   2.350   4.479   9.883  1.2854  0.6091  0.8554
   60SAPC   C29 4624   2.404   4.460   9.687 -1.4670  0.4801 -0.3743
   60SAPC   H9R 4625   2.305   4.479   9.645 -1.1102  0.4617 -1.2457
   60SAPC  C210 4626   2.501   4.440   9.574  0.2073 -0.6341  0.7868
   60SAPC  H10R 4627   2.607   4.469   9.592  1.5476 -1.7933 -3.9065
   60SAPC  H10S 4628   2.477   4.512   9.492  2.2092  0.4597  1.0905
   60SAPC  C211 4629   2.502   4.295   9.524 -0.3442 -0.0586  0.0639
   60SAPC  H11R 4630   2.549   4.210   9.575  2.2576 -0.0674 -2.1310
   60SAPC  C212 4631   2.434   4.270   9.411  0.0449 -0.5556  0.0480
   60SAPC  H12R 4632   2.424   4.163   9.387  0.7856 -0.6086 -0.0697
   60SAPC  C213 4633   2.341   4.364   9.333 -0.1026 -0.1213 -0.2826
   60SAPC  H13R 4634   2.406   4.446   9.296 -0.3461 -0.0783 -0.6232
   60SAPC  H13S 4635   2.266   4.396   9.409 -0.4528 -0.5312 -0.4458
   60SAPC  C214 4636   2.282   4.306   9.212 -0.1738 -0.0306  0.3336
   60SAPC  H14R 4637   2.358   4.292   9.133 -1.2995  0.0457 -0.7875
   60SAPC  C215 4638   2.159   4.261   9.196 -0.4345 -0.3088  0.2118
   60SAPC  H15R 4639   2.132   4.235   9.093  0.0676  1.1343 -0.3051
   60SAPC  C216 4640   2.046   4.262   9.294  0.3348  0.0069  0.4336
   60SAPC  H16R 4641   1.965   4.300   9.228  0.8228 -0.9897 -0.7824
   60SAPC  H16S 4642   2.060   4.334   9.378  2.0678  0.3783 -0.1306
   60SAPC  C217 4643   2.011   4.123   9.355  0.8740 -0.2979  0.9377
   60SAPC  H17R 4644   1.953   4.066   9.280  2.9650 -0.9189 -0.2923
   60SAPC  H17S 4645   1.933   4.143   9.432 -0.7599  1.7946 -1.1260
   60SAPC  C218 4646   2.132   4.057   9.420  0.4659 -0.3974 -0.4125
   60SAPC  H18R 4647   2.175   4.117   9.504  2.0248 -0.2749 -1.2602
   60SAPC  H18S 4648   2.205   4.037   9.339  1.3052 -0.6810  0.3935
   60SAPC  C219 4649   2.101   3.915   9.475 -0.3161  0.0844  0.4661
   60SAPC  H19R 4650   2.059   3.855   9.392  1.8379 -1.4204  0.3845
   60SAPC  H19S 4651   2.026   3.931   9.555  0.4950  0.9881  1.0746
   60SAPC  C220 4652   2.218   3.843   9.530  0.4676  0.0487  0.2267
   60SAPC  H20R 4653   2.270   3.889   9.617 -0.6246 -0.3605  1.1406
   60SAPC  H20S 4654   2.295   3.841   9.450  1.9699  1.2665  1.5665
   60SAPC  H20T 4655   2.185   3.738   9.544 -1.8287  0.7116  0.1910
   60SAPC   C33 4656   1.680   4.623  10.241  0.1607  0.0241  0.1374
   60SAPC   H3X 4657   1.606   4.690  10.289 -1.7862 -1.8884 -0.0129
   60SAPC   H3Y 4658   1.663   4.524  10.289  0.2854  0.5948  1.3772
   60SAPC   C34 4659   1.663   4.613  10.085  0.0550 -0.3759  0.9584
   60SAPC   H4X 4660   1.565   4.567  10.056 -0.7748  1.8264  0.0530
   60SAPC   H4Y 4661   1.738   4.541  10.048 -1.2943  0.0144 -2.9432
   60SAPC   C35 4662   1.685   4.745  10.011 -0.6764 -0.0332 -0.0779
   60SAPC   H5X 4663   1.793   4.773  10.015 -0.4836 -0.8345  0.3898
   60SAPC   H5Y 4664   1.620   4.822  10.058  1.5869  1.6656  0.4891
   60SAPC   C36 4665   1.626   4.740   9.872  0.6457  0.6535  0.3001
   60SAPC   H6X 4666   1.540   4.670   9.868  0.9019  0.3718 -0.4514
   60SAPC   H6Y 4667   1.701   4.680   9.817 -0.8300  0.5549 -1.7251
   60SAPC   C37 4668   1.590   4.868   9.789 -0.3028 -0.0948 -0.1304
   60SAPC   H7X 4669   1.672   4.943   9.796 -0.2339 -0.1434 -0.4021
   60SAPC   H7Y 4670   1.494   4.917   9.814 -0.9504 -1.8043  0.9511
   60SAPC   C38 4671   1.578   4.824   9.643 -0.2371 -1.0141 -0.5773
   60SAPC   H8X 4672   1.500   4.745   9.638 -0.3287 -0.8740 -1.6119
   60SAPC   H8Y 4673   1.674   4.792   9.598  0.4410 -0.0828  0.1561
   60SAPC   C39 4674   1.544   4.941   9.549  0.0246  0.0652 -0.9268
   60SAPC   H9X 4675   1.624   5.018   9.543 -0.6141  0.6606 -3.0522
   60SAPC   H9Y 4676   1.452   4.990   9.587 -2.0936 -3.9287 -0.3736
   60SAPC  C310 4677   1.511   4.899   9.407 -0.2243 -0.5831 -0.2248
   60SAPC  H10X 4678   1.417   4.842   9.425 -0.0145 -0.8511  0.0265
   60SAPC  H10Y 4679   1.593   4.837   9.364  1.3422  0.5976  0.9819
   60SAPC  C311 4680   1.483   5.023   9.325  0.8443  0.2981 -0.7667
   60SAPC  H11X 4681   1.578   5.081   9.327 -0.3574  2.4784  2.8419
   60SAPC  H11Y 4682   1.406   5.084   9.378  0.6471 -1.5162  1.2035
   60SAPC  C312 4683   1.427   5.008   9.189 -0.0128  0.5461 -0.1150
   60SAPC  H12X 4684   1.387   5.107   9.158 -0.2729  0.7704  0.9056
   60SAPC  H12Y 4685   1.341   4.938   9.197 -0.1265  0.2901 -2.6254
   60SAPC  C313 4686   1.524   4.962   9.088  0.3334  0.1295  0.2187
   60SAPC  H13X 4687   1.580   4.879   9.138  1.2258  1.3995  1.3970
   60SAPC  H13Y 4688   1.590   5.050   9.073 -0.1350  0.7415  1.5983
   60SAPC  C314 4689   1.468   4.916   8.952  0.5077  0.0394  0.3452
   60SAPC  H14X 4690   1.413   5.000   8.903 -0.3131 -1.3879 -1.2950
   60SAPC  H14Y 4691   1.409   4.822   8.964  2.5027 -1.3530 -0.2930
   60SAPC  C315 4692   1.581   4.864   8.862 -0.1831 -0.9283 -0.1162
   60SAPC  H15X 4693   1.641   4.774   8.888  1.1522  0.1063  0.5128
   60SAPC  H15Y 4694   1.661   4.940   8.869 -0.1796 -1.0921  2.1171
   60SAPC  C316 4695   1.539   4.864   8.713 -0.6484  0.3738  0.1399
   60SAPC  H16X 4696   1.498   4.962   8.684  1.8379  1.1154 -1.1596
   60SAPC  H16Y 4697   1.461   4.787   8.701  0.6530 -0.8343 -0.9383
   60SAPC  C317 4698   1.658   4.817   8.627 -0.5239  0.3310  1.2354
   60SAPC  H17X 4699   1.686   4.718   8.668  0.9400  0.2300  0.0955
   60SAPC  H17Y 4700   1.735   4.897   8.638 -1.6949  1.4756  1.3136
   60SAPC  C318 4701   1.637   4.797   8.472  0.5979 -0.0855  0.2284
   60SAPC  H18X 4702   1.727   4.785   8.408  0.4328 -1.9863  0.2787
   60SAPC  H18Y 4703   1.585   4.884   8.426  1.3531 -0.0227 -0.5397
   60SAPC  H18Z 4704   1.576   4.704   8.462 -2.7142  2.0414 -0.9457
   61SAPC     N 4705   3.501   3.326  11.205 -0.3067 -0.3207  0.1500
   61SAPC   C12 4706   3.538   3.333  11.062 -0.8939 -0.4982  0.4033
   61SAPC  H12A 4707   3.546   3.229  11.036  2.3029 -0.8276  2.1696
   61SAPC  H12B 4708   3.638   3.372  11.048 -1.1750  0.1432  0.1112
   61SAPC   C13 4709   3.599   3.233  11.272 -0.9092 -0.0088 -0.7304
   61SAPC  H13A 4710   3.697   3.279  11.275 -0.2909 -1.1550 -2.1711
   61SAPC  H13B 4711   3.571   3.226  11.375  1.2755  1.1981  0.0310
   61SAPC  H13C 4712   3.600   3.140  11.217 -0.6986  0.0738 -0.8726
   61SAPC   C14 4713   3.501   3.461  11.269 -0.1981  0.1278  0.7233
   61SAPC  H14A 4714   3.435   3.534  11.227  2.3280  2.1732  0.0252
   61SAPC  H14B 4715   3.485   3.461  11.376  0.2206  0.0423  0.7893
   61SAPC  H14C 4716   3.599   3.502  11.251 -0.1331 -0.5731 -0.6410
   61SAPC   C15 4717   3.360   3.272  11.213  0.7409 -0.2682  0.3841
   61SAPC  H15A 4718   3.293   3.337  11.159  0.1653  0.2270  1.6532
   61SAPC  H15B 4719   3.351   3.178  11.160 -1.6171  1.0136 -1.7292
   61SAPC  H15C 4720   3.329   3.255  11.315 -0.5596 -1.1903 -0.1409
   61SAPC   C11 4721   3.444   3.405  10.968 -0.9757 -0.1066 -0.6801
   61SAPC  H11A 4722   3.493   3.449  10.879 -0.4214  4.1413  1.4637
   61SAPC  H11B 4723   3.395   3.493  11.016 -0.6184  1.5473 -3.1268
   61SAPC     P 4724   3.197   3.325  10.905 -0.1763 -0.0981 -0.2950
   61SAPC   O13 4725   3.149   3.197  10.847 -0.4794  0.2505 -0.2347
   61SAPC   O14 4726   3.128   3.370  11.028  0.0189  0.2627 -0.0337
   61SAPC   O12 4727   3.353   3.310  10.926 -0.3902 -0.2515  0.1137
   61SAPC   O11 4728   3.184   3.437  10.801 -0.0610 -0.3509 -0.0850
   61SAPC    C1 4729   3.275   3.431  10.682 -0.1198  0.0425  0.3372
   61SAPC    HA 4730   3.344   3.517  10.669  1.5299 -1.2537  0.1658
   61SAPC    HB 4731   3.344   3.344  10.683  1.0248  0.9159 -0.0684
   61SAPC    C2 4732   3.181   3.419  10.551  0.6552 -1.0162 -0.8498
   61SAPC    HS 4733   3.106   3.500  10.544  1.2793 -0.3193  0.1459
   61SAPC   O21 4734   3.120   3.288  10.547 -0.5380  0.8845 -0.4975
   61SAPC   C21 4735   2.991   3.287  10.576 -1.0610 -0.0106 -0.1514
   61SAPC   O22 4736   2.931   3.372  10.637  0.1627  0.3863  0.0351
   61SAPC   C22 4737   2.930   3.156  10.524 -0.1975 -0.3903 -0.0406
   61SAPC   H2R 4738   3.002   3.085  10.480  0.5993  0.7090 -0.5674
   61SAPC   H2S 4739   2.885   3.118  10.618  2.0909 -0.5087  1.0733
   61SAPC    C3 4740   3.275   3.425  10.426 -0.2321  0.6436 -0.4109
   61SAPC    HX 4741   3.344   3.339  10.436 -0.8504  0.0213 -1.4413
   61SAPC    HY 4742   3.336   3.518  10.437  0.6323 -0.1530  2.5107
   61SAPC   O31 4743   3.203   3.408  10.296 -0.4753  0.2447  0.3195
   61SAPC   C31 4744   3.138   3.519  10.262  0.3207  0.6084  0.7556
   61SAPC   O32 4745   3.142   3.625  10.319 -0.7977 -0.7499 -0.2457
   61SAPC   C32 4746   3.050   3.478  10.137 -0.3706 -0.3650 -0.2984
   61SAPC   H2X 4747   2.975   3.408  10.178  0.0122  0.7098  2.4779
   61SAPC   H2Y 4748   3.116   3.417  10.072 -1.2054 -1.7639  0.1287
   61SAPC   C23 4749   2.818   3.180  10.427  0.6152 -0.5501  0.4720
   61SAPC   H3R 4750   2.856   3.238  10.340  0.6952  0.4096  1.1385
   61SAPC   H3S 4751   2.736   3.238  10.475  1.0210  0.8354 -0.4433
   61SAPC   C24 4752   2.765   3.045  10.376  0.1531  0.0130  0.6141
   61SAPC   H4R 4753   2.705   2.997  10.456  0.2951 -0.5515  0.3826
   61SAPC   H4S 4754   2.848   2.975  10.354 -0.2977 -0.7875  1.4136
   61SAPC   C25 4755   2.675   3.073  10.259  0.3662 -0.3033 -0.0608
   61SAPC   H5R 4756   2.570   3.096  10.281  0.7486 -0.3812  2.0302
   61SAPC   C26 4757   2.707   3.059  10.134  0.0603  0.6268 -0.0189
   61SAPC   H6R 4758   2.626   3.093  10.068 -2.2719 -1.0183  1.8150
   61SAPC   C27 4759   2.834   3.011  10.066 -0.1616  0.1106 -0.6330
   61SAPC   H7R 4760   2.806   2.910  10.029  1.9604 -0.1239 -1.7175
   61SAPC   H7S 4761   2.923   3.001  10.132 -1.1445  0.2081  0.7584
   61SAPC   C28 4762   2.865   3.109   9.958 -0.7462  0.8167  0.6014
   61SAPC   H8R 4763   2.887   3.207  10.002  1.4003  0.3529  0.6576
   61SAPC   C29 4764   2.871   3.079   9.829  0.3442 -0.2947  0.4594
   61SAPC   H9R 4765   2.900   3.159   9.760  0.8891 -2.3697 -1.8823
   61SAPC  C210 4766   2.852   2.944   9.762  0.1069  0.0763  0.3021
   61SAPC  H10R 4767   2.818   2.868   9.835  1.4733 -0.6787  0.1853
   61SAPC  H10S 4768   2.945   2.904   9.716 -0.3619 -0.6802 -0.0031
   61SAPC  C211 4769   2.741   2.962   9.658 -0.5458 -0.0965  0.7187
   61SAPC  H11R 4770   2.642   2.982   9.699 -1.6904  1.3690 -2.4539
   61SAPC  C212 4771   2.761   2.970   9.523 -0.4568 -0.8360  0.1214
   61SAPC  H12R 4772   2.677   2.995   9.455 -0.5985  0.6347  0.7950
   61SAPC  C213 4773   2.896   2.965   9.444  0.1338 -0.0495 -0.9481
   61SAPC  H13R 4774   2.978   2.955   9.518 -1.3901  0.7007  0.9509
   61SAPC  H13S 4775   2.909   3.066   9.399  0.2724 -0.0362 -0.8795
   61SAPC  C214 4776   2.899   2.864   9.343 -0.1995  1.1168 -0.4942
   61SAPC  H14R 4777   2.937   2.768   9.382 -0.5987  1.7774  1.6335
   61SAPC  C215 4778   2.868   2.876   9.211 -0.1604  0.5686  0.0098
   61SAPC  H15R 4779   2.877   2.786   9.150  0.7189  0.7991 -0.2245
   61SAPC  C216 4780   2.830   3.003   9.137 -0.4459 -0.4367 -0.2824
   61SAPC  H16R 4781   2.896   3.013   9.049 -0.2230  2.2183  0.1171
   61SAPC  H16S 4782   2.840   3.098   9.193  0.1999 -0.3145 -0.5986
   61SAPC  C217 4783   2.682   2.972   9.093  0.6112  0.5002 -0.4168
   61SAPC  H17R 4784   2.621   3.002   9.181  2.3237 -2.6622  2.1033
   61SAPC  H17S 4785   2.668   2.863   9.074 -1.6609  0.7064 -0.1449
   61SAPC  C218 4786   2.648   3.047   8.964  0.6626 -0.0426 -0.2177
   61SAPC  H18R 4787   2.676   2.973   8.886  1.3261  1.3328 -1.3321
   61SAPC  H18S 4788   2.724   3.127   8.953  1.6996 -1.2141 -2.3819
   61SAPC  C219 4789   2.500   3.098   8.960 -0.3553 -0.5602 -0.1753
   61SAPC  H19R 4790   2.431   3.013   8.980  0.1790 -1.3242 -1.4729
   61SAPC  H19S 4791   2.472   3.130   8.858  1.4566 -0.5379 -0.6936
   61SAPC  C220 4792   2.473   3.219   9.052  0.4467 -0.2497  0.2674
   61SAPC  H20R 4793   2.369   3.254   9.033 -0.2239 -2.0055  0.5902
   61SAPC  H20S 4794   2.538   3.305   9.025  0.3761 -0.1582  0.3845
   61SAPC  H20T 4795   2.490   3.201   9.160  0.6686 -0.9660  0.1142
   61SAPC   C33 4796   2.969   3.592  10.071  0.1445 -0.0007 -0.2937
   61SAPC   H3X 4797   2.903   3.645  10.143  0.8634 -2.6376  2.5418
   61SAPC   H3Y 4798   2.902   3.547   9.994  0.9088 -1.3074 -0.2286
   61SAPC   C34 4799   3.055   3.697   9.997  0.1109 -0.0743  0.0893
   61SAPC   H4X 4800   3.119   3.752  10.069  0.6773 -1.6619  0.8436
   61SAPC   H4Y 4801   2.978   3.762   9.952 -1.1788 -0.2467  1.9569
   61SAPC   C35 4802   3.136   3.640   9.880 -0.2028 -0.1718 -0.1654
   61SAPC   H5X 4803   3.224   3.597   9.932  0.4398  0.5881 -0.6085
   61SAPC   H5Y 4804   3.171   3.723   9.815 -3.6778  0.6208 -1.2394
   61SAPC   C36 4805   3.067   3.538   9.783 -0.1851  0.9692  0.3039
   61SAPC   H6X 4806   3.014   3.596   9.704  1.5563  0.9683 -0.9122
   61SAPC   H6Y 4807   2.997   3.470   9.835  2.0978 -0.2283  1.9757
   61SAPC   C37 4808   3.180   3.460   9.708 -0.4175  0.4169  0.2717
   61SAPC   H7X 4809   3.232   3.392   9.778 -1.4360  0.3307  0.9628
   61SAPC   H7Y 4810   3.245   3.543   9.672 -1.2072  0.7653 -0.4010
   61SAPC   C38 4811   3.125   3.389   9.585 -0.5585 -0.5704 -0.1307
   61SAPC   H8X 4812   3.059   3.304   9.614 -1.1303  0.7222  2.7903
   61SAPC   H8Y 4813   3.208   3.346   9.526 -0.2080 -2.2194  1.4693
   61SAPC   C39 4814   3.043   3.471   9.483 -0.1073  0.2388 -0.2446
   61SAPC   H9X 4815   2.950   3.512   9.528 -1.3113 -1.2224 -1.3006
   61SAPC   H9Y 4816   3.016   3.405   9.398  0.2151  1.4532 -1.3088
   61SAPC  C310 4817   3.112   3.588   9.423 -0.1414 -0.9697 -0.0441
   61SAPC  H10X 4818   3.214   3.552   9.397  0.2393  0.7662 -1.1013
   61SAPC  H10Y 4819   3.108   3.674   9.493  0.2413  0.3857 -1.6330
   61SAPC  C311 4820   3.029   3.658   9.312 -0.2144 -0.3472  0.5383
   61SAPC  H11X 4821   3.069   3.760   9.291 -0.2906 -0.7789 -2.0276
   61SAPC  H11Y 4822   2.927   3.672   9.354  0.1811 -0.4224  1.5525
   61SAPC  C312 4823   3.040   3.590   9.176  0.1773 -0.3051  0.7948
   61SAPC  H12X 4824   3.013   3.485   9.198 -0.0657 -0.0890  1.5517
   61SAPC  H12Y 4825   3.144   3.588   9.137 -0.0730  1.2606 -0.0388
   61SAPC  C313 4826   2.949   3.645   9.067  0.3435  0.0102  0.1694
   61SAPC  H13X 4827   2.939   3.755   9.050  0.3329 -0.5724 -5.2776
   61SAPC  H13Y 4828   2.847   3.614   9.100 -0.2206  2.8932  1.4621
   61SAPC  C314 4829   2.987   3.575   8.939 -0.4111  0.3892  0.4024
   61SAPC  H14X 4830   3.052   3.485   8.945 -0.0150  0.7083  1.0086
   61SAPC  H14Y 4831   3.034   3.651   8.873  1.3145  0.4181  1.5955
   61SAPC  C315 4832   2.867   3.534   8.859  0.6757  0.2240 -0.5103
   61SAPC  H15X 4833   2.817   3.631   8.837  1.3520  0.9594  1.0502
   61SAPC  H15Y 4834   2.804   3.473   8.928 -0.7049  0.7196 -1.2825
   61SAPC  C316 4835   2.887   3.449   8.736  0.0535 -0.2563 -0.0270
   61SAPC  H16X 4836   2.933   3.350   8.758  1.8327  0.1370 -1.6772
   61SAPC  H16Y 4837   2.949   3.505   8.663  1.2317 -0.2006  0.9688
   61SAPC  C317 4838   2.753   3.432   8.656 -0.7649 -0.2019 -0.0812
   61SAPC  H17X 4839   2.783   3.395   8.556 -0.0858  0.5926 -0.1719
   61SAPC  H17Y 4840   2.692   3.523   8.640 -0.7695 -0.0080  0.9559
   61SAPC  C318 4841   2.664   3.335   8.736 -0.5729 -0.1948 -0.5116
   61SAPC  H18X 4842   2.564   3.309   8.695 -1.4132 -2.3529  2.5382
   61SAPC  H18Y 4843   2.658   3.373   8.840  1.9904  1.2156 -0.8059
   61SAPC  H18Z 4844   2.719   3.239   8.746  0.5755  0.4958  0.0044
   62SAPC     N 4845   2.036   1.976  11.002  0.9749 -0.0081 -0.4227
   62SAPC   C12 4846   1.922   2.075  10.979  0.3351  0.9497  0.0524
   62SAPC  H12A 4847   1.896   2.114  11.076  0.6714 -1.4034  1.1774
   62SAPC  H12B 4848   1.836   2.020  10.945  2.0318 -1.8592 -0.0277
   62SAPC   C13 4849   2.160   2.051  11.052 -0.2065  0.3379  0.8231
   62SAPC  H13A 4850   2.143   2.110  11.141  1.6654 -0.4462  1.7445
   62SAPC  H13B 4851   2.235   1.980  11.082 -0.6623  0.4552  2.3152
   62SAPC  H13C 4852   2.198   2.123  10.980  1.5652  0.2905  1.6680
   62SAPC   C14 4853   1.978   1.879  11.100  0.3977  0.4576  0.5715
   62SAPC  H14A 4854   1.892   1.838  11.049 -0.9708  0.6124  2.6380
   62SAPC  H14B 4855   2.048   1.797  11.110  0.7068  0.9890  3.6350
   62SAPC  H14C 4856   1.956   1.911  11.201 -2.7221 -0.7311  0.3960
   62SAPC   C15 4857   2.079   1.903  10.871  0.0701 -0.9817  0.4950
   62SAPC  H15A 4858   2.137   1.815  10.894  0.6044 -0.6783  0.3173
   62SAPC  H15B 4859   1.994   1.870  10.812  1.9301  0.8966 -3.6891
   62SAPC  H15C 4860   2.134   1.975  10.812 -2.3944  1.1825  0.6622
   62SAPC   C11 4861   1.929   2.184  10.875  0.0377 -0.3009 -0.0994
   62SAPC  H11A 4862   1.830   2.233  10.886  0.9538  2.4633 -2.9622
   62SAPC  H11B 4863   1.932   2.153  10.769  1.3573  2.3813 -0.9164
   62SAPC     P 4864   2.136   2.316  10.803  0.0354 -0.2038  0.1226
   62SAPC   O13 4865   2.196   2.452  10.834  0.2380  0.2079  0.0508
   62SAPC   O14 4866   2.236   2.205  10.788  0.0243 -0.4257  0.3341
   62SAPC   O12 4867   2.027   2.276  10.915 -0.2960  0.0051  0.0725
   62SAPC   O11 4868   2.047   2.326  10.669  0.0219 -0.0817 -0.0755
   62SAPC    C1 4869   1.970   2.446  10.651  0.2309 -0.4887  0.5986
   62SAPC    HA 4870   1.884   2.439  10.719 -0.7313 -2.4879 -0.7278
   62SAPC    HB 4871   2.035   2.534  10.672  0.3064 -0.9104  2.2784
   62SAPC    C2 4872   1.932   2.446  10.500 -0.2965  0.2786  0.8351
   62SAPC    HS 4873   1.902   2.345  10.467  1.0494  0.5503 -1.4513
   62SAPC   O21 4874   2.041   2.496  10.416 -0.5515  0.4630  0.0654
   62SAPC   C21 4875   2.090   2.415  10.329  0.3782 -0.3651 -0.2907
   62SAPC   O22 4876   2.054   2.298  10.314  0.1698  0.0038  0.5700
   62SAPC   C22 4877   2.194   2.484  10.251 -0.1963 -0.4175 -0.3543
   62SAPC   H2R 4878   2.173   2.593  10.252 -0.7916 -0.5257 -0.6997
   62SAPC   H2S 4879   2.288   2.469  10.308 -0.8754 -0.5016  0.7848
   62SAPC    C3 4880   1.807   2.535  10.467  1.0759 -0.7622 -0.1717
   62SAPC    HX 4881   1.846   2.635  10.495 -1.3650  0.3582 -0.5266
   62SAPC    HY 4882   1.732   2.511  10.546  2.1690  1.0803  1.5046
   62SAPC   O31 4883   1.743   2.525  10.335 -0.4431 -0.4252 -0.6944
   62SAPC   C31 4884   1.786   2.589  10.224 -0.3522  1.1333 -0.1119
   62SAPC   O32 4885   1.858   2.686  10.228  0.2599 -0.8569  0.0654
   62SAPC   C32 4886   1.726   2.532  10.099  0.0321 -0.6559  0.3295
   62SAPC   H2X 4887   1.618   2.545  10.119  0.7781  3.5085  2.8159
   62SAPC   H2Y 4888   1.758   2.427  10.084  1.7781  0.0302 -1.0510
   62SAPC   C23 4889   2.221   2.415  10.119  0.2894  0.1037  0.1759
   62SAPC   H3R 4890   2.221   2.306  10.139  1.5266  0.0548 -0.0066
   62SAPC   H3S 4891   2.324   2.435  10.085 -0.1370  0.1710 -1.1112
   62SAPC   C24 4892   2.132   2.445   9.995  0.1348  0.0087 -0.2929
   62SAPC   H4R 4893   2.022   2.434  10.006  0.0646  0.6046 -0.3778
   62SAPC   H4S 4894   2.152   2.364   9.922  0.3255  1.2378 -1.6556
   62SAPC   C25 4895   2.168   2.573   9.928  0.8439  0.9525 -0.1616
   62SAPC   H5R 4896   2.150   2.660   9.993 -0.5865 -0.3774  1.3143
   62SAPC   C26 4897   2.219   2.581   9.805 -0.4159 -0.8401  0.0666
   62SAPC   H6R 4898   2.254   2.682   9.778 -1.2512  0.9231  4.5320
   62SAPC   C27 4899   2.248   2.470   9.710 -0.3408  0.7048 -0.8467
   62SAPC   H7R 4900   2.302   2.389   9.765 -2.9152 -0.8070 -0.3481
   62SAPC   H7S 4901   2.317   2.492   9.627 -0.7810 -0.8329 -1.6735
   62SAPC   C28 4902   2.126   2.403   9.644 -0.5197 -0.2204 -0.2411
   62SAPC   H8R 4903   2.100   2.313   9.700 -0.6990 -0.8282 -1.2785
   62SAPC   C29 4904   2.056   2.446   9.546  0.2455 -0.2285  0.2691
   62SAPC   H9R 4905   1.967   2.397   9.505 -1.4823  2.4342  0.5470
   62SAPC  C210 4906   2.078   2.576   9.474 -0.4010 -0.3990  0.3409
   62SAPC  H10R 4907   2.171   2.576   9.413 -0.7058  0.3987 -0.1493
   62SAPC  H10S 4908   2.109   2.659   9.541  0.3785 -0.7079  0.3694
   62SAPC  C211 4909   1.960   2.627   9.392 -0.3666  0.6798  0.0366
   62SAPC  H11R 4910   1.902   2.694   9.456  1.0686 -0.6903  2.9806
   62SAPC  C212 4911   1.942   2.601   9.263  0.2951 -0.3181 -0.5138
   62SAPC  H12R 4912   1.863   2.646   9.201  0.7431 -2.4723 -2.8514
   62SAPC  C213 4913   2.028   2.515   9.172 -0.0604 -0.6239  0.2505
   62SAPC  H13R 4914   1.964   2.433   9.133 -0.4921 -0.2586  0.1728
   62SAPC  H13S 4915   2.113   2.471   9.228  0.5286 -1.2192 -1.0693
   62SAPC  C214 4916   2.085   2.609   9.068  0.2305  0.2699  0.3222
   62SAPC  H14R 4917   2.146   2.691   9.108  1.1442  0.0890 -0.6416
   62SAPC  C215 4918   2.081   2.605   8.935  0.3520  0.0418 -0.2606
   62SAPC  H15R 4919   2.121   2.690   8.878  0.8210 -0.7015 -1.0600
   62SAPC  C216 4920   2.010   2.504   8.848  1.1277 -1.1790 -0.1738
   62SAPC  H16R 4921   1.973   2.421   8.912 -0.1251 -0.0586  0.6156
   62SAPC  H16S 4922   2.094   2.465   8.787  2.2654  1.7652 -0.6970
   62SAPC  C217 4923   1.891   2.546   8.760 -0.2022  0.1384 -0.0369
   62SAPC  H17R 4924   1.935   2.608   8.679 -1.3472  0.1115 -0.7030
   62SAPC  H17S 4925   1.816   2.615   8.805  0.9356  1.0293  0.5400
   62SAPC  C218 4926   1.822   2.432   8.694  0.3827 -0.2950  0.2899
   62SAPC  H18R 4927   1.794   2.348   8.761 -0.4861 -1.4595 -1.4472
   62SAPC  H18S 4928   1.899   2.383   8.631 -1.0914 -1.6790 -0.5283
   62SAPC  C219 4929   1.700   2.467   8.609 -0.6645 -0.4162 -0.1704
   62SAPC  H19R 4930   1.623   2.477   8.689  0.7746 -1.1078  1.3469
   62SAPC  H19S 4931   1.654   2.387   8.547 -2.4853  0.8816 -0.5748
   62SAPC  C220 4932   1.712   2.595   8.535  0.2800 -0.0426 -0.1326
   62SAPC  H20R 4933   1.795   2.601   8.462 -1.2679  1.6753 -1.8385
   62SAPC  H20S 4934   1.734   2.672   8.611  1.5538 -0.1189 -0.4158
   62SAPC  H20T 4935   1.621   2.620   8.475  0.7559  1.5581 -0.2118
   62SAPC   C33 4936   1.758   2.624   9.980 -0.6203 -0.0056 -0.2682
   62SAPC   H3X 4937   1.866   2.651   9.975 -0.9620  1.2768 -1.3159
   62SAPC   H3Y 4938   1.700   2.717   9.991  0.3964  0.8843 -1.9600
   62SAPC   C34 4939   1.740   2.557   9.842 -0.5221 -0.0065  0.4429
   62SAPC   H4X 4940   1.633   2.553   9.811  0.1620 -1.4400 -1.9736
   62SAPC   H4Y 4941   1.762   2.449   9.849  0.6312  0.2704  1.3537
   62SAPC   C35 4942   1.802   2.638   9.728  0.2657  0.1281  0.4130
   62SAPC   H5X 4943   1.797   2.575   9.637 -1.5560 -0.3070  0.7772
   62SAPC   H5Y 4944   1.909   2.644   9.758  0.3423  0.4219  0.0919
   62SAPC   C36 4945   1.750   2.782   9.713 -0.5188 -0.2842  0.1168
   62SAPC   H6X 4946   1.803   2.844   9.637 -0.5575 -0.7850 -0.3221
   62SAPC   H6Y 4947   1.761   2.830   9.812  1.4937  0.9080 -0.6234
   62SAPC   C37 4948   1.602   2.778   9.683 -0.0482 -0.3202  0.0824
   62SAPC   H7X 4949   1.564   2.881   9.667  2.3318  0.6626  0.4071
   62SAPC   H7Y 4950   1.541   2.739   9.768  0.6346 -0.0605  0.6951
   62SAPC   C38 4951   1.561   2.682   9.561  0.1603 -1.1510  0.5390
   62SAPC   H8X 4952   1.451   2.669   9.560 -0.5507  3.0578  1.9839
   62SAPC   H8Y 4953   1.626   2.592   9.561  0.4319 -0.9604  0.9669
   62SAPC   C39 4954   1.579   2.767   9.435 -0.6013  0.2790  1.3024
   62SAPC   H9X 4955   1.677   2.820   9.434 -0.3498 -0.1511 -0.4945
   62SAPC   H9Y 4956   1.493   2.835   9.417  0.7284  1.4803 -1.0546
   62SAPC  C310 4957   1.581   2.664   9.317 -0.1998  0.0403  0.4641
   62SAPC  H10X 4958   1.512   2.581   9.345 -1.4357  0.6718 -0.5591
   62SAPC  H10Y 4959   1.679   2.613   9.320 -0.1297  0.1865  0.6430
   62SAPC  C311 4960   1.548   2.729   9.187  0.1690 -0.5924 -0.4844
   62SAPC  H11X 4961   1.614   2.817   9.171 -1.0949  0.0342 -2.6322
   62SAPC  H11Y 4962   1.446   2.775   9.190 -0.5715 -2.0519 -1.9052
   62SAPC  C312 4963   1.543   2.638   9.068  0.3426  0.6188 -0.0172
   62SAPC  H12X 4964   1.478   2.553   9.098  1.2578 -1.2839 -2.9852
   62SAPC  H12Y 4965   1.648   2.611   9.042  0.8647  2.7147 -0.2686
   62SAPC  C313 4966   1.491   2.697   8.935 -0.5663 -0.2732 -0.5855
   62SAPC  H13X 4967   1.395   2.745   8.964  0.1872  1.0555 -0.1542
   62SAPC  H13Y 4968   1.474   2.615   8.862  0.6314 -0.7736 -0.3262
   62SAPC  C314 4969   1.581   2.804   8.869  0.4473 -0.2632  0.5439
   62SAPC  H14X 4970   1.682   2.769   8.839  0.6485  0.8240 -0.1260
   62SAPC  H14Y 4971   1.595   2.889   8.940  0.4066 -2.0236  2.7688
   62SAPC  C315 4972   1.502   2.867   8.749  0.4585 -0.2387 -0.4854
   62SAPC  H15X 4973   1.401   2.904   8.778  0.4142 -0.3120 -0.5431
   62SAPC  H15Y 4974   1.497   2.793   8.666 -0.5400  1.3918 -1.9390
   62SAPC  C316 4975   1.574   3.001   8.704 -0.5378 -0.1208 -0.1186
   62SAPC  H16X 4976   1.664   2.987   8.640 -0.3655  1.1501 -0.1739
   62SAPC  H16Y 4977   1.617   3.045   8.797 -0.0063  0.0768 -0.4573
   62SAPC  C317 4978   1.487   3.109   8.642  0.5924 -0.1229 -0.8800
   62SAPC  H17X 4979   1.431   3.160   8.723 -0.7579 -1.0291 -1.1998
   62SAPC  H17Y 4980   1.417   3.061   8.570 -2.1310  2.1319  0.0544
   62SAPC  C318 4981   1.570   3.215   8.578 -0.2764  0.7585  1.0164
   62SAPC  H18X 4982   1.502   3.280   8.519  1.2850  2.1641  0.6907
   62SAPC  H18Y 4983   1.658   3.179   8.521 -0.5010  0.0100  1.1387
   62SAPC  H18Z 4984   1.608   3.281   8.659 -0.4190 -0.7690  2.3740
   63SAPC     N 4985   6.124   0.965   6.438 -0.0804  0.2326 -0.2042
   63SAPC   C12 4986   6.190   1.096   6.479  0.0880  0.1573  0.3683
   63SAPC  H12A 4987   6.204   1.150   6.386 -0.8734  1.3796  0.9087
   63SAPC  H12B 4988   6.293   1.083   6.507  0.5965  0.9393 -1.0222
   63SAPC   C13 4989   6.020   0.981   6.342  0.1972 -0.4634  0.5967
   63SAPC  H13A 4990   5.938   1.047   6.370  0.4835  0.6704 -1.0985
   63SAPC  H13B 4991   6.058   1.024   6.251 -1.3205  3.2543  1.5247
   63SAPC  H13C 4992   5.969   0.888   6.320  0.6997 -1.0166  1.6908
   63SAPC   C14 4993   6.233   0.892   6.365 -0.0595  0.3752  0.3034
   63SAPC  H14A 4994   6.316   0.879   6.433  0.1786  0.5915  0.0581
   63SAPC  H14B 4995   6.199   0.792   6.344  1.6089  0.0508 -1.1396
   63SAPC  H14C 4996   6.262   0.943   6.274 -2.2123  1.1240 -0.0270
   63SAPC   C15 4997   6.081   0.879   6.557  0.0694 -0.2320  0.9823
   63SAPC  H15A 4998   6.159   0.875   6.631 -0.0219 -0.8261  1.0532
   63SAPC  H15B 4999   5.996   0.928   6.603  1.2103  1.3087  1.5034
   63SAPC  H15C 5000   6.053   0.781   6.520 -0.4414  0.0137  0.7028
   63SAPC   C11 5001   6.125   1.186   6.576  0.6076 -0.0819  0.0173
   63SAPC  H11A 5002   6.198   1.266   6.603  0.1595  0.6128 -0.7747
   63SAPC  H11B 5003   6.101   1.131   6.669 -1.5323  1.7987  0.6803
   63SAPC     P 5004   6.006   1.377   6.446 -0.4304  0.1954  0.5360
   63SAPC   O13 5005   6.133   1.380   6.362  0.4295  0.3069 -0.0151
   63SAPC   O14 5006   5.880   1.392   6.367  0.2688 -0.2066 -0.6618
   63SAPC   O12 5007   6.002   1.242   6.525  0.0896  0.0411 -0.4657
   63SAPC   O11 5008   6.009   1.492   6.552  0.2208  0.4305  0.5443
   63SAPC    C1 5009   5.928   1.491   6.667 -0.2327 -0.1427 -0.7638
   63SAPC    HA 5010   5.829   1.536   6.645 -1.1374 -1.6170  0.1469
   63SAPC    HB 5011   5.913   1.387   6.703  1.2591  0.1081  0.7219
   63SAPC    C2 5012   5.998   1.569   6.786  0.4905 -0.4113 -0.2921
   63SAPC    HS 5013   5.958   1.549   6.888  0.1413  2.6831  0.2726
   63SAPC   O21 5014   5.980   1.706   6.768 -0.7618  0.1207  0.6378
   63SAPC   C21 5015   5.858   1.759   6.777  0.2348  0.9042 -0.4300
   63SAPC   O22 5016   5.748   1.711   6.779  0.1532  0.3529 -0.0639
   63SAPC   C22 5017   5.878   1.907   6.763 -0.2412  0.2531  0.3165
   63SAPC   H2R 5018   5.958   1.925   6.838  1.1229 -2.6882 -0.2889
   63SAPC   H2S 5019   5.905   1.940   6.660  0.8272 -0.9603  0.1786
   63SAPC    C3 5020   6.145   1.539   6.796 -0.6640  0.0754  0.5229
   63SAPC    HX 5021   6.199   1.561   6.702  0.0441 -0.5597  0.7633
   63SAPC    HY 5022   6.163   1.429   6.799  1.2218  0.3651  1.0633
   63SAPC   O31 5023   6.220   1.608   6.900 -0.7709  0.3440  0.6912
   63SAPC   C31 5024   6.193   1.564   7.017 -0.7419 -0.0272 -0.2995
   63SAPC   O32 5025   6.111   1.476   7.047  0.1027  0.0126 -0.2366
   63SAPC   C32 5026   6.283   1.640   7.118  0.5693  0.1395 -0.2891
   63SAPC   H2X 5027   6.264   1.748   7.101  0.0141  0.6524  2.8917
   63SAPC   H2Y 5028   6.389   1.620   7.092 -0.0203 -2.0140 -1.2098
   63SAPC   C23 5029   5.752   1.978   6.801  0.1729 -0.1976 -0.3989
   63SAPC   H3R 5030   5.658   1.934   6.762 -1.2368  1.4972  0.8710
   63SAPC   H3S 5031   5.755   2.077   6.750  3.0755 -0.1872 -0.3399
   63SAPC   C24 5032   5.745   2.004   6.955  0.2618 -0.0875 -0.1307
   63SAPC   H4R 5033   5.668   2.083   6.969  0.5323  0.6450 -2.3617
   63SAPC   H4S 5034   5.840   2.053   6.984 -0.6318  1.6331  0.0055
   63SAPC   C25 5035   5.716   1.877   7.038  0.3916 -0.0614 -0.6032
   63SAPC   H5R 5036   5.628   1.815   7.015 -0.6154  1.0517  0.1688
   63SAPC   C26 5037   5.781   1.848   7.154 -0.0149 -0.7129 -0.3646
   63SAPC   H6R 5038   5.739   1.760   7.205 -1.5374  0.2154  0.0597
   63SAPC   C27 5039   5.897   1.911   7.231 -0.4438 -0.2241  0.2472
   63SAPC   H7R 5040   5.972   1.953   7.159  0.3244  2.2210  2.3096
   63SAPC   H7S 5041   5.950   1.827   7.280 -0.2751 -1.0485 -1.2757
   63SAPC   C28 5042   5.837   2.012   7.327  0.2164 -0.8850 -0.1935
   63SAPC   H8R 5043   5.757   2.072   7.279  2.5024  0.8151 -2.1113
   63SAPC   C29 5044   5.885   2.042   7.448  0.4593  0.5446  0.5570
   63SAPC   H9R 5045   5.835   2.116   7.512  3.3878  2.9667  0.2784
   63SAPC  C210 5046   6.002   1.981   7.517 -0.2545 -0.1955 -0.2375
   63SAPC  H10R 5047   6.084   2.003   7.444 -0.0926 -1.6154 -0.5109
   63SAPC  H10S 5048   5.993   1.870   7.521 -0.6972 -0.1212  2.0199
   63SAPC  C211 5049   6.056   2.054   7.633 -0.4372  0.7512  0.2667
   63SAPC  H11R 5050   6.066   2.163   7.624 -1.0523  0.6777 -2.0318
   63SAPC  C212 5051   6.104   1.993   7.745  1.2404  0.0166  0.3878
   63SAPC  H12R 5052   6.128   2.062   7.827 -0.6522  1.0332  0.1419
   63SAPC  C213 5053   6.108   1.847   7.777  0.6804 -0.5750 -0.3277
   63SAPC  H13R 5054   6.078   1.787   7.689 -0.3529  1.9904 -1.8276
   63SAPC  H13S 5055   6.027   1.840   7.853 -0.0929 -0.3781 -1.1135
   63SAPC  C214 5056   6.241   1.805   7.835  0.1298  0.3438 -0.8754
   63SAPC  H14R 5057   6.314   1.781   7.757  1.0555  1.0940 -0.2620
   63SAPC  C215 5058   6.274   1.786   7.966 -0.0361 -1.5174 -0.4075
   63SAPC  H15R 5059   6.381   1.764   7.980  0.5087  1.8628  2.0243
   63SAPC  C216 5060   6.183   1.816   8.078  0.1520 -0.2287  0.0082
   63SAPC  H16R 5061   6.081   1.785   8.045 -0.8028  0.6121  2.0243
   63SAPC  H16S 5062   6.183   1.926   8.093 -0.8697  0.2786 -2.9728
   63SAPC  C217 5063   6.219   1.742   8.201  0.4196  0.3205  0.1627
   63SAPC  H17R 5064   6.211   1.633   8.178 -3.6786  0.3570  0.6303
   63SAPC  H17S 5065   6.137   1.762   8.272  1.0492 -1.5382  1.4836
   63SAPC  C218 5066   6.345   1.774   8.286 -0.0150 -0.4189 -0.4776
   63SAPC  H18R 5067   6.353   1.883   8.306 -2.8029 -0.0285 -1.0336
   63SAPC  H18S 5068   6.438   1.747   8.231  0.4020  1.1724 -0.6140
   63SAPC  C219 5069   6.341   1.707   8.427  0.2834  0.1191  0.6106
   63SAPC  H19R 5070   6.349   1.597   8.421 -0.3602  0.0243  1.3196
   63SAPC  H19S 5071   6.236   1.727   8.457 -0.3711 -1.1679 -0.7306
   63SAPC  C220 5072   6.427   1.768   8.533  0.1393 -0.8021 -0.7881
   63SAPC  H20R 5073   6.413   1.878   8.533 -1.3095 -0.9493  0.1065
   63SAPC  H20S 5074   6.536   1.758   8.513  0.3517  0.2016 -0.1568
   63SAPC  H20T 5075   6.404   1.724   8.633  4.4401 -0.5931  0.5038
   63SAPC   C33 5076   6.258   1.590   7.266 -0.4275 -0.2913 -0.4732
   63SAPC   H3X 5077   6.270   1.480   7.270  1.0990 -0.1780 -1.1539
   63SAPC   H3Y 5078   6.156   1.621   7.297 -0.5034 -3.0988  2.5829
   63SAPC   C34 5079   6.374   1.636   7.359 -0.0056 -0.0872 -0.2458
   63SAPC   H4X 5080   6.479   1.636   7.322  0.3634  0.3810  0.7617
   63SAPC   H4Y 5081   6.366   1.559   7.439 -0.5641  0.1150 -0.1085
   63SAPC   C35 5082   6.356   1.773   7.432  0.3214 -1.0085  0.1229
   63SAPC   H5X 5083   6.258   1.762   7.483 -1.7340  0.8943 -3.0239
   63SAPC   H5Y 5084   6.337   1.846   7.350 -0.0965 -0.1552  0.9574
   63SAPC   C36 5085   6.472   1.827   7.526 -0.2948  0.0083 -0.0215
   63SAPC   H6X 5086   6.433   1.908   7.592  0.9875  1.2689 -0.7496
   63SAPC   H6Y 5087   6.543   1.889   7.467 -0.9223  0.9607  0.2105
   63SAPC   C37 5088   6.544   1.711   7.601  1.0455  0.9236  0.3709
   63SAPC   H7X 5089   6.621   1.659   7.540 -1.4133 -1.1603 -1.1594
   63SAPC   H7Y 5090   6.467   1.631   7.611 -0.1103  1.7606 -1.4007
   63SAPC   C38 5091   6.603   1.759   7.738 -0.3663  0.2860  0.4018
   63SAPC   H8X 5092   6.519   1.773   7.809 -1.7123 -0.5741 -0.9741
   63SAPC   H8Y 5093   6.673   1.844   7.723  1.8161 -1.1962  1.4939
   63SAPC   C39 5094   6.677   1.641   7.809  0.3911  0.4224 -0.5548
   63SAPC   H9X 5095   6.767   1.609   7.752  0.1621  0.8000 -1.1373
   63SAPC   H9Y 5096   6.602   1.561   7.827  0.2711  1.0113  1.9184
   63SAPC  C310 5097   6.737   1.664   7.949  0.5753 -0.3963  0.4099
   63SAPC  H10X 5098   6.790   1.573   7.984  1.7426 -0.0217 -0.3049
   63SAPC  H10Y 5099   6.647   1.671   8.013  1.1725 -0.5992  1.2817
   63SAPC  C311 5100   6.822   1.789   7.951 -0.4655  0.4017 -1.2528
   63SAPC  H11X 5101   6.762   1.880   7.928 -2.0085  0.2790  1.8365
   63SAPC  H11Y 5102   6.900   1.774   7.874 -1.0995 -1.4610 -1.5741
   63SAPC  C312 5103   6.891   1.824   8.089  0.0321 -0.4858  0.5932
   63SAPC  H12X 5104   6.939   1.923   8.073  0.7208 -0.6652  1.4477
   63SAPC  H12Y 5105   6.974   1.756   8.118 -0.7717 -0.5426  2.9721
   63SAPC  C313 5106   6.810   1.833   8.217  0.5259 -0.0347  0.4210
   63SAPC  H13X 5107   6.765   1.735   8.242 -2.1163  0.5175 -1.6536
   63SAPC  H13Y 5108   6.720   1.898   8.205 -0.4740 -1.2444  1.1731
   63SAPC  C314 5109   6.905   1.871   8.331  0.1686 -0.1419 -0.1642
   63SAPC  H14X 5110   6.951   1.970   8.310  0.1144 -0.0246  0.2665
   63SAPC  H14Y 5111   6.984   1.794   8.318 -1.4343 -1.6901 -1.1593
   63SAPC  C315 5112   6.825   1.856   8.465  0.3610 -0.6685  0.0184
   63SAPC  H15X 5113   6.785   1.753   8.472 -0.7692 -0.2821 -0.6656
   63SAPC  H15Y 5114   6.746   1.933   8.480  2.9936  2.5329 -1.0984
   63SAPC  C316 5115   6.918   1.867   8.592 -0.1032  0.6834  0.2332
   63SAPC  H16X 5116   6.944   1.973   8.612  1.3029  0.3745  0.1735
   63SAPC  H16Y 5117   7.011   1.810   8.572  0.4103  1.5318  0.1601
   63SAPC  C317 5118   6.852   1.805   8.712  0.1448  0.3974 -0.1652
   63SAPC  H17X 5119   6.750   1.848   8.722 -0.4674 -0.9846 -0.2151
   63SAPC  H17Y 5120   6.913   1.857   8.789 -1.1061  1.8357 -0.0954
   63SAPC  C318 5121   6.849   1.658   8.735 -0.8293 -0.2849  0.0053
   63SAPC  H18X 5122   6.949   1.617   8.708  0.5477  3.9276 -2.2203
   63SAPC  H18Y 5123   6.770   1.605   8.677  0.3816 -0.0557 -1.9323
   63SAPC  H18Z 5124   6.811   1.640   8.838 -0.4644  0.1082  0.2084
   64SAPC     N 5125   1.277   1.430   6.219  0.7558  0.1510 -0.2645
   64SAPC   C12 5126   1.401   1.427   6.298 -0.5415 -0.1652  0.2524
   64SAPC  H12A 5127   1.455   1.340   6.266  0.2527  0.0144  1.0809
   64SAPC  H12B 5128   1.383   1.391   6.398  2.1420 -1.2836  0.4096
   64SAPC   C13 5129   1.189   1.551   6.256  0.1262 -0.1073 -0.2964
   64SAPC  H13A 5130   1.237   1.646   6.237  0.2016  0.0499  0.6387
   64SAPC  H13B 5131   1.088   1.549   6.217  0.4532  2.3040 -1.4080
   64SAPC  H13C 5132   1.176   1.553   6.363 -0.5521 -0.6180 -0.3570
   64SAPC   C14 5133   1.302   1.451   6.078  0.6755  0.1205  0.3563
   64SAPC  H14A 5134   1.368   1.534   6.058  1.6832 -0.8469 -0.4531
   64SAPC  H14B 5135   1.341   1.364   6.027  0.5532  0.3507 -0.1298
   64SAPC  H14C 5136   1.214   1.467   6.017  1.1437 -0.2232 -0.4157
   64SAPC   C15 5137   1.206   1.303   6.232  0.5261  0.4806  0.2808
   64SAPC  H15A 5138   1.105   1.311   6.196  0.5761  0.8752  0.2276
   64SAPC  H15B 5139   1.248   1.230   6.164 -1.2993  1.0736 -1.5719
   64SAPC  H15C 5140   1.214   1.267   6.334  1.1843 -0.1262  0.0274
   64SAPC   C11 5141   1.497   1.552   6.281  0.1127 -0.4063 -0.2601
   64SAPC  H11A 5142   1.573   1.555   6.362 -1.0780  0.5588  0.8628
   64SAPC  H11B 5143   1.436   1.643   6.299  0.2209 -0.6928  1.9080
   64SAPC     P 5144   1.649   1.422   6.122 -0.2437 -0.3436  0.4541
   64SAPC   O13 5145   1.564   1.307   6.096  0.7877  0.0683  0.1832
   64SAPC   O14 5146   1.753   1.453   6.019  0.0546 -0.1389 -0.6469
   64SAPC   O12 5147   1.565   1.551   6.156 -0.3349 -0.6358  0.7757
   64SAPC   O11 5148   1.724   1.390   6.261  1.0417  0.1254  1.1726
   64SAPC    C1 5149   1.865   1.392   6.264 -0.2128  0.2385 -0.2566
   64SAPC    HA 5150   1.910   1.318   6.195 -0.5887 -1.3177  1.0982
   64SAPC    HB 5151   1.911   1.488   6.232  0.0765  0.4871  0.8613
   64SAPC    C2 5152   1.923   1.343   6.399 -0.3627 -0.0525 -0.1559
   64SAPC    HS 5153   2.015   1.404   6.414  0.4800 -1.0702 -1.0579
   64SAPC   O21 5154   1.944   1.202   6.392 -0.7815  0.3518  0.1750
   64SAPC   C21 5155   2.036   1.153   6.469 -0.1596  0.0950 -0.5392
   64SAPC   O22 5156   2.116   1.215   6.538 -0.1244 -0.2714  0.2771
   64SAPC   C22 5157   2.045   1.002   6.459  0.0464  0.0595  0.1021
   64SAPC   H2R 5158   2.033   0.960   6.357  3.0258 -1.0987  0.1192
   64SAPC   H2S 5159   2.150   0.970   6.478  0.6755  2.2873  0.6969
   64SAPC    C3 5160   1.832   1.383   6.528  0.4578 -0.3893  0.4807
   64SAPC    HX 5161   1.742   1.317   6.532 -0.3260  0.6851  0.9937
   64SAPC    HY 5162   1.813   1.489   6.502  1.9748 -0.0975  0.4452
   64SAPC   O31 5163   1.903   1.385   6.652 -0.2968 -0.0558 -0.2442
   64SAPC   C31 5164   1.878   1.292   6.745  0.7620 -0.0495 -0.3059
   64SAPC   O32 5165   1.794   1.203   6.741  0.1213 -0.2589  0.0754
   64SAPC   C32 5166   1.977   1.323   6.855 -1.0451 -0.0184 -0.3777
   64SAPC   H2X 5167   1.955   1.427   6.887  1.4969  0.0884  1.2716
   64SAPC   H2Y 5168   2.080   1.311   6.818 -0.8876  0.8841 -0.2560
   64SAPC   C23 5169   1.951   0.937   6.567 -0.2859 -0.9699 -0.5577
   64SAPC   H3R 5170   1.845   0.955   6.539 -0.2066  0.3349 -0.0956
   64SAPC   H3S 5171   1.960   0.986   6.666 -2.9064  1.7295 -1.4941
   64SAPC   C24 5172   1.983   0.789   6.595 -0.5037  0.6068  0.8234
   64SAPC   H4R 5173   1.997   0.733   6.500 -0.7790  1.6495  0.1459
   64SAPC   H4S 5174   1.897   0.737   6.642 -1.0330  0.8780  0.1650
   64SAPC   C25 5175   2.102   0.782   6.688 -0.2842  0.2905 -0.0497
   64SAPC   H5R 5176   2.193   0.836   6.659 -0.9872  2.4835  1.5537
   64SAPC   C26 5177   2.113   0.717   6.805  0.4973 -0.7555 -0.3025
   64SAPC   H6R 5178   2.203   0.732   6.866  1.6895  1.3199 -2.4218
   64SAPC   C27 5179   1.998   0.642   6.884 -0.2838  0.1835  0.8781
   64SAPC   H7R 5180   1.901   0.687   6.852 -0.4095  1.7456  3.1706
   64SAPC   H7S 5181   2.003   0.664   6.993  0.2941 -1.5470  1.2253
   64SAPC   C28 5182   1.992   0.494   6.852 -0.4178  0.2433  0.0461
   64SAPC   H8R 5183   2.022   0.459   6.752  1.0553 -1.3385  0.9613
   64SAPC   C29 5184   1.966   0.404   6.943 -1.0674 -0.7328 -0.2471
   64SAPC   H9R 5185   1.985   0.297   6.924  1.2330 -0.6548  1.2614
   64SAPC  C210 5186   1.937   0.437   7.084  0.0667 -0.0190  0.4762
   64SAPC  H10R 5187   1.981   0.531   7.124 -0.1029 -0.2927  1.3254
   64SAPC  H10S 5188   1.995   0.366   7.148  3.4214  1.0321 -1.1572
   64SAPC  C211 5189   1.795   0.453   7.123 -0.2949 -0.3137 -0.6460
   64SAPC  H11R 5190   1.714   0.466   7.050 -1.3905  3.9336  1.0242
   64SAPC  C212 5191   1.747   0.456   7.248  0.4683  0.7521  0.6227
   64SAPC  H12R 5192   1.641   0.477   7.269  0.1237  0.6013 -0.8261
   64SAPC  C213 5193   1.823   0.438   7.374  0.0548  0.1208  0.1264
   64SAPC  H13R 5194   1.913   0.378   7.351 -0.3842 -1.0704  1.3569
   64SAPC  H13S 5195   1.756   0.378   7.439  0.4536 -1.0345 -0.5094
   64SAPC  C214 5196   1.866   0.572   7.432 -0.5630  0.2311  0.4489
   64SAPC  H14R 5197   1.915   0.645   7.366  0.4781 -0.0296  0.9138
   64SAPC  C215 5198   1.849   0.606   7.559  0.3456 -0.2136 -0.4802
   64SAPC  H15R 5199   1.882   0.705   7.594  1.7340 -0.1539 -1.8648
   64SAPC  C216 5200   1.777   0.525   7.665  0.3620  0.2078  0.8056
   64SAPC  H16R 5201   1.813   0.560   7.764  1.0965 -0.9574  0.9667
   64SAPC  H16S 5202   1.801   0.418   7.654 -1.8140 -0.2861  0.2371
   64SAPC  C217 5203   1.621   0.540   7.660  0.2293  0.0917 -0.1160
   64SAPC  H17R 5204   1.581   0.515   7.559  1.6848  0.1659 -0.7384
   64SAPC  H17S 5205   1.606   0.649   7.676  0.5652  0.1904 -0.4432
   64SAPC  C218 5206   1.547   0.459   7.767 -0.2683  0.3388  0.0332
   64SAPC  H18R 5207   1.564   0.351   7.746 -0.6040  0.2343  0.3002
   64SAPC  H18S 5208   1.438   0.478   7.765 -0.2067  0.9026  1.1130
   64SAPC  C219 5209   1.603   0.485   7.906  0.3913  0.2750  0.7817
   64SAPC  H19R 5210   1.584   0.589   7.938 -2.4597  0.7977 -2.1528
   64SAPC  H19S 5211   1.711   0.459   7.913  0.3148 -0.1801  0.3205
   64SAPC  C220 5212   1.532   0.405   8.018 -0.0162  0.4178  0.2086
   64SAPC  H20R 5213   1.578   0.305   8.031 -2.2081 -0.6763  0.0092
   64SAPC  H20S 5214   1.423   0.403   7.996  0.2542 -2.9026 -1.4834
   64SAPC  H20T 5215   1.552   0.463   8.111 -0.2888  1.7784 -0.5591
   64SAPC   C33 5216   1.961   1.225   6.972 -0.2764  0.6657  0.5048
   64SAPC   H3X 5217   2.017   1.134   6.940 -2.2753  0.3135 -2.3268
   64SAPC   H3Y 5218   1.852   1.204   6.983 -0.5693  0.8825 -1.6317
   64SAPC   C34 5219   2.019   1.290   7.099 -0.1606  1.1197  0.1566
   64SAPC   H4X 5220   1.977   1.393   7.103 -1.6380  0.5573 -0.3768
   64SAPC   H4Y 5221   2.130   1.288   7.095 -0.2047 -1.1330 -1.8939
   64SAPC   C35 5222   1.974   1.230   7.236  0.7226  0.1556  0.0740
   64SAPC   H5X 5223   1.983   1.120   7.233  3.8108  0.3266 -0.4690
   64SAPC   H5Y 5224   1.868   1.258   7.253  1.1741  2.1268 -0.0295
   64SAPC   C36 5225   2.067   1.285   7.349 -0.8367  0.4223  0.7222
   64SAPC   H6X 5226   2.081   1.393   7.329 -2.8090  0.0971 -3.2783
   64SAPC   H6Y 5227   2.167   1.235   7.345 -0.0832  1.9129 -2.1457
   64SAPC   C37 5228   2.008   1.261   7.481  0.3058 -0.0913 -0.1365
   64SAPC   H7X 5229   1.979   1.155   7.494  0.7178 -0.0803  0.9617
   64SAPC   H7Y 5230   1.924   1.331   7.504  1.9117  2.5058 -1.7402
   64SAPC   C38 5231   2.115   1.284   7.602  0.3061 -0.2394  0.1578
   64SAPC   H8X 5232   2.163   1.384   7.597  0.9315 -0.5266  0.2775
   64SAPC   H8Y 5233   2.183   1.198   7.583 -0.5252 -0.5294 -1.7773
   64SAPC   C39 5234   2.047   1.271   7.732 -0.3298 -0.1616 -0.4710
   64SAPC   H9X 5235   2.023   1.166   7.758 -2.3092  0.5347  0.6940
   64SAPC   H9Y 5236   1.957   1.335   7.730  0.9660  1.7656 -0.2202
   64SAPC  C310 5237   2.139   1.330   7.837  0.5265  0.2903 -0.6873
   64SAPC  H10X 5238   2.159   1.437   7.818  0.1620  0.4200 -0.3709
   64SAPC  H10Y 5239   2.242   1.288   7.838  1.2896  2.0476  0.6420
   64SAPC  C311 5240   2.075   1.306   7.972 -0.5220  0.1829 -0.4586
   64SAPC  H11X 5241   2.080   1.196   7.986  2.5963  0.1584 -1.1489
   64SAPC  H11Y 5242   1.968   1.337   7.970 -0.9226 -0.8853  1.4561
   64SAPC  C312 5243   2.154   1.371   8.089  0.4788 -0.0350 -0.3371
   64SAPC  H12X 5244   2.084   1.387   8.173 -2.9659 -0.7674 -2.8590
   64SAPC  H12Y 5245   2.193   1.471   8.061 -1.8505  0.6114 -1.4929
   64SAPC  C313 5246   2.268   1.269   8.126 -0.0803 -0.0134  0.1860
   64SAPC  H13X 5247   2.306   1.236   8.027 -2.5010 -1.3131 -0.3910
   64SAPC  H13Y 5248   2.219   1.184   8.179 -3.1593  0.8792 -1.0130
   64SAPC  C314 5249   2.376   1.331   8.217  0.5086 -0.0073  0.4864
   64SAPC  H14X 5250   2.415   1.423   8.168 -0.7729  1.3713  1.9457
   64SAPC  H14Y 5251   2.454   1.253   8.223 -0.0204 -0.8909 -2.4335
   64SAPC  C315 5252   2.332   1.364   8.360  0.1382 -0.0180  0.6308
   64SAPC  H15X 5253   2.308   1.270   8.414 -0.8218 -0.5817 -0.7221
   64SAPC  H15Y 5254   2.234   1.415   8.359 -0.0575 -0.2804 -2.2858
   64SAPC  C316 5255   2.422   1.452   8.440  0.4734 -0.0702  0.1796
   64SAPC  H16X 5256   2.363   1.484   8.529 -1.3531 -3.9201  0.5292
   64SAPC  H16Y 5257   2.466   1.534   8.379 -0.4086 -0.3211 -0.8124
   64SAPC  C317 5258   2.547   1.387   8.502 -0.1613  0.0728 -0.0702
   64SAPC  H17X 5259   2.515   1.296   8.556  2.7979  1.2056  4.0484
   64SAPC  H17Y 5260   2.589   1.446   8.586 -0.1929 -0.2687  0.1905
   64SAPC  C318 5261   2.667   1.344   8.408 -0.1834  0.0621  0.2597
   64SAPC  H18X 5262   2.760   1.306   8.455 -0.9734 -4.4323 -1.3416
   64SAPC  H18Y 5263   2.694   1.426   8.337  0.1126  0.6812  1.0794
   64SAPC  H18Z 5264   2.630   1.256   8.350 -1.5880  0.4237  0.5733
   65SAPC     N 5265   1.008   3.201   5.967 -1.0792  0.0992 -0.6622
   65SAPC   C12 5266   1.118   3.280   6.036 -0.1479 -0.1420 -0.0966
   65SAPC  H12A 5267   1.074   3.375   6.064 -1.6630 -0.9533  0.3858
   65SAPC  H12B 5268   1.199   3.305   5.970 -0.4338 -0.3420 -0.5262
   65SAPC   C13 5269   1.055   3.085   5.884 -0.0008  0.3233  0.0011
   65SAPC  H13A 5270   1.109   3.131   5.802  1.0217 -2.1317 -0.8054
   65SAPC  H13B 5271   1.127   3.026   5.939 -0.9742 -0.0928  0.8617
   65SAPC  H13C 5272   0.975   3.025   5.844 -0.5153 -0.1844  1.7170
   65SAPC   C14 5273   0.904   3.153   6.067 -0.7283 -0.1441  0.4040
   65SAPC  H14A 5274   0.861   3.241   6.110 -2.8513 -0.4355 -0.9690
   65SAPC  H14B 5275   0.824   3.110   6.008 -0.2825 -0.1888 -0.1867
   65SAPC  H14C 5276   0.941   3.082   6.139  0.2821  0.9310  0.9743
   65SAPC   C15 5277   0.930   3.283   5.873  0.9817 -0.1730  0.3736
   65SAPC  H15A 5278   0.982   3.325   5.788  1.0671 -0.4593  0.2826
   65SAPC  H15B 5279   0.851   3.225   5.828 -0.0522  1.3813  0.0949
   65SAPC  H15C 5280   0.881   3.362   5.928  0.3148 -0.5242  0.2930
   65SAPC   C11 5281   1.190   3.221   6.159  0.1642 -0.3719  0.3928
   65SAPC  H11A 5282   1.124   3.208   6.248 -0.1889 -1.2779  0.0128
   65SAPC  H11B 5283   1.259   3.302   6.192 -1.0846  0.5906  0.7611
   65SAPC     P 5284   1.404   3.093   6.100  0.2329 -0.3398  0.0155
   65SAPC   O13 5285   1.455   2.955   6.131  0.1082  0.0582  0.1327
   65SAPC   O14 5286   1.436   3.143   5.967 -0.0769 -0.1037  0.2149
   65SAPC   O12 5287   1.246   3.097   6.120  0.4769 -0.2295 -0.8158
   65SAPC   O11 5288   1.469   3.199   6.205 -0.4123  0.3388 -0.3513
   65SAPC    C1 5289   1.610   3.204   6.224 -0.2208  0.4198 -0.1518
   65SAPC    HA 5290   1.663   3.219   6.128 -0.5270 -1.7944 -0.7321
   65SAPC    HB 5291   1.619   3.294   6.288 -1.0295 -0.1938  0.8660
   65SAPC    C2 5292   1.667   3.080   6.304 -0.0838  0.1454 -0.5760
   65SAPC    HS 5293   1.668   3.003   6.224 -1.4945  0.5933 -1.0512
   65SAPC   O21 5294   1.579   3.039   6.420 -0.4355 -0.0507  0.5997
   65SAPC   C21 5295   1.584   2.916   6.447 -0.3413  0.6172 -0.0222
   65SAPC   O22 5296   1.654   2.829   6.391 -0.5488  0.2196  0.1004
   65SAPC   C22 5297   1.506   2.887   6.571 -0.3410 -0.3322 -0.7265
   65SAPC   H2R 5298   1.461   2.979   6.614 -0.0864  0.0256 -1.2135
   65SAPC   H2S 5299   1.427   2.814   6.542 -0.6773  0.0828 -0.8580
   65SAPC    C3 5300   1.813   3.113   6.354 -0.6759 -0.6601 -0.0230
   65SAPC    HX 5301   1.867   3.142   6.261  0.5612 -0.7362  0.6621
   65SAPC    HY 5302   1.864   3.025   6.398  0.1571 -0.4268 -0.5097
   65SAPC   O31 5303   1.810   3.223   6.444 -0.0449 -0.0618 -0.5824
   65SAPC   C31 5304   1.913   3.308   6.454  0.0282  0.8600 -0.5039
   65SAPC   O32 5305   2.021   3.293   6.398  1.1087  0.2505 -0.5387
   65SAPC   C32 5306   1.867   3.420   6.556 -0.2129  0.3352  0.9696
   65SAPC   H2X 5307   1.771   3.463   6.520 -0.7091  0.7244  2.6525
   65SAPC   H2Y 5308   1.937   3.506   6.555  1.5776 -1.0591  0.3881
   65SAPC   C23 5309   1.593   2.827   6.678 -0.5039  0.6031 -0.6220
   65SAPC   H3R 5310   1.674   2.897   6.707 -1.1964  0.5858  1.5233
   65SAPC   H3S 5311   1.641   2.730   6.650  1.2256  0.7977  1.3950
   65SAPC   C24 5312   1.513   2.794   6.807 -0.1584 -0.3543  1.1406
   65SAPC   H4R 5313   1.429   2.866   6.821  0.2909 -0.1738  3.1553
   65SAPC   H4S 5314   1.585   2.818   6.888  1.6109  0.0653 -0.4944
   65SAPC   C25 5315   1.461   2.653   6.808  0.0936  0.4148 -0.1688
   65SAPC   H5R 5316   1.415   2.626   6.712 -0.4068  1.3354 -0.1926
   65SAPC   C26 5317   1.473   2.567   6.911  0.2957  0.1220 -0.5907
   65SAPC   H6R 5318   1.438   2.463   6.898  0.1060  0.0210  0.5970
   65SAPC   C27 5319   1.539   2.588   7.044  0.2196 -0.3027 -0.7552
   65SAPC   H7R 5320   1.505   2.678   7.101  0.3759 -0.7803  0.1168
   65SAPC   H7S 5321   1.642   2.613   7.011 -0.1297  2.2108 -0.1264
   65SAPC   C28 5322   1.550   2.469   7.134  0.5064 -0.1438 -1.0509
   65SAPC   H8R 5323   1.521   2.373   7.089 -1.0925  0.5050 -1.4847
   65SAPC   C29 5324   1.587   2.473   7.266 -0.3028  0.5374 -0.2766
   65SAPC   H9R 5325   1.600   2.378   7.321 -0.9414  0.8238  0.3907
   65SAPC  C210 5326   1.623   2.585   7.362 -0.7121 -0.2101 -0.3637
   65SAPC  H10R 5327   1.623   2.679   7.302  1.0359  0.2621  0.2975
   65SAPC  H10S 5328   1.732   2.571   7.380 -0.8912 -0.2721  0.6797
   65SAPC  C211 5329   1.535   2.591   7.484 -0.2030  0.4780  0.2223
   65SAPC  H11R 5330   1.430   2.607   7.456 -0.4472 -2.2986 -0.7936
   65SAPC  C212 5331   1.579   2.585   7.613  0.2257  0.1160 -0.1022
   65SAPC  H12R 5332   1.500   2.601   7.688  0.4425 -0.5790  0.2835
   65SAPC  C213 5333   1.722   2.585   7.655  0.3870  0.4683  0.0503
   65SAPC  H13R 5334   1.795   2.547   7.580 -1.6403  0.1870 -1.8579
   65SAPC  H13S 5335   1.717   2.501   7.728  0.3530 -0.3037 -0.8322
   65SAPC  C214 5336   1.780   2.714   7.723 -0.0363  0.1270  0.0745
   65SAPC  H14R 5337   1.851   2.758   7.651  0.5116 -2.9101 -1.4307
   65SAPC  C215 5338   1.754   2.760   7.841 -0.3115 -0.4197 -0.4193
   65SAPC  H15R 5339   1.794   2.856   7.876 -0.3994  0.2383 -2.0760
   65SAPC  C216 5340   1.670   2.689   7.946  0.7677  0.1921  0.1686
   65SAPC  H16R 5341   1.723   2.607   7.999 -0.7352 -0.5352  0.6092
   65SAPC  H16S 5342   1.582   2.647   7.894 -0.3744  1.8752  0.6604
   65SAPC  C217 5343   1.630   2.785   8.060  0.5364 -0.7102 -0.6626
   65SAPC  H17R 5344   1.546   2.750   8.124  0.8400 -0.3122 -0.0373
   65SAPC  H17S 5345   1.586   2.875   8.014  1.1837 -0.6723 -1.2203
   65SAPC  C218 5346   1.730   2.807   8.173  0.3226 -0.8407 -0.2263
   65SAPC  H18R 5347   1.832   2.826   8.134  1.9275 -2.1873  2.9506
   65SAPC  H18S 5348   1.743   2.712   8.229  1.3435 -0.3313  0.4266
   65SAPC  C219 5349   1.691   2.920   8.272 -0.4687  0.1512 -0.3870
   65SAPC  H19R 5350   1.596   2.890   8.322  0.3826 -0.3302  1.0344
   65SAPC  H19S 5351   1.668   3.003   8.203 -2.5338  0.3997  0.5507
   65SAPC  C220 5352   1.793   2.937   8.383  0.1783  0.6593  0.0544
   65SAPC  H20R 5353   1.798   2.845   8.445 -2.6837 -1.5621 -2.6822
   65SAPC  H20S 5354   1.766   3.025   8.444 -3.8779  0.6508 -1.3953
   65SAPC  H20T 5355   1.898   2.951   8.347  1.0613 -0.0452  2.2167
   65SAPC   C33 5356   1.854   3.360   6.697 -0.3432  0.2041 -0.3073
   65SAPC   H3X 5357   1.951   3.323   6.736 -0.6817 -2.2345 -1.5846
   65SAPC   H3Y 5358   1.788   3.271   6.692 -0.6462  0.4899 -4.2725
   65SAPC   C34 5359   1.802   3.469   6.790  0.0898 -0.6259  0.5249
   65SAPC   H4X 5360   1.710   3.509   6.744 -0.0095  1.6301  2.4855
   65SAPC   H4Y 5361   1.860   3.563   6.775 -0.7421  0.0416  1.3563
   65SAPC   C35 5362   1.781   3.443   6.932 -0.6239  0.2491 -0.7565
   65SAPC   H5X 5363   1.805   3.536   6.988  0.4708 -0.5306  0.1033
   65SAPC   H5Y 5364   1.857   3.370   6.969 -1.7661  0.2424  1.7973
   65SAPC   C36 5365   1.636   3.394   6.951  0.1093  0.2070 -0.5353
   65SAPC   H6X 5366   1.616   3.302   6.893  1.0699 -0.4632  0.1751
   65SAPC   H6Y 5367   1.564   3.463   6.901  1.4237  2.0305 -0.0379
   65SAPC   C37 5368   1.588   3.377   7.095 -0.8681  0.3946 -1.1962
   65SAPC   H7X 5369   1.480   3.354   7.084 -0.5875 -0.3256 -2.8418
   65SAPC   H7Y 5370   1.607   3.474   7.144  0.1241 -0.1981 -0.3556
   65SAPC   C38 5371   1.660   3.272   7.180  0.5333 -0.0115 -0.2068
   65SAPC   H8X 5372   1.770   3.293   7.181  0.6677 -0.6659  1.3043
   65SAPC   H8Y 5373   1.642   3.169   7.143 -1.4085  0.3646 -0.3835
   65SAPC   C39 5374   1.629   3.286   7.326  0.2177  0.9175  0.2693
   65SAPC   H9X 5375   1.688   3.206   7.375 -2.2970 -0.5157  1.1206
   65SAPC   H9Y 5376   1.522   3.263   7.348  0.3174  0.1293 -0.0201
   65SAPC  C310 5377   1.662   3.418   7.389 -0.7864  0.4056 -0.3910
   65SAPC  H10X 5378   1.596   3.502   7.357 -0.7343  0.9668  0.8886
   65SAPC  H10Y 5379   1.766   3.437   7.356 -0.6795 -0.1836 -0.4060
   65SAPC  C311 5380   1.673   3.405   7.545  0.0397 -0.4202  0.2264
   65SAPC  H11X 5381   1.736   3.487   7.584  0.6033 -0.5337 -0.4310
   65SAPC  H11Y 5382   1.739   3.320   7.572 -1.1866 -1.3228  0.4946
   65SAPC  C312 5383   1.535   3.390   7.609  0.2811 -0.2847 -0.0720
   65SAPC  H12X 5384   1.480   3.308   7.559 -1.1551 -2.4141  4.4494
   65SAPC  H12Y 5385   1.485   3.490   7.609  1.5180  0.3661 -1.0974
   65SAPC  C313 5386   1.553   3.357   7.758 -0.0233 -0.0323 -0.3875
   65SAPC  H13X 5387   1.630   3.425   7.801 -0.2013 -1.1506  1.8451
   65SAPC  H13Y 5388   1.600   3.256   7.750  0.3495  0.1485 -0.5118
   65SAPC  C314 5389   1.430   3.326   7.851  0.4038  0.1367 -0.3429
   65SAPC  H14X 5390   1.368   3.251   7.796  0.6465 -0.7001  0.4968
   65SAPC  H14Y 5391   1.384   3.424   7.877 -0.2017  0.5174 -2.6152
   65SAPC  C315 5392   1.471   3.256   7.981  0.5318  0.0798  0.1784
   65SAPC  H15X 5393   1.529   3.322   8.049  1.3065 -0.3823 -0.0177
   65SAPC  H15Y 5394   1.523   3.163   7.951  0.0887 -0.0385 -0.2321
   65SAPC  C316 5395   1.343   3.214   8.058 -0.2551 -0.5134 -0.3831
   65SAPC  H16X 5396   1.285   3.135   8.006 -1.6052 -0.8134  1.4674
   65SAPC  H16Y 5397   1.281   3.306   8.057 -0.4474 -0.6272  0.5553
   65SAPC  C317 5398   1.378   3.175   8.201  1.4397 -0.0072  0.2092
   65SAPC  H17X 5399   1.431   3.260   8.246  0.2197  1.1057 -0.3842
   65SAPC  H17Y 5400   1.446   3.087   8.191  0.4577 -0.7741  0.0433
   65SAPC  C318 5401   1.262   3.146   8.292 -0.3638 -0.3564 -0.3603
   65SAPC  H18X 5402   1.289   3.137   8.399 -0.1737  2.9642 -0.0458
   65SAPC  H18Y 5403   1.201   3.060   8.254 -2.3508  0.3438  1.0756
   65SAPC  H18Z 5404   1.201   3.238   8.296  0.4094  0.2283 -1.5304
   66SAPC     N 5405   0.296   3.337   5.681  0.5783 -0.3379  0.0866
   66SAPC   C12 5406   0.229   3.280   5.808  0.4892 -0.1214 -0.5111
   66SAPC  H12A 5407   0.287   3.208   5.862  0.1155 -1.3806 -1.7320
   66SAPC  H12B 5408   0.149   3.222   5.764  0.7683 -0.9403  0.0485
   66SAPC   C13 5409   0.196   3.406   5.584 -0.4383  0.6644 -0.0536
   66SAPC  H13A 5410   0.129   3.336   5.534  0.3894 -0.8919  0.9348
   66SAPC  H13B 5411   0.128   3.466   5.643  0.7993  1.9327  0.1075
   66SAPC  H13C 5412   0.249   3.462   5.509 -0.1722 -0.1705 -0.5031
   66SAPC   C14 5413   0.412   3.433   5.706 -0.1780 -0.4913  0.3267
   66SAPC  H14A 5414   0.454   3.479   5.618  2.8944  0.7127  2.2347
   66SAPC  H14B 5415   0.374   3.513   5.768 -1.9415 -1.3320  0.3795
   66SAPC  H14C 5416   0.501   3.403   5.759  1.0589  1.1641 -0.6972
   66SAPC   C15 5417   0.365   3.231   5.599 -0.8098 -0.0338 -0.0029
   66SAPC  H15A 5418   0.451   3.188   5.648 -0.5551 -0.8567 -1.1337
   66SAPC  H15B 5419   0.292   3.153   5.580 -1.7768  1.0162 -0.7382
   66SAPC  H15C 5420   0.396   3.274   5.506 -1.4791 -0.0401 -0.2360
   66SAPC   C11 5421   0.175   3.384   5.910  0.3670  0.2900 -0.0322
   66SAPC  H11A 5422   0.112   3.333   5.986  0.6130  2.0973  1.4606
   66SAPC  H11B 5423   0.104   3.454   5.860 -0.3296  0.8870  1.7147
   66SAPC     P 5424   0.314   3.435   6.129 -0.0194 -0.1800  0.4879
   66SAPC   O13 5425   0.430   3.337   6.137 -0.3111 -0.2642 -0.0512
   66SAPC   O14 5426   0.344   3.560   6.196  0.0723  0.1981 -0.1568
   66SAPC   O12 5427   0.278   3.462   5.975  0.2984 -0.3981 -0.7536
   66SAPC   O11 5428   0.183   3.368   6.187  0.2907  0.1510 -0.4501
   66SAPC    C1 5429   0.200   3.261   6.287 -0.0710 -0.5617  0.6261
   66SAPC    HA 5430   0.164   3.168   6.238  2.5597 -0.0497 -2.6757
   66SAPC    HB 5431   0.303   3.240   6.324 -0.3125 -0.5363  1.3283
   66SAPC    C2 5432   0.108   3.302   6.398 -0.3495 -0.1011 -0.2448
   66SAPC    HS 5433   0.009   3.329   6.355 -0.1118  1.3877  0.1037
   66SAPC   O21 5434   0.156   3.421   6.467  0.5023 -0.2695  0.2392
   66SAPC   C21 5435   0.089   3.486   6.551  0.5068 -0.1319  0.0175
   66SAPC   O22 5436  -0.031   3.469   6.579 -0.2079  0.7334  0.0783
   66SAPC   C22 5437   0.181   3.587   6.618 -0.3071 -0.6627 -0.2632
   66SAPC   H2R 5438   0.282   3.545   6.635 -0.4053 -0.1665  1.8354
   66SAPC   H2S 5439   0.196   3.669   6.544 -2.6225 -0.7068 -0.8613
   66SAPC    C3 5440   0.093   3.194   6.508  0.0387 -0.3005  0.0573
   66SAPC    HX 5441   0.040   3.113   6.455  0.6528  0.3994 -1.7089
   66SAPC    HY 5442   0.022   3.224   6.588 -0.6935 -1.8065  0.0071
   66SAPC   O31 5443   0.221   3.146   6.552 -0.2280  0.6529 -0.7327
   66SAPC   C31 5444   0.262   3.210   6.663  0.0646  1.1439 -0.4751
   66SAPC   O32 5445   0.194   3.293   6.718  0.6488 -0.4345  0.0674
   66SAPC   C32 5446   0.401   3.156   6.695 -0.4579 -0.1598 -0.5874
   66SAPC   H2X 5447   0.462   3.204   6.615 -0.3076 -0.2265 -0.5125
   66SAPC   H2Y 5448   0.398   3.046   6.677  0.6215 -0.5029  1.1156
   66SAPC   C23 5449   0.125   3.632   6.756  0.0000  0.8434 -0.1725
   66SAPC   H3R 5450   0.128   3.551   6.831 -1.3645  1.8706  1.0569
   66SAPC   H3S 5451   0.016   3.653   6.749 -0.4268 -1.6830 -3.0928
   66SAPC   C24 5452   0.205   3.750   6.812  0.3273  0.1777  0.1257
   66SAPC   H4R 5453   0.143   3.808   6.884  0.0021  1.8439 -1.4005
   66SAPC   H4S 5454   0.220   3.824   6.730 -1.9442  1.2796  0.6234
   66SAPC   C25 5455   0.343   3.713   6.861 -0.3467  0.0528  0.5264
   66SAPC   H5R 5456   0.420   3.669   6.795 -0.2769  0.5613  0.2674
   66SAPC   C26 5457   0.381   3.713   6.989  0.2327 -0.9504 -0.0125
   66SAPC   H6R 5458   0.485   3.680   7.005 -0.6005 -3.0900  1.4175
   66SAPC   C27 5459   0.302   3.758   7.110  0.6049  0.4915 -0.1789
   66SAPC   H7R 5460   0.193   3.740   7.099  0.7810 -0.4417 -0.4117
   66SAPC   H7S 5461   0.308   3.869   7.119 -0.3593  0.6381 -1.2252
   66SAPC   C28 5462   0.340   3.672   7.225 -0.0952 -0.4841 -0.0282
   66SAPC   H8R 5463   0.310   3.567   7.229  0.9316 -0.7632  0.6821
   66SAPC   C29 5464   0.407   3.726   7.334  0.6012 -0.2570  0.2160
   66SAPC   H9R 5465   0.418   3.672   7.429  1.9003 -0.5263 -0.0551
   66SAPC  C210 5466   0.448   3.875   7.356 -0.2107  0.3197 -0.6076
   66SAPC  H10R 5467   0.456   3.921   7.255 -0.2216 -1.3640 -1.4043
   66SAPC  H10S 5468   0.544   3.864   7.410 -0.7185 -2.0113 -0.0925
   66SAPC  C211 5469   0.355   3.951   7.444 -0.3148  0.6179  0.4363
   66SAPC  H11R 5470   0.311   4.043   7.403  0.8064  1.9958  2.1869
   66SAPC  C212 5471   0.312   3.917   7.568 -0.2669  0.4835 -0.1968
   66SAPC  H12R 5472   0.235   3.974   7.622  0.7872  1.0632  0.7154
   66SAPC  C213 5473   0.366   3.813   7.660  0.1221 -0.6004  0.0480
   66SAPC  H13R 5474   0.474   3.801   7.636  0.4025  0.0559  0.9521
   66SAPC  H13S 5475   0.322   3.711   7.653  2.1091 -1.6632  1.8323
   66SAPC  C214 5476   0.358   3.864   7.803  0.6810 -0.5038 -0.2121
   66SAPC  H14R 5477   0.254   3.854   7.838  0.2822  3.6843  0.3939
   66SAPC  C215 5478   0.446   3.918   7.888 -0.4692  0.1871 -0.3039
   66SAPC  H15R 5479   0.407   3.927   7.990 -2.3079  1.4420 -1.0484
   66SAPC  C216 5480   0.591   3.949   7.857 -0.4338  0.4121 -0.3207
   66SAPC  H16R 5481   0.617   4.057   7.859  2.9849 -0.2581 -1.4955
   66SAPC  H16S 5482   0.607   3.923   7.750 -3.1907  0.3604 -0.8149
   66SAPC  C217 5483   0.683   3.879   7.963 -0.6409  0.5473  0.2439
   66SAPC  H17R 5484   0.786   3.900   7.926 -0.6116  0.2581  0.1585
   66SAPC  H17S 5485   0.675   3.768   7.957 -0.5891  0.6121 -2.2308
   66SAPC  C218 5486   0.680   3.931   8.108  0.5770 -0.2227 -0.1945
   66SAPC  H18R 5487   0.583   3.892   8.145 -0.2489  0.2371 -1.7899
   66SAPC  H18S 5488   0.676   4.042   8.105 -2.3728 -0.2594 -0.4240
   66SAPC  C219 5489   0.799   3.891   8.199  0.7316 -0.6156  0.4621
   66SAPC  H19R 5490   0.901   3.903   8.155  0.0417 -1.7435 -1.5720
   66SAPC  H19S 5491   0.792   3.781   8.210 -1.7752 -0.4693  0.6925
   66SAPC  C220 5492   0.795   3.958   8.342 -0.2998  0.3197 -0.2892
   66SAPC  H20R 5493   0.688   3.966   8.369 -0.4627 -2.5566  0.2349
   66SAPC  H20S 5494   0.863   4.045   8.334  2.1052 -1.5164 -1.0091
   66SAPC  H20T 5495   0.852   3.895   8.413  0.5605  1.1479 -0.2214
   66SAPC   C33 5496   0.446   3.184   6.840  0.0227  0.0338  1.0224
   66SAPC   H3X 5497   0.405   3.282   6.873 -1.0674 -0.7461  2.0643
   66SAPC   H3Y 5498   0.556   3.172   6.851 -0.0549 -3.2486 -0.4834
   66SAPC   C34 5499   0.386   3.074   6.936 -0.3217  0.2745 -0.6339
   66SAPC   H4X 5500   0.431   2.973   6.934 -1.1793 -0.1831  1.0933
   66SAPC   H4Y 5501   0.277   3.061   6.919 -0.6857  0.8886  1.0776
   66SAPC   C35 5502   0.382   3.120   7.084  0.0115 -0.4193 -0.5307
   66SAPC   H5X 5503   0.337   3.220   7.102 -3.1636 -2.0011  1.0551
   66SAPC   H5Y 5504   0.486   3.128   7.122  0.7112 -1.3015 -2.1598
   66SAPC   C36 5505   0.291   3.050   7.185  0.4912  0.0180  0.0967
   66SAPC   H6X 5506   0.327   2.945   7.199  0.3872  0.0696  0.7796
   66SAPC   H6Y 5507   0.186   3.049   7.149  0.6759  1.0399 -0.5028
   66SAPC   C37 5508   0.293   3.115   7.332  0.2590 -0.1908 -0.0643
   66SAPC   H7X 5509   0.263   3.222   7.331  0.1139 -0.2179 -1.9943
   66SAPC   H7Y 5510   0.399   3.113   7.365  0.0638  3.4616  1.2874
   66SAPC   C38 5511   0.201   3.030   7.424  0.5360  0.1489  0.0794
   66SAPC   H8X 5512   0.186   2.925   7.389  0.8273 -0.0272  0.4820
   66SAPC   H8Y 5513   0.098   3.069   7.430  0.4343 -0.3574  2.4269
   66SAPC   C39 5514   0.237   3.052   7.578  0.2469 -0.4351  0.8676
   66SAPC   H9X 5515   0.224   3.158   7.609 -0.7720  0.5575 -2.5843
   66SAPC   H9Y 5516   0.348   3.048   7.575  0.3125 -1.0664  2.8294
   66SAPC  C310 5517   0.167   2.945   7.668 -0.0274  0.0408  0.3510
   66SAPC  H10X 5518   0.168   2.856   7.602 -0.8504  1.0657 -1.1098
   66SAPC  H10Y 5519   0.060   2.969   7.684  0.4737  1.7745  1.3904
   66SAPC  C311 5520   0.248   2.896   7.784  0.4631  0.8569  0.3283
   66SAPC  H11X 5521   0.355   2.895   7.752  0.3680  0.8053  0.0103
   66SAPC  H11Y 5522   0.228   2.789   7.808  3.4236 -0.4079 -2.1505
   66SAPC  C312 5523   0.221   2.972   7.916 -0.5698 -0.7300 -0.0423
   66SAPC  H12X 5524   0.245   3.079   7.896 -0.7590 -0.9927 -1.8780
   66SAPC  H12Y 5525   0.300   2.941   7.988  0.1950  1.4797  0.1396
   66SAPC  C313 5526   0.084   2.966   7.982 -0.1596 -0.6680 -0.1903
   66SAPC  H13X 5527   0.073   2.863   8.023  1.0700 -1.7161 -2.3538
   66SAPC  H13Y 5528   0.011   2.984   7.900 -0.2223 -2.1685 -0.5003
   66SAPC  C314 5529   0.068   3.077   8.092 -0.7268 -0.0929 -0.2766
   66SAPC  H14X 5530  -0.040   3.066   8.117 -0.8628  2.6229  0.6892
   66SAPC  H14Y 5531   0.091   3.174   8.044 -0.5354  0.6580  1.2590
   66SAPC  C315 5532   0.166   3.050   8.210  0.8506 -0.5143  0.7648
   66SAPC  H15X 5533   0.266   3.053   8.162 -0.5658  0.7685 -2.3542
   66SAPC  H15Y 5534   0.151   2.946   8.245 -1.3504 -0.8411 -0.9161
   66SAPC  C316 5535   0.165   3.160   8.319  0.3043 -0.4681  0.1709
   66SAPC  H16X 5536   0.205   3.254   8.274  0.0097  1.3558  3.4040
   66SAPC  H16Y 5537   0.243   3.133   8.393  0.8844  0.5685 -0.0398
   66SAPC  C317 5538   0.033   3.187   8.387 -0.0719  0.7813  0.6170
   66SAPC  H17X 5539  -0.043   3.234   8.321 -0.0826  1.1749  0.9068
   66SAPC  H17Y 5540   0.050   3.267   8.461  1.4594  2.3137 -1.2966
   66SAPC  C318 5541  -0.029   3.062   8.461  0.4304 -0.7237 -0.5985
   66SAPC  H18X 5542   0.049   3.012   8.522  0.2542  0.4977  0.6483
   66SAPC  H18Y 5543  -0.064   2.985   8.388  1.5797 -1.6591 -0.1930
   66SAPC  H18Z 5544  -0.112   3.094   8.527 -0.5962 -2.1782 -1.1193
   67SAPC     N 5545   3.278   5.389   6.444 -0.0787  0.0232  0.3459
   67SAPC   C12 5546   3.254   5.502   6.532  0.1475 -0.2498 -0.1406
   67SAPC  H12A 5547   3.268   5.592   6.475  1.0052 -0.4788 -0.3043
   67SAPC  H12B 5548   3.331   5.519   6.607  1.3734 -2.8540 -0.6963
   67SAPC   C13 5549   3.164   5.373   6.340  0.2794 -0.5508 -0.2445
   67SAPC  H13A 5550   3.141   5.475   6.313  1.8015 -0.2455 -0.4505
   67SAPC  H13B 5551   3.193   5.304   6.263 -1.8325 -2.6181  0.6579
   67SAPC  H13C 5552   3.068   5.349   6.384 -1.3581  0.7720 -2.8567
   67SAPC   C14 5553   3.403   5.420   6.363 -0.1454  0.2114 -0.0650
   67SAPC  H14A 5554   3.482   5.419   6.437  1.2635  4.9010 -1.1514
   67SAPC  H14B 5555   3.430   5.358   6.279  1.8785  3.2137 -1.8338
   67SAPC  H14C 5556   3.399   5.513   6.309 -1.3758  0.0675 -0.2479
   67SAPC   C15 5557   3.298   5.261   6.522  0.2159 -0.2399  0.8120
   67SAPC  H15A 5558   3.361   5.191   6.469 -0.6967 -1.7684  1.6793
   67SAPC  H15B 5559   3.348   5.266   6.618 -0.3267 -0.0475  1.0924
   67SAPC  H15C 5560   3.203   5.213   6.543  0.7726 -0.7869  2.2116
   67SAPC   C11 5561   3.121   5.504   6.613  0.2113  0.2969 -0.6930
   67SAPC  H11A 5562   3.127   5.593   6.679 -1.1782 -0.5811  0.6562
   67SAPC  H11B 5563   3.118   5.420   6.685  0.4014  1.7882  1.1131
   67SAPC     P 5564   2.895   5.627   6.561 -0.2103  0.0870  0.3539
   67SAPC   O13 5565   2.920   5.728   6.454  0.2142 -0.1068  0.0673
   67SAPC   O14 5566   2.764   5.564   6.566 -1.0533  0.5004  0.0398
   67SAPC   O12 5567   3.006   5.511   6.544  0.5307 -0.4647  0.2336
   67SAPC   O11 5568   2.921   5.694   6.702 -0.3139 -0.6414  0.6106
   67SAPC    C1 5569   2.863   5.643   6.818  0.8734 -0.2139  0.0815
   67SAPC    HA 5570   2.754   5.646   6.798  0.8113 -1.0083  0.2556
   67SAPC    HB 5571   2.901   5.541   6.842  1.7253  0.4136  1.5216
   67SAPC    C2 5572   2.887   5.729   6.949 -0.4365  0.1177 -0.3476
   67SAPC    HS 5573   2.871   5.836   6.924 -0.2994  0.2703  0.2000
   67SAPC   O21 5574   3.027   5.701   6.987 -0.1690  0.8756 -0.0076
   67SAPC   C21 5575   3.110   5.794   6.934  0.5196  1.1711 -0.2392
   67SAPC   O22 5576   3.073   5.907   6.899 -0.3274  0.4614 -0.2490
   67SAPC   C22 5577   3.254   5.764   6.941 -0.7797  0.3205  0.0041
   67SAPC   H2R 5578   3.269   5.669   6.886 -1.7866  0.0017  0.2655
   67SAPC   H2S 5579   3.301   5.844   6.879  0.6015 -0.6237 -0.2070
   67SAPC    C3 5580   2.787   5.694   7.069 -0.2152  0.3658 -0.1698
   67SAPC    HX 5581   2.765   5.585   7.071  0.0209  0.3085 -0.5598
   67SAPC    HY 5582   2.686   5.720   7.033  0.5609  0.0240 -2.8227
   67SAPC   O31 5583   2.823   5.746   7.202  0.2307  0.4159  0.5458
   67SAPC   C31 5584   2.794   5.869   7.230 -0.7000 -0.7934 -0.8695
   67SAPC   O32 5585   2.760   5.962   7.152 -0.0370  0.5765 -0.0843
   67SAPC   C32 5586   2.840   5.889   7.382 -0.6869 -0.2166 -0.0485
   67SAPC   H2X 5587   2.938   5.839   7.395 -0.9776 -0.3575  1.9047
   67SAPC   H2Y 5588   2.767   5.833   7.444  1.2775 -0.7821  1.8683
   67SAPC   C23 5589   3.309   5.767   7.085  0.1104  0.1595 -0.1263
   67SAPC   H3R 5590   3.277   5.868   7.118 -0.6480  0.2673 -1.1363
   67SAPC   H3S 5591   3.418   5.756   7.070 -0.2004 -1.7740 -1.2544
   67SAPC   C24 5592   3.257   5.661   7.183  0.1864 -0.1496 -0.1392
   67SAPC   H4R 5593   3.147   5.654   7.196  0.2573  1.0538  1.3831
   67SAPC   H4S 5594   3.286   5.703   7.281 -1.4664 -0.4869  0.5268
   67SAPC   C25 5595   3.312   5.525   7.162  0.1814  0.0227  0.3754
   67SAPC   H5R 5596   3.263   5.472   7.079  0.2940 -1.7117  1.3676
   67SAPC   C26 5597   3.412   5.465   7.233 -0.7494  0.2234  0.8377
   67SAPC   H6R 5598   3.424   5.357   7.219 -3.5803 -0.1616  0.7927
   67SAPC   C27 5599   3.490   5.525   7.346  1.2072 -0.1869  0.0353
   67SAPC   H7R 5600   3.499   5.635   7.330 -1.6270  0.1039 -0.1219
   67SAPC   H7S 5601   3.593   5.485   7.346  2.1267  1.9881 -1.3473
   67SAPC   C28 5602   3.433   5.503   7.487  0.2017  0.0019 -0.7722
   67SAPC   H8R 5603   3.326   5.528   7.503  0.0918 -0.9281  0.0558
   67SAPC   C29 5604   3.504   5.446   7.582 -0.9758  0.2724  0.2730
   67SAPC   H9R 5605   3.461   5.425   7.681 -0.5052 -2.5961 -0.0580
   67SAPC  C210 5606   3.652   5.408   7.577  0.3677  0.4551  0.7545
   67SAPC  H10R 5607   3.703   5.463   7.495 -2.6907  2.1953 -0.1561
   67SAPC  H10S 5608   3.648   5.303   7.541 -0.6390  0.6544  0.2340
   67SAPC  C211 5609   3.712   5.416   7.712 -0.1824 -0.2250 -0.0160
   67SAPC  H11R 5610   3.643   5.441   7.795 -0.8252 -1.2246 -0.2224
   67SAPC  C212 5611   3.834   5.389   7.750  0.3258  0.5271 -1.1412
   67SAPC  H12R 5612   3.861   5.389   7.857  0.4550 -0.4661 -1.1644
   67SAPC  C213 5613   3.954   5.356   7.663  0.1768  0.7202 -0.1183
   67SAPC  H13R 5614   3.923   5.356   7.557 -1.2916 -0.8714  0.2552
   67SAPC  H13S 5615   3.993   5.253   7.678 -2.2781 -0.1091  1.1378
   67SAPC  C214 5616   4.060   5.464   7.692 -0.7810  0.0323  1.0733
   67SAPC  H14R 5617   4.072   5.509   7.791  0.9069  1.1190  0.4213
   67SAPC  C215 5618   4.156   5.495   7.603 -0.2618  0.2784  0.7049
   67SAPC  H15R 5619   4.232   5.568   7.634  3.5790 -2.0024 -2.4280
   67SAPC  C216 5620   4.172   5.429   7.465  0.1321  0.2088  0.2799
   67SAPC  H16R 5621   4.114   5.485   7.389 -4.4750 -1.1001  2.4944
   67SAPC  H16S 5622   4.138   5.323   7.471  0.1889  0.1675 -0.0825
   67SAPC  C217 5623   4.321   5.431   7.430 -0.1592 -0.0050 -0.2349
   67SAPC  H17R 5624   4.384   5.404   7.518  0.7907  1.2420 -0.5014
   67SAPC  H17S 5625   4.350   5.534   7.398  0.2225 -0.2555 -0.7044
   67SAPC  C218 5626   4.345   5.332   7.320 -0.1459 -0.3070  0.2599
   67SAPC  H18R 5627   4.326   5.229   7.356  1.0511 -0.4583  0.4913
   67SAPC  H18S 5628   4.454   5.326   7.297 -0.6078  0.4575 -2.4938
   67SAPC  C219 5629   4.276   5.377   7.185 -0.3009 -0.1693 -0.5090
   67SAPC  H19R 5630   4.286   5.487   7.178  2.7526 -0.2294  1.2243
   67SAPC  H19S 5631   4.167   5.359   7.194 -0.3528  0.1902 -0.4010
   67SAPC  C220 5632   4.326   5.292   7.071 -0.2235  0.1287  0.4742
   67SAPC  H20R 5633   4.279   5.324   6.975  2.8280  0.5528 -0.9887
   67SAPC  H20S 5634   4.314   5.183   7.085 -0.7731 -0.1055 -1.5347
   67SAPC  H20T 5635   4.435   5.312   7.066 -0.5995  2.3524 -0.0816
   67SAPC   C33 5636   2.844   6.041   7.428 -0.1355 -0.8196  0.5470
   67SAPC   H3X 5637   2.741   6.080   7.414 -0.1450 -0.9017  0.3929
   67SAPC   H3Y 5638   2.901   6.094   7.349  0.1024 -2.3892 -0.3697
   67SAPC   C34 5639   2.891   6.083   7.564  0.2585 -0.8556 -0.2797
   67SAPC   H4X 5640   2.887   6.190   7.592 -0.8777 -0.4113 -2.0330
   67SAPC   H4Y 5641   2.994   6.041   7.570  1.3804  1.5641 -1.3101
   67SAPC   C35 5642   2.799   6.009   7.661 -0.0632 -0.5173  0.0311
   67SAPC   H5X 5643   2.810   5.900   7.640 -0.6170 -0.4964 -0.4097
   67SAPC   H5Y 5644   2.695   6.037   7.633 -0.4328 -0.5132  1.3507
   67SAPC   C36 5645   2.824   6.044   7.812  0.3556  1.1725 -0.0181
   67SAPC   H6X 5646   2.802   6.150   7.836 -0.2290  1.0923 -0.1744
   67SAPC   H6Y 5647   2.932   6.027   7.831 -0.1906 -0.8770  1.6802
   67SAPC   C37 5648   2.737   5.958   7.906 -0.0760  0.1679  1.0879
   67SAPC   H7X 5649   2.752   5.853   7.871  0.7261  0.6002  0.1048
   67SAPC   H7Y 5650   2.634   5.993   7.885  0.5179  2.1093  1.2732
   67SAPC   C38 5651   2.772   5.975   8.051 -0.1910  0.0577 -1.0081
   67SAPC   H8X 5652   2.725   5.888   8.100  0.7608 -0.7124 -1.4118
   67SAPC   H8Y 5653   2.718   6.065   8.087 -0.9047 -0.2652 -1.2595
   67SAPC   C39 5654   2.920   5.986   8.079 -0.5458  0.3744 -0.6420
   67SAPC   H9X 5655   2.946   6.090   8.049  0.8492  0.6108  1.1954
   67SAPC   H9Y 5656   2.978   5.909   8.023  1.7460  0.1391  1.8518
   67SAPC  C310 5657   2.934   5.966   8.230  0.1162  0.3785 -0.1925
   67SAPC  H10X 5658   2.876   5.878   8.268  0.8618  0.2026  0.5741
   67SAPC  H10Y 5659   2.882   6.059   8.261 -1.4021 -0.6755  0.5706
   67SAPC  C311 5660   3.080   5.970   8.277 -0.0985  0.0941 -0.9978
   67SAPC  H11X 5661   3.142   6.054   8.238  3.1565 -1.1298  1.1055
   67SAPC  H11Y 5662   3.131   5.875   8.249 -0.2905 -0.6264  0.9492
   67SAPC  C312 5663   3.098   5.971   8.433  0.2451  0.7906  0.2190
   67SAPC  H12X 5664   3.044   5.885   8.479 -2.1352  0.9223 -2.0439
   67SAPC  H12Y 5665   3.041   6.058   8.473  1.1558  1.9646 -0.9453
   67SAPC  C313 5666   3.239   5.970   8.486 -0.0528 -0.9308  0.9909
   67SAPC  H13X 5667   3.284   6.071   8.474 -1.4900 -0.6266 -2.9840
   67SAPC  H13Y 5668   3.301   5.901   8.425  3.1632  0.7626  2.0595
   67SAPC  C314 5669   3.253   5.941   8.635 -0.4009 -0.3384 -0.1062
   67SAPC  H14X 5670   3.202   5.844   8.655  0.3840 -0.2004  3.1335
   67SAPC  H14Y 5671   3.204   6.010   8.707  1.5969 -0.9618  1.9268
   67SAPC  C315 5672   3.400   5.915   8.683  0.0747 -0.2500  0.3700
   67SAPC  H15X 5673   3.444   6.017   8.683 -1.1161  0.2979 -1.2226
   67SAPC  H15Y 5674   3.448   5.850   8.607  0.0781  0.5679 -0.3467
   67SAPC  C316 5675   3.419   5.849   8.812 -0.0397 -0.5731  0.3186
   67SAPC  H16X 5676   3.525   5.818   8.813 -0.7118 -3.1111  1.3232
   67SAPC  H16Y 5677   3.362   5.754   8.802 -0.1343 -0.3866 -1.1710
   67SAPC  C317 5678   3.377   5.936   8.931 -0.0908 -0.2075 -0.4674
   67SAPC  H17X 5679   3.274   5.976   8.922 -0.3229 -0.0079  2.1177
   67SAPC  H17Y 5680   3.441   6.027   8.930 -1.1438  0.7505  3.3335
   67SAPC  C318 5681   3.411   5.864   9.058 -0.9051  0.4961 -0.5197
   67SAPC  H18X 5682   3.347   5.773   9.066  2.4599 -2.0471 -0.0906
   67SAPC  H18Y 5683   3.406   5.934   9.145  0.3589 -0.8342  0.6871
   67SAPC  H18Z 5684   3.513   5.819   9.053 -0.7449  0.7363  0.4295
   68SAPC     N 5685   2.198   4.348   5.677  0.0374  0.1060 -0.2360
   68SAPC   C12 5686   2.193   4.226   5.773  0.0920  0.0812 -0.8764
   68SAPC  H12A 5687   2.286   4.174   5.758 -1.0539 -2.3999  0.0623
   68SAPC  H12B 5688   2.112   4.161   5.740  0.4707 -0.1375 -1.3969
   68SAPC   C13 5689   2.310   4.432   5.721  0.3946 -0.8882  0.3679
   68SAPC  H13A 5690   2.329   4.515   5.654 -1.6862 -1.2183 -0.7072
   68SAPC  H13B 5691   2.285   4.484   5.813  0.1553  0.8649 -0.6280
   68SAPC  H13C 5692   2.394   4.365   5.717 -1.1543 -2.8719 -2.4315
   68SAPC   C14 5693   2.225   4.290   5.549 -0.2083  1.0059  0.2350
   68SAPC  H14A 5694   2.141   4.238   5.506  0.0825  0.0609  0.7758
   68SAPC  H14B 5695   2.249   4.363   5.474  2.9408  0.8183  0.9162
   68SAPC  H14C 5696   2.308   4.221   5.556 -1.4576 -0.4932  0.8187
   68SAPC   C15 5697   2.070   4.422   5.665  0.1350  0.1662 -0.5426
   68SAPC  H15A 5698   2.042   4.459   5.763 -0.2984 -0.1766 -0.5322
   68SAPC  H15B 5699   2.065   4.514   5.608 -3.5589  1.0761  0.9282
   68SAPC  H15C 5700   1.988   4.358   5.636 -0.2913 -0.2201  1.3834
   68SAPC   C11 5701   2.197   4.257   5.923 -0.0799  0.8498  0.0668
   68SAPC  H11A 5702   2.287   4.319   5.942 -0.2883  1.1396  0.1068
   68SAPC  H11B 5703   2.209   4.157   5.970 -2.0376  1.0017  0.9816
   68SAPC     P 5704   1.954   4.286   6.037 -0.1343  0.1364 -0.4152
   68SAPC   O13 5705   1.886   4.403   6.100 -0.1238  0.2897  0.0731
   68SAPC   O14 5706   1.869   4.203   5.951  0.2172  0.5680  0.1381
   68SAPC   O12 5707   2.087   4.338   5.966 -0.1782 -0.3910  0.0432
   68SAPC   O11 5708   2.013   4.193   6.154  0.0768  0.1040 -0.4097
   68SAPC    C1 5709   2.117   4.235   6.245 -0.0259  0.3301 -0.5457
   68SAPC    HA 5710   2.200   4.162   6.229 -0.3753  0.0625 -1.1811
   68SAPC    HB 5711   2.167   4.320   6.195  0.5704  0.0716 -0.4047
   68SAPC    C2 5712   2.083   4.254   6.394  0.6552 -0.2323 -0.2847
   68SAPC    HS 5713   2.176   4.291   6.441 -0.2644 -0.1067  1.5446
   68SAPC   O21 5714   2.043   4.130   6.454  0.1402  0.2085 -0.4209
   68SAPC   C21 5715   2.144   4.073   6.518 -0.5239  0.8218 -0.6345
   68SAPC   O22 5716   2.266   4.097   6.502 -0.2068  0.1464  0.0425
   68SAPC   C22 5717   2.090   3.958   6.597 -0.5277 -0.3081  0.0801
   68SAPC   H2R 5718   2.038   3.990   6.690 -3.3251  2.3709 -2.1827
   68SAPC   H2S 5719   2.011   3.910   6.536 -1.0332  2.9722 -2.0981
   68SAPC    C3 5720   1.964   4.356   6.426 -0.0706  0.6835 -0.3108
   68SAPC    HX 5721   1.874   4.298   6.395 -1.0970  1.2451  1.4373
   68SAPC    HY 5722   1.984   4.445   6.363  0.4491  0.5919 -0.2733
   68SAPC   O31 5723   1.956   4.397   6.566 -0.3703 -0.1782 -0.9546
   68SAPC   C31 5724   1.876   4.502   6.581  0.2921 -0.0544  0.2233
   68SAPC   O32 5725   1.820   4.563   6.496  0.3473 -0.2567  0.2292
   68SAPC   C32 5726   1.886   4.543   6.725 -0.2179  0.0868  0.3509
   68SAPC   H2X 5727   1.918   4.650   6.722  1.3541 -0.3728  0.2882
   68SAPC   H2Y 5728   1.968   4.487   6.774 -0.8769 -1.3786 -0.1789
   68SAPC   C23 5729   2.192   3.845   6.624  0.8062  0.6983  0.4975
   68SAPC   H3R 5730   2.275   3.879   6.689  0.4444  0.9155  0.8489
   68SAPC   H3S 5731   2.227   3.805   6.526  0.0803  1.5535 -0.1214
   68SAPC   C24 5732   2.123   3.721   6.693 -0.6930  0.5404  0.0419
   68SAPC   H4R 5733   2.032   3.685   6.640 -1.0861  0.0200  1.0417
   68SAPC   H4S 5734   2.077   3.745   6.791 -2.3823  0.9075 -0.8103
   68SAPC   C25 5735   2.226   3.609   6.694  0.2907 -0.3555  0.2364
   68SAPC   H5R 5736   2.286   3.605   6.601  1.0821  1.0819  0.6646
   68SAPC   C26 5737   2.255   3.508   6.777  0.0700 -0.1144 -0.5212
   68SAPC   H6R 5738   2.337   3.439   6.753 -0.4417 -1.3386  1.0442
   68SAPC   C27 5739   2.195   3.473   6.912  0.2187 -0.3901 -0.1920
   68SAPC   H7R 5740   2.166   3.366   6.909  2.4639 -1.0280 -2.3678
   68SAPC   H7S 5741   2.093   3.516   6.917 -1.1477 -3.3353 -0.6995
   68SAPC   C28 5742   2.279   3.512   7.033 -0.6927 -0.5146 -0.3757
   68SAPC   H8R 5743   2.386   3.508   7.007 -1.0152  1.8485 -2.4832
   68SAPC   C29 5744   2.238   3.529   7.165 -0.1598  0.3399  0.7736
   68SAPC   H9R 5745   2.310   3.560   7.243  0.0040 -1.7512  1.5244
   68SAPC  C210 5746   2.096   3.521   7.216 -0.5739  0.2995 -0.0249
   68SAPC  H10R 5747   2.033   3.496   7.129 -0.1621 -2.5621  0.4159
   68SAPC  H10S 5748   2.067   3.620   7.258 -0.8386  0.6194 -0.9420
   68SAPC  C211 5749   2.078   3.406   7.311  0.3233 -0.0173  0.5720
   68SAPC  H11R 5750   2.072   3.308   7.262  0.8256  0.1772  0.1133
   68SAPC  C212 5751   2.073   3.404   7.443  0.2440 -0.1463  0.2138
   68SAPC  H12R 5752   2.029   3.319   7.499 -1.5907  0.2291 -0.5776
   68SAPC  C213 5753   2.112   3.526   7.526  0.6130  0.4610  1.0331
   68SAPC  H13R 5754   2.028   3.597   7.511 -1.3386 -1.2442  3.1532
   68SAPC  H13S 5755   2.213   3.559   7.495 -0.0058  1.0282 -0.5058
   68SAPC  C214 5756   2.105   3.486   7.667  0.3708 -0.3811 -0.2499
   68SAPC  H14R 5757   2.102   3.378   7.688 -0.6525 -0.2181  0.5295
   68SAPC  C215 5758   2.115   3.572   7.773  0.9023  0.2455 -0.1522
   68SAPC  H15R 5759   2.099   3.522   7.870  2.6893 -0.9393 -0.4347
   68SAPC  C216 5760   2.145   3.718   7.785  0.1767  0.2212  0.0828
   68SAPC  H16R 5761   2.153   3.764   7.684 -1.6998  0.5359  0.0414
   68SAPC  H16S 5762   2.246   3.731   7.830  0.1520  0.0997  0.1751
   68SAPC  C217 5763   2.050   3.813   7.866  0.4283  0.3278  0.2929
   68SAPC  H17R 5764   1.949   3.800   7.823  0.0661 -0.6731  1.3902
   68SAPC  H17S 5765   2.081   3.918   7.846  0.4278  0.6160  1.7339
   68SAPC  C218 5766   2.036   3.783   8.010 -0.2273 -0.2716  1.2122
   68SAPC  H18R 5767   2.002   3.678   8.021  0.2405 -0.6991 -1.0982
   68SAPC  H18S 5768   1.955   3.852   8.045 -1.0391 -0.9618  0.7199
   68SAPC  C219 5769   2.167   3.820   8.092  0.7735  0.6049  0.1993
   68SAPC  H19R 5770   2.197   3.922   8.061  2.3800  1.3254  3.6539
   68SAPC  H19S 5771   2.244   3.743   8.070  1.1157 -0.0077  3.0653
   68SAPC  C220 5772   2.134   3.797   8.241 -0.7446  0.1527 -0.4151
   68SAPC  H20R 5773   2.097   3.692   8.239  1.9255 -0.8684 -1.3598
   68SAPC  H20S 5774   2.046   3.860   8.265 -0.4545 -0.1777  1.6777
   68SAPC  H20T 5775   2.224   3.815   8.305 -1.4316 -0.7413  0.8491
   68SAPC   C33 5776   1.754   4.524   6.798  0.5255  0.6054 -1.0527
   68SAPC   H3X 5777   1.680   4.463   6.743 -0.7062 -0.4291  1.5623
   68SAPC   H3Y 5778   1.710   4.626   6.798 -0.6502  0.1091 -1.2827
   68SAPC   C34 5779   1.768   4.470   6.942 -0.0108  1.0487 -0.1704
   68SAPC   H4X 5780   1.837   4.533   7.002  1.5249 -0.0049 -0.7580
   68SAPC   H4Y 5781   1.830   4.378   6.934 -0.0039  0.9475  0.9533
   68SAPC   C35 5782   1.643   4.437   7.019 -0.1290 -0.0754 -0.4048
   68SAPC   H5X 5783   1.607   4.351   6.957 -0.0038 -0.9210  0.6712
   68SAPC   H5Y 5784   1.573   4.522   7.002  0.7636  0.5808 -0.9299
   68SAPC   C36 5785   1.668   4.396   7.165  0.2735  0.3977  0.3238
   68SAPC   H6X 5786   1.747   4.318   7.162  0.7704  0.9159 -0.4885
   68SAPC   H6Y 5787   1.575   4.353   7.210  0.1156  1.9575  1.5705
   68SAPC   C37 5788   1.728   4.503   7.256 -0.8475  0.5765  1.0472
   68SAPC   H7X 5789   1.712   4.605   7.216 -1.0391  1.0129  2.2079
   68SAPC   H7Y 5790   1.838   4.491   7.269 -0.9236 -2.3327 -0.1980
   68SAPC   C38 5791   1.660   4.517   7.392 -0.4130  0.3223  0.0047
   68SAPC   H8X 5792   1.557   4.552   7.369  0.4560  0.5893 -4.3940
   68SAPC   H8Y 5793   1.726   4.599   7.430 -0.7770  0.9646 -0.7328
   68SAPC   C39 5794   1.673   4.401   7.481  0.2947  0.1495  0.6012
   68SAPC   H9X 5795   1.778   4.388   7.513  0.5594 -3.7455 -1.2057
   68SAPC   H9Y 5796   1.639   4.309   7.427  0.3584  1.4536 -1.7954
   68SAPC  C310 5797   1.596   4.410   7.612  0.5169  0.0403 -0.4474
   68SAPC  H10X 5798   1.488   4.425   7.592  0.4372 -0.9591 -0.8195
   68SAPC  H10Y 5799   1.634   4.500   7.664 -2.1844  2.6264 -2.6323
   68SAPC  C311 5800   1.616   4.293   7.703  0.1658  0.6020 -0.1475
   68SAPC  H11X 5801   1.614   4.194   7.651  2.2419 -1.2027  2.9294
   68SAPC  H11Y 5802   1.521   4.280   7.759  0.4282 -0.2503  0.1117
   68SAPC  C312 5803   1.735   4.305   7.794 -0.3534  0.2683 -0.1406
   68SAPC  H12X 5804   1.752   4.406   7.837  0.4412 -0.7077  1.9750
   68SAPC  H12Y 5805   1.826   4.298   7.731 -0.3263  4.4834 -0.8506
   68SAPC  C313 5806   1.740   4.203   7.907 -0.2096  0.3061  0.5716
   68SAPC  H13X 5807   1.842   4.195   7.952  0.4894 -2.6468 -1.2488
   68SAPC  H13Y 5808   1.721   4.107   7.855 -0.1467  0.7583 -0.2940
   68SAPC  C314 5809   1.634   4.218   8.019  0.4265  0.5959  0.3330
   68SAPC  H14X 5810   1.533   4.197   7.978  0.4653  1.7450 -0.4020
   68SAPC  H14Y 5811   1.645   4.323   8.055  1.4332  0.0187  1.7939
   68SAPC  C315 5812   1.677   4.127   8.136 -0.5781  0.3620 -0.0025
   68SAPC  H15X 5813   1.783   4.154   8.152 -0.5206  1.0833 -1.4891
   68SAPC  H15Y 5814   1.678   4.019   8.108  0.7747  0.5887 -0.8885
   68SAPC  C316 5815   1.613   4.149   8.271  0.2560  0.3041  0.1527
   68SAPC  H16X 5816   1.504   4.131   8.258 -0.2662  1.5638  2.3102
   68SAPC  H16Y 5817   1.627   4.257   8.296  1.1831 -0.0803  1.4079
   68SAPC  C317 5818   1.669   4.070   8.390  0.1845 -0.7204  0.1287
   68SAPC  H17X 5819   1.780   4.079   8.391  0.0832  0.7676  0.1071
   68SAPC  H17Y 5820   1.641   3.963   8.373 -0.9170 -0.0661 -2.8443
   68SAPC  C318 5821   1.602   4.114   8.523 -0.1337  0.6052  0.2314
   68SAPC  H18X 5822   1.634   4.219   8.538  0.7309  0.3657  0.1036
   68SAPC  H18Y 5823   1.617   4.053   8.614 -1.2477  0.4222  0.3100
   68SAPC  H18Z 5824   1.491   4.116   8.513 -0.0119 -0.0403 -1.8012
   69SLPC     N 5825   3.991   2.373  10.903  0.3769  0.6722  0.4793
   69SLPC   C13 5826   3.914   2.478  10.981  0.3473 -1.1799 -0.2449
   69SLPC  H13A 5827   3.981   2.534  11.045 -1.6562 -0.8763  1.7156
   69SLPC  H13B 5828   3.882   2.557  10.914  1.0426 -0.3018  0.4403
   69SLPC  H13C 5829   3.832   2.441  11.041  0.0052 -2.4188 -1.4308
   69SLPC   C14 5830   4.058   2.288  11.003  0.5872  0.0954 -0.4168
   69SLPC  H14A 5831   4.144   2.240  10.960  0.5599  2.1033 -2.9462
   69SLPC  H14B 5832   4.097   2.346  11.085  1.0604 -0.8999  0.0867
   69SLPC  H14C 5833   3.997   2.208  11.043  1.6942 -1.2034 -1.2355
   69SLPC   C15 5834   4.086   2.453  10.813 -0.0455  0.1540  0.0445
   69SLPC  H15A 5835   4.038   2.528  10.753 -0.2961  0.9266  1.1961
   69SLPC  H15B 5836   4.156   2.510  10.873 -1.0048 -0.5725  1.9338
   69SLPC  H15C 5837   4.132   2.390  10.738  0.6847 -0.3579  0.8921
   69SLPC   C12 5838   3.892   2.296  10.818  0.4241 -0.2352 -0.3482
   69SLPC  H12A 5839   3.951   2.227  10.759  0.8728 -1.7523  1.7139
   69SLPC  H12B 5840   3.851   2.368  10.750  0.2501  0.2011  0.2075
   69SLPC   C11 5841   3.769   2.217  10.887  0.0838 -0.0991  0.9464
   69SLPC  H11A 5842   3.703   2.188  10.802  0.4246 -1.5019  1.1271
   69SLPC  H11B 5843   3.700   2.281  10.946  0.7530 -1.5155  3.4129
   69SLPC     P 5844   3.766   1.977  11.024  0.6790 -0.0669 -0.1679
   69SLPC   O13 5845   3.869   1.918  11.112  0.4712 -0.0726 -1.1128
   69SLPC   O14 5846   3.630   1.986  11.078  0.3111  0.3372 -0.2357
   69SLPC   O12 5847   3.814   2.109  10.969  0.0985 -0.2958  0.2137
   69SLPC   O11 5848   3.763   1.878  10.900  0.5216  0.3664 -0.4473
   69SLPC    C1 5849   3.868   1.863  10.802 -1.0231  0.5185 -0.0568
   69SLPC    HA 5850   3.918   1.956  10.766  1.6292 -0.6132  0.4979
   69SLPC    HB 5851   3.938   1.789  10.844 -1.5721  0.8293  1.4686
   69SLPC    C2 5852   3.798   1.803  10.673 -0.0352 -0.2622 -0.0555
   69SLPC    HS 5853   3.766   1.700  10.699  0.4887  0.1888  2.6465
   69SLPC   O21 5854   3.885   1.812  10.559  0.3944 -0.3154  0.1559
   69SLPC   C21 5855   3.985   1.727  10.564 -0.2800  0.3026 -0.6511
   69SLPC   O22 5856   4.011   1.655  10.661  0.4638 -0.2637 -0.4365
   69SLPC   C22 5857   4.085   1.746  10.446  0.2136  0.2450 -0.0636
   69SLPC   H2R 5858   4.058   1.832  10.381 -1.2183  0.3146  0.5827
   69SLPC   H2S 5859   4.185   1.773  10.488  0.8969  0.3223 -1.6659
   69SLPC    C3 5860   3.665   1.871  10.640  0.0968 -0.6292  0.2637
   69SLPC    HX 5861   3.686   1.980  10.634 -1.1873 -0.2291  2.2849
   69SLPC    HY 5862   3.599   1.851  10.727  2.3419 -4.4442  1.3256
   69SLPC   O31 5863   3.611   1.815  10.513 -0.8288  0.0940 -0.0543
   69SLPC   C31 5864   3.601   1.898  10.411 -0.4521  0.6516  0.5753
   69SLPC   O32 5865   3.640   2.012  10.415 -0.0769  0.4719  0.6810
   69SLPC   C32 5866   3.526   1.838  10.292  0.1824  0.8060 -0.4144
   69SLPC   H2X 5867   3.422   1.828  10.330  0.7725  1.8970  1.6203
   69SLPC   H2Y 5868   3.577   1.741  10.271  1.7919  1.5732 -0.2346
   69SLPC   C23 5869   4.098   1.610  10.374  0.5841 -0.2669  0.0049
   69SLPC   H3R 5870   4.148   1.545  10.450  0.9006  0.2741  0.2605
   69SLPC   H3S 5871   4.172   1.638  10.296 -1.2302 -0.1216 -1.7592
   69SLPC   C24 5872   3.974   1.548  10.304  0.0565  0.1661 -0.0129
   69SLPC   H4R 5873   3.897   1.519  10.379 -0.6408  1.2081 -0.2959
   69SLPC   H4S 5874   4.015   1.455  10.261  0.1885 -0.1542  0.7845
   69SLPC   C25 5875   3.905   1.631  10.195  0.2813 -0.3775  0.2493
   69SLPC   H5R 5876   3.978   1.648  10.112  0.2686 -0.3163  0.2513
   69SLPC   H5S 5877   3.882   1.733  10.232 -0.0273 -0.6653  0.8616
   69SLPC   C26 5878   3.779   1.552  10.130 -0.5037 -0.0874  0.5098
   69SLPC   H6R 5879   3.742   1.628  10.057  2.3182  0.7281 -0.2045
   69SLPC   H6S 5880   3.705   1.524  10.208  0.6759  0.0591  1.7175
   69SLPC   C27 5881   3.823   1.422  10.052 -0.3553 -0.7196 -0.3998
   69SLPC   H7R 5882   3.733   1.382  10.000  0.3268 -0.9171 -1.4521
   69SLPC   H7S 5883   3.856   1.349  10.128  2.4984  1.6795  0.8469
   69SLPC   C28 5884   3.933   1.439   9.941  0.6766 -0.2037 -0.1427
   69SLPC   H8R 5885   3.932   1.343   9.884  1.0927  0.2041 -0.8551
   69SLPC   H8S 5886   4.036   1.436   9.984  0.2527 -1.7632  0.8542
   69SLPC   C29 5887   3.909   1.554   9.850  0.1530 -0.2038  0.1386
   69SLPC   H9R 5888   3.942   1.650   9.893  2.6026 -0.3010 -1.3254
   69SLPC  C210 5889   3.853   1.557   9.732 -0.0912 -0.4386 -0.5432
   69SLPC  H10R 5890   3.864   1.651   9.677  3.3379  0.7693  1.8981
   69SLPC  C211 5891   3.794   1.436   9.658  0.2704  0.4528 -0.0027
   69SLPC  H11R 5892   3.686   1.458   9.648  0.3304  0.6889 -0.1461
   69SLPC  H11S 5893   3.783   1.345   9.721 -2.3599  0.2036 -0.7403
   69SLPC  C212 5894   3.857   1.393   9.524 -0.0911 -0.2969  0.0901
   69SLPC  H12R 5895   3.903   1.293   9.533 -0.4024 -0.3323  1.4380
   69SLPC  C213 5896   3.860   1.460   9.406 -0.6371 -0.3174  0.5963
   69SLPC  H13R 5897   3.915   1.412   9.323 -0.4429  0.7322  0.1030
   69SLPC  C214 5898   3.807   1.594   9.381 -0.3476  0.0141 -0.1595
   69SLPC  H14R 5899   3.875   1.681   9.364 -1.0593  1.2670  2.8483
   69SLPC  H14S 5900   3.752   1.626   9.471  0.7232 -0.0176  0.5258
   69SLPC  C215 5901   3.723   1.573   9.255 -0.4115 -0.3307  0.0336
   69SLPC  H15R 5902   3.668   1.667   9.233 -0.8385 -0.6837 -0.4325
   69SLPC  H15S 5903   3.655   1.486   9.266 -1.5400  0.2775 -1.6737
   69SLPC  C216 5904   3.801   1.551   9.118  0.9162  0.0380 -0.9177
   69SLPC  H16R 5905   3.721   1.560   9.041  0.4845  1.1245 -0.3657
   69SLPC  H16S 5906   3.852   1.453   9.118  0.3858 -0.2479  0.0983
   69SLPC  C217 5907   3.905   1.658   9.079  0.4402 -0.1739  0.7137
   69SLPC  H17R 5908   3.980   1.661   9.161  1.8440 -0.9899 -0.4979
   69SLPC  H17S 5909   3.861   1.760   9.085 -0.7694 -0.6575  0.3869
   69SLPC  C218 5910   3.961   1.636   8.938 -0.0047 -0.5565  0.2397
   69SLPC  H18R 5911   4.035   1.553   8.933  0.2769 -0.3572  1.0561
   69SLPC  H18S 5912   4.029   1.720   8.915 -0.1747 -0.1577  1.1285
   69SLPC  H18T 5913   3.876   1.633   8.866  0.2635 -0.1063 -0.0984
   69SLPC   C33 5914   3.517   1.929  10.169 -0.6040 -0.2643  0.4036
   69SLPC   H3X 5915   3.512   2.033  10.208 -0.4797 -0.7442  1.7352
   69SLPC   H3Y 5916   3.434   1.903  10.100 -0.0637 -0.3146 -0.2467
   69SLPC   C34 5917   3.640   1.937  10.074 -0.0286  0.4884 -0.0145
   69SLPC   H4X 5918   3.653   1.843  10.017 -2.9234  0.3537 -0.6092
   69SLPC   H4Y 5919   3.733   1.949  10.134  0.0158  1.1270 -0.1954
   69SLPC   C35 5920   3.623   2.049   9.961 -0.1630 -0.6635  0.1384
   69SLPC   H5X 5921   3.726   2.069   9.925 -1.4142  0.0722 -3.4467
   69SLPC   H5Y 5922   3.578   2.139  10.008  0.6000 -0.1930 -0.0210
   69SLPC   C36 5923   3.534   2.001   9.849 -0.7896  0.8735 -0.8056
   69SLPC   H6X 5924   3.507   2.097   9.801 -0.6681  1.0300 -0.5648
   69SLPC   H6Y 5925   3.441   1.960   9.895  0.7419  0.0253  1.7733
   69SLPC   C37 5926   3.603   1.909   9.755 -0.4685  0.3542 -0.4474
   69SLPC   H7X 5927   3.617   1.806   9.794  1.2339 -0.1925 -2.3159
   69SLPC   H7Y 5928   3.703   1.953   9.733  0.0254 -0.2871  0.4245
   69SLPC   C38 5929   3.541   1.887   9.614 -0.2030  0.6497 -0.3933
   69SLPC   H8X 5930   3.431   1.891   9.627 -0.1927 -1.5082  0.7711
   69SLPC   H8Y 5931   3.552   1.783   9.577 -0.2376  1.3567 -2.5266
   69SLPC   C39 5932   3.581   1.995   9.514  0.2073 -0.5554 -0.1795
   69SLPC   H9X 5933   3.689   2.020   9.514  0.4067 -1.3358 -1.1579
   69SLPC   H9Y 5934   3.521   2.082   9.548 -0.7311 -1.6110  0.9423
   69SLPC  C310 5935   3.552   1.952   9.368 -0.0542 -0.1313  0.1568
   69SLPC  H10X 5936   3.466   1.883   9.362  1.1801 -1.6864 -0.1945
   69SLPC  H10Y 5937   3.638   1.889   9.335 -2.3842 -2.6840 -1.4933
   69SLPC  C311 5938   3.521   2.081   9.292  0.1717 -0.7418 -0.0407
   69SLPC  H11X 5939   3.598   2.155   9.323 -1.1286 -0.2126  2.1499
   69SLPC  H11Y 5940   3.425   2.130   9.318  0.2532  0.5778 -2.0302
   69SLPC  C312 5941   3.548   2.072   9.142 -0.0967 -0.2962 -0.0076
   69SLPC  H12X 5942   3.504   1.975   9.110  1.8259 -1.8983  1.8726
   69SLPC  H12Y 5943   3.658   2.078   9.124 -0.2936  1.6660 -0.8141
   69SLPC  C313 5944   3.490   2.187   9.062 -0.5879  0.0499 -0.1313
   69SLPC  H13X 5945   3.527   2.284   9.101 -0.8031 -0.2209  0.7757
   69SLPC  H13Y 5946   3.380   2.187   9.076 -0.8985  1.2886 -2.2677
   69SLPC  C314 5947   3.512   2.180   8.904 -0.1811  0.7169 -0.0800
   69SLPC  H14X 5948   3.560   2.081   8.887  1.4046  1.4367  0.0356
   69SLPC  H14Y 5949   3.580   2.260   8.870  0.7333  0.7239  1.6429
   69SLPC  C315 5950   3.381   2.189   8.827 -0.1315  0.4757 -0.0664
   69SLPC  H15X 5951   3.342   2.289   8.853  1.3344  0.8408  0.8379
   69SLPC  H15Y 5952   3.315   2.107   8.863  1.0193 -1.1269 -1.4307
   69SLPC  C316 5953   3.388   2.156   8.678  0.5864  0.3683  0.7299
   69SLPC  H16X 5954   3.407   2.049   8.657 -2.4668  0.1163 -1.3494
   69SLPC  H16Y 5955   3.482   2.202   8.640  1.4721 -1.2266  0.9235
   69SLPC  C317 5956   3.266   2.202   8.601  0.1849  0.1977  0.5988
   69SLPC  H17X 5957   3.286   2.183   8.494  3.7416 -1.2480  1.3916
   69SLPC  H17Y 5958   3.245   2.311   8.616 -0.2919  0.1307  0.4260
   69SLPC  C318 5959   3.137   2.129   8.638  0.2983  0.1155 -0.0215
   69SLPC  H18X 5960   3.152   2.019   8.637 -0.4816 -0.0003 -1.3653
   69SLPC  H18Y 5961   3.059   2.161   8.566  0.0929  1.1248  0.6255
   69SLPC  H18Z 5962   3.093   2.154   8.738  1.4261  0.1910  0.4656
   70SLPC     N 5963   5.336   6.475  11.183  0.0535  0.0055  0.6094
   70SLPC   C13 5964   5.194   6.524  11.185  0.8062  0.0051 -0.1644
   70SLPC  H13A 5965   5.185   6.622  11.142 -0.9778 -0.5533 -1.1667
   70SLPC  H13B 5966   5.139   6.453  11.126 -1.4611  1.3580  0.2143
   70SLPC  H13C 5967   5.147   6.514  11.282 -0.8887 -1.5776 -1.0819
   70SLPC   C14 5968   5.359   6.354  11.260 -0.1594 -0.0218  0.7111
   70SLPC  H14A 5969   5.306   6.266  11.227 -0.8964  1.1629 -1.5262
   70SLPC  H14B 5970   5.460   6.316  11.247 -0.0066 -0.0432  1.8794
   70SLPC  H14C 5971   5.348   6.372  11.366  1.1555  2.6246  0.4819
   70SLPC   C15 5972   5.428   6.587  11.237  0.4254  0.0993 -0.3442
   70SLPC  H15A 5973   5.534   6.564  11.246  0.6460  1.0437 -0.4335
   70SLPC  H15B 5974   5.428   6.668  11.166  1.7718  1.3241  0.9720
   70SLPC  H15C 5975   5.388   6.631  11.327  1.8892  0.5846  0.1054
   70SLPC   C12 5976   5.376   6.451  11.039 -0.2116 -0.3789  0.4681
   70SLPC  H12A 5977   5.484   6.454  11.044 -0.0581  0.4309 -1.9627
   70SLPC  H12B 5978   5.354   6.530  10.969  0.2842 -1.4321 -0.9341
   70SLPC   C11 5979   5.317   6.331  10.970  0.1950  0.4189  0.4343
   70SLPC  H11A 5980   5.342   6.236  11.022 -1.3308 -0.5869 -0.5929
   70SLPC  H11B 5981   5.368   6.337  10.871  1.6542 -0.2639  1.1041
   70SLPC     P 5982   5.099   6.253  10.854 -0.0165 -0.3130 -0.0931
   70SLPC   O13 5983   5.196   6.199  10.753  0.0986  0.1725 -1.1198
   70SLPC   O14 5984   5.022   6.158  10.939  0.4646 -0.5014 -0.3791
   70SLPC   O12 5985   5.173   6.349  10.951 -0.5365  0.0817  0.2084
   70SLPC   O11 5986   4.995   6.352  10.785  0.2472 -0.2552 -0.0850
   70SLPC    C1 5987   5.048   6.469  10.721  0.0951  0.6673 -0.6814
   70SLPC    HA 5988   4.988   6.563  10.721  1.3368  1.4865 -1.4979
   70SLPC    HB 5989   5.146   6.491  10.767  0.9022  0.0847 -2.0615
   70SLPC    C2 5990   5.059   6.450  10.568 -0.0375 -0.4682  0.0769
   70SLPC    HS 5991   5.131   6.369  10.546  0.4453 -0.4261  1.3818
   70SLPC   O21 5992   5.092   6.575  10.498 -0.0511 -0.6376 -0.2542
   70SLPC   C21 5993   5.219   6.602  10.497  0.9855  0.5089 -0.6756
   70SLPC   O22 5994   5.303   6.514  10.508  0.9997  0.0169 -1.1080
   70SLPC   C22 5995   5.244   6.754  10.464 -0.7711 -0.3018  0.3339
   70SLPC   H2R 5996   5.148   6.805  10.442 -1.4802 -1.1431  1.3731
   70SLPC   H2S 5997   5.276   6.784  10.566  1.9786 -2.5024  0.2580
   70SLPC    C3 5998   4.924   6.400  10.518 -0.4975 -0.9588 -0.3095
   70SLPC    HX 5999   4.842   6.468  10.552  0.1698 -0.0530 -0.4635
   70SLPC    HY 6000   4.915   6.297  10.557  0.4361 -1.3753 -1.1541
   70SLPC   O31 6001   4.923   6.384  10.375  0.0335 -0.3356  0.2622
   70SLPC   C31 6002   5.003   6.296  10.314  0.6361  0.0350 -0.3260
   70SLPC   O32 6003   5.086   6.219  10.364  0.1288 -0.5408  0.2248
   70SLPC   C32 6004   4.972   6.317  10.161 -0.0346 -0.1491 -0.6511
   70SLPC   H2X 6005   4.965   6.425  10.135  1.9323  0.1777 -0.0092
   70SLPC   H2Y 6006   4.872   6.276  10.138 -1.1849  1.6796  0.7039
   70SLPC   C23 6007   5.352   6.772  10.354 -0.1170  0.2489  0.7691
   70SLPC   H3R 6008   5.431   6.698  10.377  0.3759 -0.0206 -1.5396
   70SLPC   H3S 6009   5.390   6.876  10.358  0.8303 -0.1371  2.4025
   70SLPC   C24 6010   5.289   6.740  10.221  0.2605 -0.2589 -0.1324
   70SLPC   H4R 6011   5.213   6.817  10.199 -0.4211 -1.0487 -0.6021
   70SLPC   H4S 6012   5.231   6.645  10.230  1.3775 -1.2167 -2.2640
   70SLPC   C25 6013   5.383   6.734  10.103  0.1854  0.4174 -0.0130
   70SLPC   H5R 6014   5.458   6.652  10.111  0.7335  0.8877 -0.2504
   70SLPC   H5S 6015   5.435   6.832  10.101 -1.4837  1.3725  0.8511
   70SLPC   C26 6016   5.317   6.724   9.966  0.2831  0.2352  0.1490
   70SLPC   H6R 6017   5.374   6.780   9.889  1.6968  1.6677  2.1229
   70SLPC   H6S 6018   5.228   6.788   9.981 -0.5139 -1.4201  3.5524
   70SLPC   C27 6019   5.279   6.586   9.922 -0.3861  0.2946  0.3148
   70SLPC   H7R 6020   5.198   6.551   9.990 -0.3395 -0.2569  0.0891
   70SLPC   H7S 6021   5.368   6.521   9.931 -0.6003 -0.9143 -4.0316
   70SLPC   C28 6022   5.224   6.580   9.778 -0.1436  0.1571  0.7233
   70SLPC   H8R 6023   5.147   6.660   9.778 -1.3370 -0.9353 -0.8664
   70SLPC   H8S 6024   5.172   6.483   9.764 -1.5484  1.0133 -0.1796
   70SLPC   C29 6025   5.314   6.603   9.664  0.4367  0.5608  0.2487
   70SLPC   H9R 6026   5.419   6.611   9.696  0.7624  0.7691 -0.8144
   70SLPC  C210 6027   5.273   6.601   9.535 -0.3588  0.2447  0.3019
   70SLPC  H10R 6028   5.351   6.618   9.459 -1.8779 -0.1364 -1.4135
   70SLPC  C211 6029   5.135   6.577   9.472 -0.5046 -0.0163 -0.0545
   70SLPC  H11R 6030   5.086   6.677   9.466 -0.2972  0.0551 -0.6809
   70SLPC  H11S 6031   5.082   6.513   9.545 -0.3366 -0.5927 -0.4342
   70SLPC  C212 6032   5.134   6.516   9.336  0.7096  0.0614 -0.5796
   70SLPC  H12R 6033   5.110   6.409   9.345 -1.0726  0.5692  1.9077
   70SLPC  C213 6034   5.169   6.580   9.224 -0.1323  0.0039 -1.0562
   70SLPC  H13R 6035   5.146   6.529   9.129 -2.7583  0.3553 -0.6918
   70SLPC  C214 6036   5.206   6.727   9.195  0.3743 -0.3366 -0.7539
   70SLPC  H14R 6037   5.199   6.785   9.290 -0.2939  0.2596 -1.1510
   70SLPC  H14S 6038   5.134   6.764   9.118 -1.2527  0.0321  0.8671
   70SLPC  C215 6039   5.347   6.727   9.138  0.1210  0.2007 -0.4141
   70SLPC  H15R 6040   5.371   6.631   9.088  1.2143  2.1366 -3.9088
   70SLPC  H15S 6041   5.424   6.747   9.216  1.3087  0.4707 -1.6283
   70SLPC  C216 6042   5.368   6.819   9.025 -0.2027  0.0776  0.3920
   70SLPC  H16R 6043   5.339   6.924   9.046  0.9580  0.4748  0.0755
   70SLPC  H16S 6044   5.302   6.782   8.944  1.3582 -0.7938 -0.5348
   70SLPC  C217 6045   5.516   6.802   8.972  0.4019 -0.9949 -0.4201
   70SLPC  H17R 6046   5.513   6.699   8.930  0.3045 -0.3141 -2.1364
   70SLPC  H17S 6047   5.595   6.811   9.050  0.4276 -0.3603 -0.5141
   70SLPC  C218 6048   5.531   6.907   8.859  0.1027  0.1079  0.2462
   70SLPC  H18R 6049   5.557   7.010   8.893  2.8077 -0.8400  1.3302
   70SLPC  H18S 6050   5.435   6.908   8.802  0.1316  0.2563  0.1981
   70SLPC  H18T 6051   5.613   6.878   8.789  2.0696  3.1210  1.0833
   70SLPC   C33 6052   5.088   6.258  10.068  0.2594 -0.2507  0.0506
   70SLPC   H3X 6053   5.110   6.162  10.120 -0.0739  0.7629  2.1620
   70SLPC   H3Y 6054   5.174   6.328  10.075 -0.1054  0.0282  4.2785
   70SLPC   C34 6055   5.051   6.239   9.912  0.3736 -0.2686  0.0797
   70SLPC   H4X 6056   5.148   6.210   9.868  0.6212  2.3474 -1.2822
   70SLPC   H4Y 6057   5.025   6.332   9.857  0.0450 -1.7891 -2.5184
   70SLPC   C35 6058   4.943   6.129   9.879  0.0112 -0.3959  0.1735
   70SLPC   H5X 6059   4.838   6.161   9.894 -0.5612 -1.8364 -0.5835
   70SLPC   H5Y 6060   4.966   6.026   9.915  3.9222 -0.1883 -1.2034
   70SLPC   C36 6061   4.938   6.094   9.727  0.2412 -0.2030  0.0219
   70SLPC   H6X 6062   4.864   6.011   9.732  1.6712 -1.7109 -1.9651
   70SLPC   H6Y 6063   5.038   6.053   9.701  0.0950 -0.8547  0.4628
   70SLPC   C37 6064   4.883   6.206   9.641 -0.1678 -0.3960 -0.0705
   70SLPC   H7X 6065   4.943   6.299   9.644 -1.1416  0.3148 -1.4626
   70SLPC   H7Y 6066   4.789   6.249   9.681 -0.1365 -0.5531  0.1695
   70SLPC   C38 6067   4.865   6.177   9.489  1.2211  1.4548 -0.2493
   70SLPC   H8X 6068   4.838   6.272   9.438  1.0903  0.3313 -2.4134
   70SLPC   H8Y 6069   4.784   6.103   9.469  0.5072  1.3009  2.7688
   70SLPC   C39 6070   4.998   6.134   9.423 -0.0130 -0.4497 -0.6918
   70SLPC   H9X 6071   5.035   6.039   9.466 -2.7562 -1.7508 -0.9973
   70SLPC   H9Y 6072   5.071   6.212   9.456 -0.0769  0.0385 -1.6796
   70SLPC  C310 6073   4.995   6.145   9.275 -0.4262  0.0225  0.1651
   70SLPC  H10X 6074   4.956   6.248   9.260 -2.6376 -0.9523 -1.4329
   70SLPC  H10Y 6075   4.928   6.067   9.231  1.0917  0.1187 -2.5064
   70SLPC  C311 6076   5.129   6.126   9.210  0.8358 -0.0743 -0.6597
   70SLPC  H11X 6077   5.183   6.034   9.241  0.6984 -0.0828 -0.4465
   70SLPC  H11Y 6078   5.197   6.210   9.237 -0.8296  0.5822  1.8477
   70SLPC  C312 6079   5.130   6.127   9.055  0.1990 -0.7531  0.1102
   70SLPC  H12X 6080   5.033   6.161   9.012  0.4170 -1.3558 -0.9125
   70SLPC  H12Y 6081   5.149   6.023   9.021 -0.6614 -1.0654  0.5494
   70SLPC  C313 6082   5.246   6.207   8.994 -0.2801 -0.1373  0.5916
   70SLPC  H13X 6083   5.338   6.181   9.051  0.5716  1.2581 -0.1009
   70SLPC  H13Y 6084   5.241   6.315   9.017 -1.0217  0.1887 -1.0027
   70SLPC  C314 6085   5.275   6.171   8.845  0.2271  0.2171 -0.6168
   70SLPC  H14X 6086   5.357   6.241   8.820 -0.5531  1.6371  0.6417
   70SLPC  H14Y 6087   5.191   6.202   8.780  0.3829 -0.2459 -1.0507
   70SLPC  C315 6088   5.328   6.035   8.808 -0.2430  0.2494  0.6979
   70SLPC  H15X 6089   5.242   5.967   8.790  0.4602 -0.1325 -1.5957
   70SLPC  H15Y 6090   5.392   6.005   8.893  1.7298  1.4440 -0.3111
   70SLPC  C316 6091   5.424   6.029   8.689  0.3561 -0.1349  0.4342
   70SLPC  H16X 6092   5.447   5.925   8.659  0.5419  0.2909 -0.9770
   70SLPC  H16Y 6093   5.522   6.069   8.721  2.1727 -3.1787 -0.9396
   70SLPC  C317 6094   5.370   6.107   8.563 -0.2223 -0.2159 -0.5653
   70SLPC  H17X 6095   5.451   6.123   8.490  0.3185  0.6080  0.1922
   70SLPC  H17Y 6096   5.342   6.213   8.584  1.9842  0.5110 -1.0553
   70SLPC  C318 6097   5.254   6.034   8.494 -0.2519  0.2335  0.3571
   70SLPC  H18X 6098   5.241   6.070   8.389  1.0297 -0.8189 -0.1893
   70SLPC  H18Y 6099   5.168   6.030   8.564  0.2557  2.4036  1.1853
   70SLPC  H18Z 6100   5.289   5.929   8.484  0.3730  0.3491  1.1940
   71SLPC     N 6101   4.686   5.195  11.124 -0.2539  0.3786  0.6974
   71SLPC   C13 6102   4.677   5.337  11.064  0.2548 -0.4317  0.4670
   71SLPC  H13A 6103   4.573   5.367  11.058 -0.7795 -3.4868  1.4907
   71SLPC  H13B 6104   4.723   5.405  11.134 -0.8959 -0.2715  1.0981
   71SLPC  H13C 6105   4.723   5.343  10.966 -1.4099 -0.2149 -0.3284
   71SLPC   C14 6106   4.606   5.200  11.255 -0.0164  0.2453  0.0434
   71SLPC  H14A 6107   4.644   5.277  11.319  0.8497 -1.0599  1.1547
   71SLPC  H14B 6108   4.500   5.216  11.243 -0.3055 -1.0423  0.7205
   71SLPC  H14C 6109   4.625   5.105  11.302  1.5597  0.8869  0.7700
   71SLPC   C15 6110   4.835   5.166  11.162  0.3728 -0.3452 -0.0689
   71SLPC  H15A 6111   4.874   5.238  11.232  1.7825 -1.9647  0.9116
   71SLPC  H15B 6112   4.843   5.070  11.212  0.3633 -0.5533 -0.4574
   71SLPC  H15C 6113   4.900   5.159  11.075  3.5662  0.1085  2.1013
   71SLPC   C12 6114   4.638   5.091  11.024 -0.5884 -0.1523  0.4412
   71SLPC  H12A 6115   4.532   5.105  11.007 -0.4726  2.0622  1.1707
   71SLPC  H12B 6116   4.658   4.997  11.073  2.6719  1.7629  3.1645
   71SLPC   C11 6117   4.710   5.087  10.884 -0.5259  0.5237  0.0007
   71SLPC  H11A 6118   4.710   5.187  10.836 -2.0960  1.3286  1.5857
   71SLPC  H11B 6119   4.655   5.026  10.808 -0.5718  1.1526 -0.4813
   71SLPC     P 6120   4.891   4.895  10.913 -0.2174 -0.4178 -0.0059
   71SLPC   O13 6121   5.027   4.879  10.977  0.4371 -0.1614  0.1329
   71SLPC   O14 6122   4.779   4.809  10.960  0.0686 -0.1978 -0.5203
   71SLPC   O12 6123   4.847   5.051  10.908 -0.2131  0.3433 -0.3107
   71SLPC   O11 6124   4.917   4.848  10.763 -0.0444  0.2032 -0.0141
   71SLPC    C1 6125   4.923   4.954  10.656  0.5233  0.5716 -0.2548
   71SLPC    HA 6126   4.823   5.002  10.653 -0.4212 -1.3298 -1.0700
   71SLPC    HB 6127   5.008   5.023  10.675  0.5025 -0.1949  3.2301
   71SLPC    C2 6128   4.952   4.895  10.511 -0.1059 -0.6756 -0.0362
   71SLPC    HS 6129   4.944   4.977  10.436 -1.6121 -2.1695 -1.6035
   71SLPC   O21 6130   4.855   4.789  10.475  0.3379 -0.7228  0.0195
   71SLPC   C21 6131   4.734   4.826  10.445  0.5509  0.2933 -0.4039
   71SLPC   O22 6132   4.690   4.939  10.456  0.2861 -0.4506  0.1622
   71SLPC   C22 6133   4.655   4.701  10.401 -0.7957 -0.8074 -0.2773
   71SLPC   H2R 6134   4.648   4.626  10.483 -0.2533 -0.8063 -0.2293
   71SLPC   H2S 6135   4.553   4.742  10.387 -0.5814  0.0203  0.5129
   71SLPC    C3 6136   5.093   4.838  10.492 -0.5653 -0.2454  0.0305
   71SLPC    HX 6137   5.089   4.736  10.536  0.6470 -0.9974 -1.5437
   71SLPC    HY 6138   5.171   4.889  10.553 -2.6325  2.1364  0.8720
   71SLPC   O31 6139   5.124   4.842  10.350  0.7827  0.4682 -0.2607
   71SLPC   C31 6140   5.110   4.728  10.291  0.3145  0.2425 -0.4579
   71SLPC   O32 6141   5.059   4.626  10.342  0.1184 -0.2430 -0.2826
   71SLPC   C32 6142   5.179   4.721  10.154 -0.1620 -0.2240  1.0681
   71SLPC   H2X 6143   5.221   4.620  10.135 -1.8418 -1.5333  3.7640
   71SLPC   H2Y 6144   5.242   4.811  10.143 -2.0201  1.1481  1.1258
   71SLPC   C23 6145   4.709   4.637  10.272 -0.8786  0.2069 -0.3349
   71SLPC   H3R 6146   4.653   4.541  10.264  2.1668 -1.7187 -0.4878
   71SLPC   H3S 6147   4.816   4.606  10.267 -0.4020  1.8784 -1.1843
   71SLPC   C24 6148   4.691   4.723  10.147  0.1623  0.0316 -0.0225
   71SLPC   H4R 6149   4.773   4.796  10.135 -0.6234  1.0454  0.6162
   71SLPC   H4S 6150   4.597   4.782  10.144  0.9767  1.3413 -0.5531
   71SLPC   C25 6151   4.669   4.638  10.016  0.3597 -0.4960 -0.6376
   71SLPC   H5R 6152   4.598   4.561  10.053 -1.7348  1.8068  0.4710
   71SLPC   H5S 6153   4.763   4.591   9.979  2.2083  1.6395  1.0661
   71SLPC   C26 6154   4.620   4.726   9.897 -0.4768  0.3770 -0.2355
   71SLPC   H6R 6155   4.630   4.649   9.818 -0.3033  0.4023 -0.2371
   71SLPC   H6S 6156   4.680   4.818   9.881  0.6450 -0.2344  0.3208
   71SLPC   C27 6157   4.474   4.749   9.904 -0.2890  0.1444 -0.2912
   71SLPC   H7R 6158   4.475   4.843   9.963 -0.0469 -0.9844  1.5940
   71SLPC   H7S 6159   4.444   4.664   9.970  2.2422  0.7623  1.8453
   71SLPC   C28 6160   4.402   4.759   9.772  0.4807  0.1674  0.0344
   71SLPC   H8R 6161   4.294   4.771   9.793 -0.0234 -1.7535 -1.2006
   71SLPC   H8S 6162   4.416   4.659   9.726  0.1431  0.1237  0.0261
   71SLPC   C29 6163   4.460   4.874   9.691  0.2995  0.1130  0.2422
   71SLPC   H9R 6164   4.496   4.962   9.747  2.1031  0.4085 -1.2807
   71SLPC  C210 6165   4.488   4.861   9.561 -0.0643 -0.6096 -0.0706
   71SLPC  H10R 6166   4.550   4.945   9.524  1.1708 -1.1437  0.7012
   71SLPC  C211 6167   4.455   4.740   9.475  0.0638 -0.0417 -0.6919
   71SLPC  H11R 6168   4.483   4.642   9.519  0.3515 -0.8797 -2.6462
   71SLPC  H11S 6169   4.515   4.744   9.381  0.4960  2.3333 -0.3738
   71SLPC  C212 6170   4.312   4.747   9.438  0.0459  0.8197  0.1945
   71SLPC  H12R 6171   4.245   4.781   9.518  0.3506  1.0302  0.3608
   71SLPC  C213 6172   4.265   4.698   9.320 -0.3798  0.2817  0.1008
   71SLPC  H13R 6173   4.158   4.710   9.297 -0.3164 -0.0374 -0.3791
   71SLPC  C214 6174   4.334   4.648   9.198 -0.1843 -0.2903  0.5587
   71SLPC  H14R 6175   4.272   4.570   9.151 -0.0705 -1.1594  1.8119
   71SLPC  H14S 6176   4.433   4.607   9.230 -0.8355 -0.1779  2.9243
   71SLPC  C215 6177   4.359   4.757   9.095  0.1002 -0.7219 -0.0996
   71SLPC  H15R 6178   4.414   4.841   9.142  1.2565 -0.5279 -1.7081
   71SLPC  H15S 6179   4.262   4.790   9.053 -0.2021 -1.7856 -0.2552
   71SLPC  C216 6180   4.447   4.712   8.980 -0.2445 -0.1661 -0.2138
   71SLPC  H16R 6181   4.412   4.614   8.941 -2.5605  0.7606 -0.6070
   71SLPC  H16S 6182   4.542   4.693   9.034 -0.3077  0.6750  0.2153
   71SLPC  C217 6183   4.463   4.821   8.874  0.2415  0.4162 -0.7100
   71SLPC  H17R 6184   4.506   4.911   8.923 -0.4568  0.0054  0.7110
   71SLPC  H17S 6185   4.367   4.848   8.824  0.5521 -0.7519 -2.0280
   71SLPC  C218 6186   4.567   4.775   8.756  0.7745  0.5949  0.0619
   71SLPC  H18R 6187   4.653   4.733   8.813  2.4831  1.7519 -1.5501
   71SLPC  H18S 6188   4.590   4.865   8.695 -0.7779  1.8602  1.2523
   71SLPC  H18T 6189   4.514   4.699   8.696 -1.0566  1.8191  0.0550
   71SLPC   C33 6190   5.077   4.756  10.039 -0.5464  0.0187  0.0529
   71SLPC   H3X 6191   5.035   4.856  10.063 -0.5727 -0.1061  0.5268
   71SLPC   H3Y 6192   4.995   4.682  10.032 -0.0156 -0.4140 -2.1032
   71SLPC   C34 6193   5.138   4.745   9.892 -0.5561 -0.1432 -0.1447
   71SLPC   H4X 6194   5.132   4.639   9.861 -2.2011  0.2931 -1.3858
   71SLPC   H4Y 6195   5.242   4.784   9.881 -0.6000 -0.2709 -1.0758
   71SLPC   C35 6196   5.040   4.822   9.800  0.0076 -0.3345 -0.1555
   71SLPC   H5X 6197   5.058   4.931   9.813 -2.2112  0.0850 -0.2745
   71SLPC   H5Y 6198   4.937   4.793   9.832 -0.0907 -1.7783 -1.6411
   71SLPC   C36 6199   5.074   4.782   9.657  0.8041 -0.0534 -0.0577
   71SLPC   H6X 6200   5.087   4.672   9.644 -1.4256 -0.1287 -2.4852
   71SLPC   H6Y 6201   5.173   4.821   9.624  1.2232 -1.5301 -0.6525
   71SLPC   C37 6202   4.970   4.814   9.550 -0.5777  0.1642 -0.8383
   71SLPC   H7X 6203   4.938   4.920   9.565 -1.6584 -0.1527 -0.7940
   71SLPC   H7Y 6204   4.875   4.761   9.574 -0.0505 -1.1346 -1.5138
   71SLPC   C38 6205   5.012   4.797   9.410 -0.4629 -0.9030 -0.0149
   71SLPC   H8X 6206   5.024   4.688   9.390  0.0047 -0.8140 -0.2334
   71SLPC   H8Y 6207   5.113   4.843   9.401 -0.4067 -1.1722 -0.9036
   71SLPC   C39 6208   4.918   4.865   9.307 -0.1349 -0.9849 -0.5612
   71SLPC   H9X 6209   4.886   4.964   9.346  0.1480 -1.2777  0.4336
   71SLPC   H9Y 6210   4.818   4.818   9.311 -0.4773 -0.1994  0.4733
   71SLPC  C310 6211   4.981   4.868   9.160 -0.2573  0.4366  1.2289
   71SLPC  H10X 6212   5.068   4.799   9.160 -0.8162 -0.4594 -1.9118
   71SLPC  H10Y 6213   5.015   4.969   9.127  0.4982 -0.2023 -0.0199
   71SLPC  C311 6214   4.894   4.802   9.048  0.6998  1.3464 -0.2628
   71SLPC  H11X 6215   4.814   4.878   9.045 -3.3357 -2.1741  3.8224
   71SLPC  H11Y 6216   4.851   4.709   9.089 -1.5389  2.0845 -0.8210
   71SLPC  C312 6217   4.957   4.778   8.904 -0.2748  0.3360  0.0552
   71SLPC  H12X 6218   4.884   4.716   8.849 -0.4694 -0.2879  0.9877
   71SLPC  H12Y 6219   5.052   4.722   8.917 -0.6696 -0.1424  0.9407
   71SLPC  C313 6220   4.978   4.898   8.819 -0.1806  0.0124  0.0055
   71SLPC  H13X 6221   5.049   4.970   8.867  0.5286  0.9491 -2.2941
   71SLPC  H13Y 6222   4.881   4.948   8.800 -0.3692 -0.8389 -1.3730
   71SLPC  C314 6223   5.037   4.871   8.677  0.0666 -0.1500 -0.5106
   71SLPC  H14X 6224   5.143   4.839   8.666  0.2594  1.0272 -2.5872
   71SLPC  H14Y 6225   5.030   4.971   8.630 -2.4304 -0.6926 -1.4747
   71SLPC  C315 6226   4.954   4.780   8.591  0.1787 -0.3549 -0.2178
   71SLPC  H15X 6227   4.853   4.804   8.628 -0.1061 -1.0514 -0.5195
   71SLPC  H15Y 6228   4.971   4.674   8.623 -0.3864  0.3850  2.8506
   71SLPC  C316 6229   4.973   4.800   8.441 -0.4376  0.5889  0.2702
   71SLPC  H16X 6230   4.934   4.894   8.397  0.5761 -0.3186 -2.7776
   71SLPC  H16Y 6231   4.913   4.716   8.401  1.2182 -0.5102 -0.0154
   71SLPC  C317 6232   5.123   4.782   8.410 -0.0326 -0.1846  0.1637
   71SLPC  H17X 6233   5.170   4.702   8.471  2.7580 -0.8344 -2.5690
   71SLPC  H17Y 6234   5.183   4.871   8.440  0.5265 -0.0064 -1.3777
   71SLPC  C318 6235   5.160   4.746   8.262  0.1494 -0.9685  0.3750
   71SLPC  H18X 6236   5.085   4.680   8.214 -0.8161  0.3532  0.0207
   71SLPC  H18Y 6237   5.261   4.700   8.267  1.7115  2.2362  1.1602
   71SLPC  H18Z 6238   5.176   4.841   8.207  0.5415  0.1380  2.3012
   72SLPC     N 6239   5.758   2.586  10.724 -0.3357 -0.4161  0.3461
   72SLPC   C13 6240   5.837   2.578  10.598  0.7052 -0.5503  0.1833
   72SLPC  H13A 6241   5.862   2.680  10.572  1.1780 -0.6081  0.3955
   72SLPC  H13B 6242   5.935   2.536  10.612  0.4985 -0.5818  1.7054
   72SLPC  H13C 6243   5.791   2.529  10.513 -0.3730  0.7844 -0.0362
   72SLPC   C14 6244   5.688   2.462  10.748 -0.0814  0.3755  0.2912
   72SLPC  H14A 6245   5.763   2.388  10.773 -0.6495 -0.0633  0.7417
   72SLPC  H14B 6246   5.620   2.457  10.832 -1.4303 -1.7627 -0.8220
   72SLPC  H14C 6247   5.624   2.429  10.667  1.1566 -0.9771 -0.1887
   72SLPC   C15 6248   5.659   2.692  10.717  0.3495 -1.0948 -0.0822
   72SLPC  H15A 6249   5.597   2.709  10.804 -0.4602 -2.3645 -0.3902
   72SLPC  H15B 6250   5.711   2.784  10.694 -1.6177  0.5029  1.4890
   72SLPC  H15C 6251   5.595   2.665  10.634  0.2966 -0.0726 -0.3855
   72SLPC   C12 6252   5.858   2.615  10.841 -0.1565  0.1703  0.0999
   72SLPC  H12A 6253   5.787   2.625  10.922 -2.0994  0.6565 -1.5555
   72SLPC  H12B 6254   5.911   2.708  10.829  0.9757 -0.6115 -1.3176
   72SLPC   C11 6255   5.973   2.510  10.866  0.4837 -0.3863 -0.3540
   72SLPC  H11A 6256   6.025   2.547  10.957 -2.1089 -1.9266  1.9462
   72SLPC  H11B 6257   6.050   2.515  10.786 -0.0563 -1.7094 -0.9883
   72SLPC     P 6258   6.034   2.260  10.884 -0.0135 -0.3266 -0.2404
   72SLPC   O13 6259   6.150   2.285  10.975  0.1766 -0.0020  0.1681
   72SLPC   O14 6260   5.973   2.132  10.908 -0.1041  0.3409 -0.5499
   72SLPC   O12 6261   5.929   2.379  10.911 -0.2957  0.3185 -0.0155
   72SLPC   O11 6262   6.070   2.279  10.739 -0.1500  0.1852  0.5089
   72SLPC    C1 6263   5.983   2.251  10.626 -0.5622  0.3106  0.0471
   72SLPC    HA 6264   5.875   2.260  10.652 -0.7306  0.3994 -0.6556
   72SLPC    HB 6265   5.995   2.335  10.555  0.3536  1.9781  2.0541
   72SLPC    C2 6266   6.007   2.113  10.563 -0.6355  0.6849 -0.1330
   72SLPC    HS 6267   6.023   2.037  10.642 -0.4506  0.1651 -0.6580
   72SLPC   O21 6268   6.133   2.133  10.493  0.6382  0.6967 -0.3464
   72SLPC   C21 6269   6.188   2.013  10.469 -0.0272 -0.1813 -0.2307
   72SLPC   O22 6270   6.148   1.907  10.511  0.3235  0.5955  0.4829
   72SLPC   C22 6271   6.316   2.035  10.388 -0.2807  0.5249  0.1810
   72SLPC   H2R 6272   6.388   2.101  10.442 -1.6154  1.8879  0.3640
   72SLPC   H2S 6273   6.364   1.938  10.363  0.2668  1.1470 -1.2821
   72SLPC    C3 6274   5.895   2.062  10.457 -0.0416 -0.3986  0.1585
   72SLPC    HX 6275   5.803   2.055  10.519  0.5953 -1.6260  1.0161
   72SLPC    HY 6276   5.914   1.957  10.425  1.1281  0.0684 -0.7663
   72SLPC   O31 6277   5.881   2.152  10.347  0.2465 -0.1427  0.0306
   72SLPC   C31 6278   5.823   2.094  10.241 -0.4713  0.4844  0.2261
   72SLPC   O32 6279   5.783   1.979  10.230 -0.1310  0.1326 -0.4944
   72SLPC   C32 6280   5.827   2.197  10.128 -0.0501  0.0843 -0.1792
   72SLPC   H2X 6281   5.933   2.230  10.122 -0.7180  2.1902 -1.8948
   72SLPC   H2Y 6282   5.751   2.277  10.142 -0.3166  0.0725 -1.4294
   72SLPC   C23 6283   6.292   2.101  10.252  0.3298  0.7147 -0.3188
   72SLPC   H3R 6284   6.388   2.152  10.230  0.6513  0.4591  0.4809
   72SLPC   H3S 6285   6.216   2.182  10.255 -3.4588 -2.3194 -3.2374
   72SLPC   C24 6286   6.258   1.995  10.144  0.1438  0.1925 -0.3260
   72SLPC   H4R 6287   6.173   1.930  10.171  1.7656 -1.3252  1.4506
   72SLPC   H4S 6288   6.348   1.931  10.129  0.7334  1.3662 -2.2419
   72SLPC   C25 6289   6.233   2.067  10.013 -0.6305  0.5271 -0.3535
   72SLPC   H5R 6290   6.156   2.145  10.032 -0.1201  1.1017 -0.5958
   72SLPC   H5S 6291   6.195   2.000   9.933  1.6046  2.1374 -2.9621
   72SLPC   C26 6292   6.371   2.118   9.950  0.2931 -0.0527 -0.1076
   72SLPC   H6R 6293   6.451   2.045   9.976 -0.4704 -1.5287 -1.7208
   72SLPC   H6S 6294   6.402   2.216   9.994 -1.0330  0.2234  0.2420
   72SLPC   C27 6295   6.378   2.125   9.792  0.8061 -0.3561  0.7122
   72SLPC   H7R 6296   6.323   2.036   9.756 -1.3895  1.0448  0.4569
   72SLPC   H7S 6297   6.485   2.120   9.762  0.4393 -1.7631 -0.4771
   72SLPC   C28 6298   6.324   2.257   9.726  0.0252 -0.1537 -0.3961
   72SLPC   H8R 6299   6.342   2.258   9.617  1.6878 -2.4675 -0.2107
   72SLPC   H8S 6300   6.377   2.342   9.776 -2.2411  1.0325  0.1311
   72SLPC   C29 6301   6.174   2.284   9.750 -0.4128  0.3367  0.9954
   72SLPC   H9R 6302   6.139   2.289   9.854 -1.0795 -0.8068  0.8443
   72SLPC  C210 6303   6.075   2.298   9.656 -0.2165  0.1611 -0.8668
   72SLPC  H10R 6304   5.977   2.329   9.696 -0.6108 -1.0472 -0.8621
   72SLPC  C211 6305   6.104   2.298   9.512  0.2107 -0.1387  0.1420
   72SLPC  H11R 6306   6.188   2.369   9.495  2.7544 -2.4043  2.2395
   72SLPC  H11S 6307   6.021   2.341   9.452 -0.4919 -2.9342 -1.0484
   72SLPC  C212 6308   6.134   2.159   9.458  0.1700  1.1857  0.4134
   72SLPC  H12R 6309   6.211   2.102   9.513 -1.6503 -2.1517 -0.2147
   72SLPC  C213 6310   6.076   2.101   9.342  0.0092 -0.0566 -0.5910
   72SLPC  H13R 6311   6.105   2.000   9.309 -0.7949 -0.7247  0.6524
   72SLPC  C214 6312   5.969   2.166   9.257  0.4767  1.0086  0.3202
   72SLPC  H14R 6313   5.991   2.201   9.154 -3.3100  2.3546 -0.1867
   72SLPC  H14S 6314   5.916   2.246   9.312 -2.0379 -0.1208 -0.2940
   72SLPC  C215 6315   5.854   2.061   9.222  0.5367  0.5369 -0.0694
   72SLPC  H15R 6316   5.901   1.961   9.207 -0.2506  0.3321 -1.3266
   72SLPC  H15S 6317   5.806   2.096   9.128 -1.9261  1.6653  1.5164
   72SLPC  C216 6318   5.736   2.057   9.325  0.4439 -0.3429  0.3025
   72SLPC  H16R 6319   5.693   2.159   9.333  2.5896  0.7200 -0.7359
   72SLPC  H16S 6320   5.779   2.037   9.426 -0.3710 -0.0338  0.7143
   72SLPC  C217 6321   5.639   1.942   9.298 -0.1077 -0.4884  1.0976
   72SLPC  H17R 6322   5.538   1.964   9.340 -0.5180 -0.1732 -0.0131
   72SLPC  H17S 6323   5.675   1.852   9.351  2.4863 -0.2726 -0.1343
   72SLPC  C218 6324   5.634   1.909   9.146  1.5665  0.4694  0.7304
   72SLPC  H18R 6325   5.729   1.864   9.111  0.3936 -1.7717  0.2781
   72SLPC  H18S 6326   5.613   2.002   9.088 -1.0324 -0.6242 -0.2611
   72SLPC  H18T 6327   5.556   1.833   9.122  1.3260  0.8644  0.2342
   72SLPC   C33 6328   5.799   2.127   9.993  0.6742 -0.1024  0.2043
   72SLPC   H3X 6329   5.721   2.051  10.017 -1.8681  2.9385  2.4548
   72SLPC   H3Y 6330   5.891   2.075   9.960  1.2408  0.2057  1.2482
   72SLPC   C34 6331   5.736   2.230   9.891  0.4868  0.1690  0.1103
   72SLPC   H4X 6332   5.822   2.288   9.852 -0.2328  1.0421 -0.2236
   72SLPC   H4Y 6333   5.675   2.293   9.960 -0.2580 -1.1931  0.7557
   72SLPC   C35 6334   5.647   2.173   9.774  0.4551  1.1204 -0.8081
   72SLPC   H5X 6335   5.577   2.098   9.816 -0.8969  3.1394  0.6930
   72SLPC   H5Y 6336   5.715   2.129   9.698  1.1792  1.4560 -0.3795
   72SLPC   C36 6337   5.561   2.271   9.700 -0.0609 -0.0627 -0.1094
   72SLPC   H6X 6338   5.621   2.363   9.680  0.9611 -0.6117  0.3467
   72SLPC   H6Y 6339   5.482   2.305   9.770  0.6995  0.9404  0.3003
   72SLPC   C37 6340   5.493   2.224   9.575 -0.2141 -0.2225 -0.3018
   72SLPC   H7X 6341   5.406   2.165   9.611  0.9144 -0.5089  2.2193
   72SLPC   H7Y 6342   5.567   2.165   9.518  0.2854  2.4838 -2.6975
   72SLPC   C38 6343   5.429   2.338   9.486 -0.0248  0.0190  0.2019
   72SLPC   H8X 6344   5.507   2.408   9.450  0.4910  1.1417  3.2282
   72SLPC   H8Y 6345   5.353   2.391   9.547  0.6563  1.3319 -0.0770
   72SLPC   C39 6346   5.349   2.275   9.369  0.1712  0.1872 -0.1248
   72SLPC   H9X 6347   5.244   2.309   9.360 -0.2859 -0.9288  0.7600
   72SLPC   H9Y 6348   5.349   2.166   9.395  2.4706  0.3398  0.8125
   72SLPC  C310 6349   5.409   2.313   9.236 -0.0653  0.4262  0.2101
   72SLPC  H10X 6350   5.509   2.265   9.224 -0.2158  0.5174 -1.6240
   72SLPC  H10Y 6351   5.426   2.422   9.227 -0.8921  0.6371  1.0049
   72SLPC  C311 6352   5.334   2.277   9.110  0.0949 -0.0712 -0.6924
   72SLPC  H11X 6353   5.243   2.340   9.117 -0.9607 -1.7151  2.7122
   72SLPC  H11Y 6354   5.294   2.173   9.106 -0.6982  0.2165 -0.4359
   72SLPC  C312 6355   5.415   2.307   8.984  0.0584 -0.1785 -0.6216
   72SLPC  H12X 6356   5.507   2.245   8.987  0.2766  0.1851  0.9306
   72SLPC  H12Y 6357   5.454   2.410   8.972 -0.2775  0.0620  0.3041
   72SLPC  C313 6358   5.337   2.278   8.853  0.3506  0.4168 -0.4670
   72SLPC  H13X 6359   5.414   2.306   8.778  3.1396 -0.6179  1.7987
   72SLPC  H13Y 6360   5.247   2.340   8.834  0.7474  1.3813  0.7255
   72SLPC  C314 6361   5.299   2.127   8.828  0.1283 -0.2953 -0.5845
   72SLPC  H14X 6362   5.231   2.096   8.911  2.5103 -2.1914  0.7797
   72SLPC  H14Y 6363   5.385   2.057   8.837  0.4721  0.1531 -0.3464
   72SLPC  C315 6364   5.240   2.097   8.690 -0.7230 -0.2585 -0.3193
   72SLPC  H15X 6365   5.318   2.137   8.622  2.2185 -0.0445  2.9095
   72SLPC  H15Y 6366   5.150   2.156   8.662 -0.4095  0.1463 -0.4910
   72SLPC  C316 6367   5.203   1.950   8.659  0.3136 -0.1672 -0.4214
   72SLPC  H16X 6368   5.115   1.924   8.721 -1.0079  0.8396 -1.7832
   72SLPC  H16Y 6369   5.297   1.895   8.677 -0.0670 -0.3164  1.2478
   72SLPC  C317 6370   5.152   1.920   8.524  0.0449  0.6248  0.8213
   72SLPC  H17X 6371   5.221   1.978   8.458 -0.5380  2.0674  1.4375
   72SLPC  H17Y 6372   5.058   1.977   8.506  1.7414  2.9535 -1.4671
   72SLPC  C318 6373   5.124   1.777   8.490  0.1607 -0.1389  0.1128
   72SLPC  H18X 6374   5.040   1.740   8.553  0.8423 -2.6031 -0.3409
   72SLPC  H18Y 6375   5.208   1.710   8.519  2.1739  1.9611 -0.6132
   72SLPC  H18Z 6376   5.090   1.765   8.385 -0.0348 -0.0642  0.1674
   73SLPC     N 6377   6.455   2.761  11.330  0.1125 -0.4608 -0.0165
   73SLPC   C13 6378   6.320   2.696  11.321 -0.0265  0.2658 -0.1273
   73SLPC  H13A 6379   6.261   2.712  11.411 -0.5612  0.2372 -0.4695
   73SLPC  H13B 6380   6.266   2.740  11.239 -0.8244 -0.0530  0.2149
   73SLPC  H13C 6381   6.329   2.593  11.290  1.9266  1.1113 -2.6642
   73SLPC   C14 6382   6.537   2.708  11.442  0.4638 -0.2012  0.8584
   73SLPC  H14A 6383   6.621   2.770  11.467  0.6398 -0.5068  1.0363
   73SLPC  H14B 6384   6.476   2.707  11.531  1.1786  2.6368  1.4808
   73SLPC  H14C 6385   6.574   2.608  11.425  2.2869  0.6901 -0.7270
   73SLPC   C15 6386   6.421   2.905  11.357  0.2377  0.0593  0.0716
   73SLPC  H15A 6387   6.388   2.923  11.458 -1.8695  1.2941 -0.7746
   73SLPC  H15B 6388   6.495   2.981  11.337 -0.6280  1.0571  0.5625
   73SLPC  H15C 6389   6.345   2.942  11.289  2.1961 -0.5140 -2.5775
   73SLPC   C12 6390   6.526   2.756  11.196  0.6808  0.1188  0.2066
   73SLPC  H12A 6391   6.504   2.657  11.160 -0.9453  0.4675  0.1767
   73SLPC  H12B 6392   6.633   2.771  11.193  0.7244 -0.2815 -0.9113
   73SLPC   C11 6393   6.468   2.852  11.088  0.4101  0.9084  0.4242
   73SLPC  H11A 6394   6.529   2.945  11.080  2.3844 -0.4059 -0.8354
   73SLPC  H11B 6395   6.361   2.873  11.108 -0.0092 -1.0810  0.3991
   73SLPC     P 6396   6.363   2.665  10.917 -0.6546 -0.0737 -0.0832
   73SLPC   O13 6397   6.419   2.592  10.799  0.4203  0.0928  0.6452
   73SLPC   O14 6398   6.338   2.582  11.039 -0.8669  0.6096  0.1284
   73SLPC   O12 6399   6.465   2.789  10.961 -0.7124  0.1063 -0.1818
   73SLPC   O11 6400   6.231   2.733  10.885 -0.1954 -0.2836  0.2002
   73SLPC    C1 6401   6.211   2.848  10.799 -0.2288 -0.1051  0.5030
   73SLPC    HA 6402   6.135   2.914  10.845  0.1787  2.1961 -1.8331
   73SLPC    HB 6403   6.298   2.917  10.794 -1.1092  1.0287  0.5587
   73SLPC    C2 6404   6.164   2.807  10.656 -0.3543  0.0976 -0.7380
   73SLPC    HS 6405   6.072   2.748  10.675 -0.4485  1.0621  2.5600
   73SLPC   O21 6406   6.276   2.740  10.587  0.3380 -0.0596  0.1697
   73SLPC   C21 6407   6.247   2.627  10.529  0.2742 -0.5000  0.0892
   73SLPC   O22 6408   6.135   2.578  10.521 -0.8330 -1.0165  0.2223
   73SLPC   C22 6409   6.374   2.560  10.464  0.0946  0.5549 -0.1799
   73SLPC   H2R 6410   6.456   2.579  10.536  0.8039 -1.3264 -0.4271
   73SLPC   H2S 6411   6.349   2.452  10.451 -0.8307  0.6264  0.8140
   73SLPC    C3 6412   6.130   2.924  10.561  0.5793 -0.5373 -0.7561
   73SLPC    HX 6413   6.211   3.000  10.562 -0.6204  0.9636  3.6724
   73SLPC    HY 6414   6.045   2.982  10.601  2.5237  1.5907  0.4930
   73SLPC   O31 6415   6.113   2.893  10.422  0.2725 -0.0162  0.1934
   73SLPC   C31 6416   5.997   2.849  10.391 -0.1625  0.0445 -0.3664
   73SLPC   O32 6417   5.897   2.856  10.462 -0.1667 -0.3729 -0.2709
   73SLPC   C32 6418   6.011   2.798  10.253  0.0028  0.0268 -0.3901
   73SLPC   H2X 6419   6.068   2.703  10.256 -0.5392 -0.2831  0.6766
   73SLPC   H2Y 6420   6.069   2.877  10.201  1.3812 -1.9092 -1.9607
   73SLPC   C23 6421   6.420   2.614  10.329  0.1931  0.2378 -0.4386
   73SLPC   H3R 6422   6.524   2.585  10.304  0.6365  0.7247  0.7877
   73SLPC   H3S 6423   6.409   2.724  10.340 -1.1196  0.3542 -2.3591
   73SLPC   C24 6424   6.338   2.570  10.211  0.7230 -0.3257  0.5362
   73SLPC   H4R 6425   6.232   2.592  10.235 -0.5320 -2.4066 -2.4199
   73SLPC   H4S 6426   6.341   2.459  10.204 -0.6649 -0.3702  0.3599
   73SLPC   C25 6427   6.381   2.634  10.079  0.3874  0.1124  0.0270
   73SLPC   H5R 6428   6.483   2.606  10.045  1.2717  4.1169 -1.1759
   73SLPC   H5S 6429   6.387   2.745  10.087 -0.9125  0.4256 -2.4975
   73SLPC   C26 6430   6.289   2.593   9.971  0.1597 -0.2401 -0.0607
   73SLPC   H6R 6431   6.187   2.637   9.977  0.9436  1.6948 -0.2467
   73SLPC   H6S 6432   6.278   2.483   9.981 -0.0509 -0.2912 -0.7938
   73SLPC   C27 6433   6.343   2.616   9.826  0.2755  0.5706 -0.8074
   73SLPC   H7R 6434   6.282   2.550   9.761 -0.3758 -0.0507  0.3914
   73SLPC   H7S 6435   6.450   2.584   9.825  0.5722  1.5191 -1.9402
   73SLPC   C28 6436   6.329   2.761   9.784  0.1963 -0.4275  0.1256
   73SLPC   H8R 6437   6.376   2.830   9.857 -1.2411 -0.2847  0.9656
   73SLPC   H8S 6438   6.222   2.790   9.784  0.5886  1.2242 -1.6064
   73SLPC   C29 6439   6.383   2.790   9.647 -0.1334 -0.0834 -0.8526
   73SLPC   H9R 6440   6.484   2.836   9.649  0.7472 -1.9355  0.7961
   73SLPC  C210 6441   6.324   2.763   9.530  0.1827 -1.0961  0.1390
   73SLPC  H10R 6442   6.379   2.787   9.437 -0.2638  0.5893  0.2899
   73SLPC  C211 6443   6.192   2.692   9.525  1.0054  0.5268  0.4023
   73SLPC  H11R 6444   6.109   2.750   9.571 -1.0092 -1.7357 -0.1931
   73SLPC  H11S 6445   6.191   2.605   9.594  3.2119  0.7009  0.7118
   73SLPC  C212 6446   6.158   2.645   9.388  0.9739 -0.0183  0.0204
   73SLPC  H12R 6447   6.171   2.538   9.365  1.1143  0.3381 -1.7105
   73SLPC  C213 6448   6.122   2.724   9.283  0.6016  0.1577  0.0851
   73SLPC  H13R 6449   6.112   2.677   9.184 -0.0113 -2.6184  1.3441
   73SLPC  C214 6450   6.106   2.873   9.274  0.1513 -0.1017  0.5727
   73SLPC  H14R 6451   6.098   2.906   9.380 -1.6838 -0.4838  0.5827
   73SLPC  H14S 6452   6.015   2.909   9.221  0.9947  0.9483 -0.1964
   73SLPC  C215 6453   6.218   2.956   9.213 -0.0001 -0.5713 -1.2215
   73SLPC  H15R 6454   6.239   2.918   9.110  2.4007  1.3094 -1.5015
   73SLPC  H15S 6455   6.312   2.952   9.272 -0.6581  1.3044  0.0363
   73SLPC  C216 6456   6.174   3.107   9.205 -0.0727  0.7472 -0.1093
   73SLPC  H16R 6457   6.159   3.146   9.307 -0.4423  3.5687 -1.1566
   73SLPC  H16S 6458   6.077   3.110   9.152  1.2114  0.6360 -2.6485
   73SLPC  C217 6459   6.280   3.184   9.123  0.2268 -0.0065 -0.2760
   73SLPC  H17R 6460   6.266   3.156   9.016  1.7854  2.2502 -1.1349
   73SLPC  H17S 6461   6.384   3.173   9.160  0.7881 -0.5203 -1.9160
   73SLPC  C218 6462   6.257   3.332   9.123 -0.6690  0.2296 -0.5077
   73SLPC  H18R 6463   6.349   3.383   9.088 -1.0435  1.2475 -0.0568
   73SLPC  H18S 6464   6.238   3.363   9.228  1.4084  2.5281 -0.7274
   73SLPC  H18T 6465   6.169   3.351   9.058 -0.3448  0.9552 -0.7425
   73SLPC   C33 6466   5.880   2.754  10.185  0.5478  0.0622  0.5779
   73SLPC   H3X 6467   5.794   2.824  10.193  0.6020  0.0895  0.9280
   73SLPC   H3Y 6468   5.850   2.652  10.219 -1.6865  0.5039  0.0769
   73SLPC   C34 6469   5.908   2.753  10.035 -0.9354  0.5757 -0.0756
   73SLPC   H4X 6470   6.016   2.727  10.026 -0.1344  3.3253  0.6949
   73SLPC   H4Y 6471   5.896   2.858  10.002  1.3562  0.5304 -1.2858
   73SLPC   C35 6472   5.838   2.652   9.948 -0.5342 -0.4055  0.4433
   73SLPC   H5X 6473   5.729   2.675   9.957  0.1496  3.0093  1.1886
   73SLPC   H5Y 6474   5.855   2.547   9.981 -1.1429 -1.2249 -1.6738
   73SLPC   C36 6475   5.885   2.658   9.804 -0.1543  0.4073  0.1696
   73SLPC   H6X 6476   5.982   2.605   9.796 -1.0203 -0.9459 -2.6250
   73SLPC   H6Y 6477   5.906   2.762   9.771  0.9292 -0.2571 -1.3572
   73SLPC   C37 6478   5.788   2.597   9.701 -0.1942  0.1482  0.3929
   73SLPC   H7X 6479   5.695   2.657   9.702  0.5002  1.3503 -1.7060
   73SLPC   H7Y 6480   5.763   2.492   9.728  1.3161  0.2604  2.5552
   73SLPC   C38 6481   5.845   2.610   9.560 -0.0979 -0.0728 -0.5774
   73SLPC   H8X 6482   5.942   2.556   9.552  0.5566  0.9692  0.1269
   73SLPC   H8Y 6483   5.863   2.717   9.536 -1.4389  0.2573 -0.1441
   73SLPC   C39 6484   5.752   2.543   9.455  0.0974 -0.0402 -0.0495
   73SLPC   H9X 6485   5.655   2.597   9.457  0.1163 -0.0093  0.0195
   73SLPC   H9Y 6486   5.754   2.436   9.485  0.4510 -0.6062 -1.9860
   73SLPC  C310 6487   5.805   2.556   9.310  0.3428  0.1675  1.0660
   73SLPC  H10X 6488   5.893   2.489   9.299  0.9252  1.0044  0.4977
   73SLPC  H10Y 6489   5.825   2.658   9.272 -0.6120 -0.1388 -0.3211
   73SLPC  C311 6490   5.693   2.502   9.214  0.6392  0.3180  0.0932
   73SLPC  H11X 6491   5.605   2.562   9.245 -0.2447  0.2518 -2.1085
   73SLPC  H11Y 6492   5.679   2.395   9.240  0.6509  0.6619  1.5793
   73SLPC  C312 6493   5.737   2.517   9.071 -0.4250 -0.3163 -0.4305
   73SLPC  H12X 6494   5.742   2.622   9.035 -2.6230  0.8618  2.2790
   73SLPC  H12Y 6495   5.663   2.467   9.005  2.1088 -0.2889 -3.5336
   73SLPC  C313 6496   5.868   2.452   9.035 -0.2098 -0.3706 -0.0586
   73SLPC  H13X 6497   5.889   2.356   9.085  0.8184 -0.1452 -0.0359
   73SLPC  H13Y 6498   5.948   2.527   9.055 -0.5721 -0.0634  0.2566
   73SLPC  C314 6499   5.866   2.408   8.890 -0.1578  0.3931 -1.1014
   73SLPC  H14X 6500   5.851   2.495   8.822  0.2412  1.9592  0.7293
   73SLPC  H14Y 6501   5.786   2.333   8.874  1.2277 -1.0794 -1.3376
   73SLPC  C315 6502   6.000   2.334   8.850  0.4299 -0.4566  0.7430
   73SLPC  H15X 6503   6.014   2.256   8.927  0.7790  0.7207  1.9148
   73SLPC  H15Y 6504   6.087   2.403   8.853  0.8002 -0.9106  0.4594
   73SLPC  C316 6505   5.990   2.271   8.707  0.6218 -0.2178  0.3335
   73SLPC  H16X 6506   6.084   2.288   8.650  0.5163 -0.0532  0.2101
   73SLPC  H16Y 6507   5.907   2.322   8.654 -0.1583 -0.6808  1.0777
   73SLPC  C317 6508   5.952   2.126   8.701 -0.3139  0.1522  0.9609
   73SLPC  H17X 6509   5.877   2.107   8.781 -0.9617  2.0785  0.8594
   73SLPC  H17Y 6510   6.036   2.059   8.729 -1.3933 -0.5771  2.5688
   73SLPC  C318 6511   5.907   2.080   8.558  0.3757 -0.5058  0.0798
   73SLPC  H18X 6512   5.816   2.138   8.533  1.0297 -0.2562 -1.9253
   73SLPC  H18Y 6513   5.881   1.972   8.557 -0.3725 -0.3305  0.1743
   73SLPC  H18Z 6514   5.997   2.096   8.494  0.6288  0.7285  0.7099
   74SLPC     N 6515   1.295   3.268  11.007  0.0839  0.3536 -0.3411
   74SLPC   C13 6516   1.440   3.303  11.012 -0.2967  0.2382 -0.2486
   74SLPC  H13A 6517   1.495   3.239  10.944  1.2163  2.5886 -1.3757
   74SLPC  H13B 6518   1.460   3.401  10.969  0.5300  0.8414  1.4190
   74SLPC  H13C 6519   1.480   3.292  11.111  0.4470 -1.7031 -0.7180
   74SLPC   C14 6520   1.220   3.382  11.058 -0.1344  0.6910  0.2186
   74SLPC  H14A 6521   1.213   3.462  10.987 -0.0798  0.3063 -0.2259
   74SLPC  H14B 6522   1.117   3.353  11.068 -0.1759  1.2332  1.5300
   74SLPC  H14C 6523   1.255   3.434  11.146 -0.7896  1.6436 -0.0676
   74SLPC   C15 6524   1.261   3.149  11.095 -0.6973 -0.7110  0.2972
   74SLPC  H15A 6525   1.312   3.062  11.056  2.6888  1.6744 -1.0287
   74SLPC  H15B 6526   1.285   3.173  11.197  0.7734  0.1316 -0.2313
   74SLPC  H15C 6527   1.154   3.132  11.090 -0.4692 -1.9490 -1.4341
   74SLPC   C12 6528   1.241   3.245  10.868 -0.2520  0.0509 -0.4350
   74SLPC  H12A 6529   1.136   3.222  10.885 -0.4127  1.2276  0.3350
   74SLPC  H12B 6530   1.292   3.159  10.828 -0.5335 -0.1852 -0.2962
   74SLPC   C11 6531   1.255   3.365  10.766 -0.0216  0.1053 -0.2950
   74SLPC  H11A 6532   1.201   3.454  10.805 -0.1622  0.3487 -1.0279
   74SLPC  H11B 6533   1.207   3.345  10.668  1.6152 -1.6979 -0.7820
   74SLPC     P 6534   1.500   3.335  10.657 -0.4367  0.4813  0.3644
   74SLPC   O13 6535   1.588   3.445  10.616  0.0133 -0.0175 -0.2362
   74SLPC   O14 6536   1.555   3.226  10.734 -0.7043 -0.5769  0.0733
   74SLPC   O12 6537   1.389   3.407  10.739  0.0520  0.4759 -0.3225
   74SLPC   O11 6538   1.445   3.268  10.530 -0.1760  0.0843  0.3563
   74SLPC    C1 6539   1.336   3.178  10.508  0.3286 -0.0390  0.6226
   74SLPC    HA 6540   1.373   3.074  10.517 -0.9873 -0.4252  2.0386
   74SLPC    HB 6541   1.267   3.179  10.596  1.9541  0.2641  1.9567
   74SLPC    C2 6542   1.264   3.200  10.381  0.2407 -1.1277  0.3372
   74SLPC    HS 6543   1.170   3.141  10.380 -0.8439  0.5053  0.6637
   74SLPC   O21 6544   1.353   3.154  10.282 -0.4271 -0.3558 -0.3107
   74SLPC   C21 6545   1.295   3.122  10.165 -0.1599  0.6115 -0.2596
   74SLPC   O22 6546   1.175   3.113  10.148  0.3557 -0.2425 -0.0222
   74SLPC   C22 6547   1.406   3.103  10.059 -0.5154  0.0229 -0.1324
   74SLPC   H2R 6548   1.502   3.090  10.113 -1.0592 -3.0618  0.2778
   74SLPC   H2S 6549   1.395   3.012   9.996  0.1388  0.3967 -0.8081
   74SLPC    C3 6550   1.221   3.356  10.374 -1.0285  0.4352  0.5653
   74SLPC    HX 6551   1.316   3.413  10.363 -0.6306 -0.3487 -0.1576
   74SLPC    HY 6552   1.179   3.402  10.466 -1.4196  2.5219 -0.5861
   74SLPC   O31 6553   1.136   3.383  10.258 -0.2065  0.1137 -0.2343
   74SLPC   C31 6554   1.010   3.346  10.279 -0.0602  0.4574  0.2464
   74SLPC   O32 6555   0.962   3.325  10.388 -1.1151 -0.1110 -0.8495
   74SLPC   C32 6556   0.938   3.363  10.150 -0.1227  0.2280 -0.2996
   74SLPC   H2X 6557   0.973   3.287  10.077  1.0158  1.1536 -0.7711
   74SLPC   H2Y 6558   0.956   3.465  10.109  0.4844  0.3604  0.2845
   74SLPC   C23 6559   1.423   3.218   9.960  0.1991 -0.3395 -0.1307
   74SLPC   H3R 6560   1.458   3.308  10.015  2.4074  0.4153 -2.5544
   74SLPC   H3S 6561   1.330   3.249   9.908  1.6434  0.7642 -2.1781
   74SLPC   C24 6562   1.536   3.198   9.852  0.0893  0.0988  0.1817
   74SLPC   H4R 6563   1.511   3.101   9.806  2.5619 -0.7275  0.4202
   74SLPC   H4S 6564   1.638   3.182   9.894 -0.5406 -2.7657  0.8426
   74SLPC   C25 6565   1.544   3.305   9.745  0.8442  0.5177  0.3184
   74SLPC   H5R 6566   1.624   3.265   9.679 -0.4871 -0.3273 -0.8362
   74SLPC   H5S 6567   1.586   3.398   9.789  1.8742  0.2671 -0.0998
   74SLPC   C26 6568   1.415   3.344   9.672 -0.1258 -0.5310 -0.1549
   74SLPC   H6R 6569   1.340   3.391   9.739 -1.0359 -0.7230 -1.0114
   74SLPC   H6S 6570   1.369   3.252   9.629  1.2734 -1.2260 -0.2372
   74SLPC   C27 6571   1.444   3.442   9.550 -0.1429 -0.0867  0.8226
   74SLPC   H7R 6572   1.515   3.408   9.473 -3.0766 -3.2353 -0.7581
   74SLPC   H7S 6573   1.490   3.532   9.596  1.1283 -0.5077  0.3957
   74SLPC   C28 6574   1.321   3.488   9.478 -0.2131  0.3212 -0.4204
   74SLPC   H8R 6575   1.250   3.404   9.491  0.5830 -0.4728 -1.0850
   74SLPC   H8S 6576   1.350   3.497   9.371  0.4861  2.1382 -0.1140
   74SLPC   C29 6577   1.256   3.618   9.527 -0.5209 -0.7211 -0.1832
   74SLPC   H9R 6578   1.275   3.641   9.633 -1.2959 -2.1634  0.2995
   74SLPC  C210 6579   1.191   3.701   9.445  0.3582  0.8442  0.4100
   74SLPC  H10R 6580   1.162   3.795   9.493  0.5977  1.1718 -0.0924
   74SLPC  C211 6581   1.156   3.670   9.302  0.2369 -0.1355  0.2919
   74SLPC  H11R 6582   1.172   3.562   9.283  2.0418 -0.1612  1.6489
   74SLPC  H11S 6583   1.233   3.717   9.236 -0.7020 -0.7877 -1.3267
   74SLPC  C212 6584   1.022   3.722   9.261  0.0434 -0.7709  0.5224
   74SLPC  H12R 6585   0.950   3.727   9.344  0.2801 -0.7907  0.7298
   74SLPC  C213 6586   0.975   3.758   9.137 -0.4148  0.3994 -0.4863
   74SLPC  H13R 6587   0.874   3.801   9.131 -0.6029  0.3723  1.6766
   74SLPC  C214 6588   1.059   3.753   9.013  0.1983 -0.4291 -0.2622
   74SLPC  H14R 6589   1.167   3.741   9.038  0.0510  1.2229  1.3694
   74SLPC  H14S 6590   1.055   3.853   8.965 -0.2802 -0.0319  0.5760
   74SLPC  C215 6591   1.016   3.649   8.907 -0.2605  0.6351  0.0720
   74SLPC  H15R 6592   1.037   3.544   8.939  1.4373  0.7872 -0.4231
   74SLPC  H15S 6593   1.083   3.673   8.822  0.2077 -0.4009  0.1226
   74SLPC  C216 6594   0.870   3.649   8.868  0.4659  0.1937 -0.9119
   74SLPC  H16R 6595   0.807   3.622   8.955  1.6066  1.0432  0.2174
   74SLPC  H16S 6596   0.865   3.569   8.791  0.5253 -4.1967  3.1827
   74SLPC  C217 6597   0.824   3.785   8.823 -0.6119 -0.3886 -0.3102
   74SLPC  H17R 6598   0.904   3.833   8.763 -2.5772  3.2211 -0.3329
   74SLPC  H17S 6599   0.820   3.849   8.914  2.3353 -0.2268 -0.2034
   74SLPC  C218 6600   0.696   3.784   8.737  1.0185 -0.0733 -0.7000
   74SLPC  H18R 6601   0.626   3.717   8.792  0.5258  1.8153  1.1255
   74SLPC  H18S 6602   0.708   3.749   8.632 -0.9106 -1.1571 -0.6069
   74SLPC  H18T 6603   0.646   3.884   8.732  0.1412 -0.4852 -0.4889
   74SLPC   C33 6604   0.787   3.345  10.178 -0.2144  0.1610  0.7546
   74SLPC   H3X 6605   0.768   3.432  10.244 -1.8952 -0.6413  1.3597
   74SLPC   H3Y 6606   0.765   3.250  10.230 -4.4206  1.3127  1.3854
   74SLPC   C34 6607   0.701   3.335  10.048 -0.4868  0.0286 -0.9159
   74SLPC   H4X 6608   0.734   3.250   9.985 -2.0669 -0.7294 -0.7681
   74SLPC   H4Y 6609   0.714   3.424   9.983 -6.1414  2.3281  0.4925
   74SLPC   C35 6610   0.551   3.325  10.074  0.6817 -0.8295  0.4468
   74SLPC   H5X 6611   0.512   3.419  10.118  2.1769  0.5930 -1.1307
   74SLPC   H5Y 6612   0.515   3.241  10.137 -1.3400  0.2840  0.8643
   74SLPC   C36 6613   0.475   3.312   9.937  0.3335  0.4099 -0.2457
   74SLPC   H6X 6614   0.507   3.391   9.865 -3.2343  2.3469  0.0280
   74SLPC   H6Y 6615   0.366   3.327   9.953 -0.2494 -0.6966 -2.7057
   74SLPC   C37 6616   0.493   3.182   9.856 -0.9303 -0.0580 -0.4056
   74SLPC   H7X 6617   0.464   3.091   9.913 -2.1133  0.5177 -0.0386
   74SLPC   H7Y 6618   0.602   3.180   9.835 -1.0928  0.4444 -1.3330
   74SLPC   C38 6619   0.403   3.174   9.739 -0.0895  0.5034 -0.2259
   74SLPC   H8X 6620   0.407   3.269   9.682 -0.2516  0.2662 -0.6351
   74SLPC   H8Y 6621   0.303   3.161   9.785  0.5552 -0.8730  0.8793
   74SLPC   C39 6622   0.431   3.059   9.646 -0.6314 -0.1738  0.0339
   74SLPC   H9X 6623   0.409   2.965   9.701  0.3362  0.3629  1.3968
   74SLPC   H9Y 6624   0.538   3.056   9.615 -1.0993 -0.9336 -1.6196
   74SLPC  C310 6625   0.337   3.054   9.525 -0.1731  0.2675  0.5962
   74SLPC  H10X 6626   0.239   3.049   9.577  0.4170  1.4937  1.9103
   74SLPC  H10Y 6627   0.349   2.958   9.471  1.8808 -0.0095  1.4644
   74SLPC  C311 6628   0.340   3.172   9.419  0.0419 -0.1036  0.2329
   74SLPC  H11X 6629   0.300   3.261   9.473  2.7618 -0.1784  2.6799
   74SLPC  H11Y 6630   0.282   3.127   9.336  0.6745 -1.4481  0.4905
   74SLPC  C312 6631   0.481   3.204   9.376 -1.0209 -0.4339  0.4401
   74SLPC  H12X 6632   0.544   3.115   9.397 -0.5790  0.2430  2.1495
   74SLPC  H12Y 6633   0.521   3.290   9.434 -0.5307  0.2441 -0.8607
   74SLPC  C313 6634   0.480   3.236   9.224  0.2690  0.5178  0.2625
   74SLPC  H13X 6635   0.416   3.324   9.204  1.1799  1.3388  0.8639
   74SLPC  H13Y 6636   0.430   3.156   9.165 -2.5344  2.0842  0.3521
   74SLPC  C314 6637   0.616   3.269   9.161  0.2133  0.0879  0.1438
   74SLPC  H14X 6638   0.657   3.171   9.130 -0.5893 -1.0874  2.5135
   74SLPC  H14Y 6639   0.678   3.329   9.232  1.2296 -1.1373  0.3239
   74SLPC  C315 6640   0.599   3.362   9.034 -0.3566 -0.8763 -0.3289
   74SLPC  H15X 6641   0.705   3.391   9.014 -0.7611 -0.4923 -2.0498
   74SLPC  H15Y 6642   0.539   3.450   9.064  0.6160 -0.4992  0.5925
   74SLPC  C316 6643   0.539   3.296   8.907  0.3917 -0.0729 -0.4117
   74SLPC  H16X 6644   0.441   3.255   8.940 -1.7504  1.1483 -4.5002
   74SLPC  H16Y 6645   0.600   3.213   8.866  0.8906  0.1396 -0.1033
   74SLPC  C317 6646   0.511   3.386   8.793  0.4397  0.1672  0.1235
   74SLPC  H17X 6647   0.481   3.328   8.703 -0.5144  0.7646  0.0435
   74SLPC  H17Y 6648   0.604   3.431   8.754  1.1760 -0.6670  0.8657
   74SLPC  C318 6649   0.411   3.496   8.819 -0.4297 -0.4976  0.0184
   74SLPC  H18X 6650   0.389   3.551   8.725  3.5196  0.5442 -0.4786
   74SLPC  H18Y 6651   0.438   3.569   8.899 -1.2274  0.9038 -0.9531
   74SLPC  H18Z 6652   0.314   3.448   8.843 -1.1453  1.2171  0.7913
   75SLPC     N 6653   5.271   6.410   6.362 -0.3957  0.0443  0.1283
   75SLPC   C13 6654   5.187   6.526   6.340 -0.9110  0.8527  0.2149
   75SLPC  H13A 6655   5.136   6.517   6.245  0.7530  1.1290 -0.7428
   75SLPC  H13B 6656   5.115   6.526   6.420  0.1414 -0.7841  1.2405
   75SLPC  H13C 6657   5.243   6.618   6.345  0.4470  0.0182  1.1085
   75SLPC   C14 6658   5.361   6.387   6.245  0.0708  0.0707  0.1418
   75SLPC  H14A 6659   5.419   6.297   6.255  0.6573  0.1347 -2.2230
   75SLPC  H14B 6660   5.310   6.399   6.151  0.7925 -0.3632 -0.3082
   75SLPC  H14C 6661   5.440   6.460   6.244 -0.8657  1.1402 -1.6293
   75SLPC   C15 6662   5.172   6.303   6.369 -0.2045  0.2829 -0.3238
   75SLPC  H15A 6663   5.114   6.308   6.279 -1.3265  0.0751  0.3755
   75SLPC  H15B 6664   5.231   6.212   6.368 -0.4219  0.1185  0.7288
   75SLPC  H15C 6665   5.109   6.309   6.456  1.6344  0.8157  1.0276
   75SLPC   C12 6666   5.353   6.422   6.493 -0.3031  0.1895 -0.4001
   75SLPC  H12A 6667   5.286   6.414   6.577 -0.8981 -2.2145 -1.0260
   75SLPC  H12B 6668   5.393   6.522   6.508 -1.4014  0.7527 -1.0966
   75SLPC   C11 6669   5.468   6.310   6.521 -0.2088 -0.7788 -0.0179
   75SLPC  H11A 6670   5.502   6.313   6.626 -0.9556  0.8366  0.2134
   75SLPC  H11B 6671   5.558   6.331   6.459 -1.2376  0.8283 -1.0730
   75SLPC     P 6672   5.361   6.091   6.604 -0.4561 -0.0257  0.2694
   75SLPC   O13 6673   5.275   6.184   6.682  0.2157 -0.1806 -0.5385
   75SLPC   O14 6674   5.303   5.963   6.552  0.3675  0.4442 -0.4697
   75SLPC   O12 6675   5.432   6.180   6.489  0.1319  0.5568 -0.4195
   75SLPC   O11 6676   5.475   6.042   6.694 -0.3699  0.3545 -0.6637
   75SLPC    C1 6677   5.577   5.946   6.664 -0.1593  0.1208  0.0934
   75SLPC    HA 6678   5.569   5.918   6.557  0.1397 -0.2253  0.1603
   75SLPC    HB 6679   5.674   5.997   6.681  0.5446 -0.8025 -1.0478
   75SLPC    C2 6680   5.562   5.827   6.749 -0.6388  0.9918  0.6633
   75SLPC    HS 6681   5.453   5.806   6.753 -0.6524  0.1122 -2.3333
   75SLPC   O21 6682   5.619   5.862   6.876 -0.1092 -0.1246 -0.0785
   75SLPC   C21 6683   5.559   5.818   6.983 -0.3306  0.3009 -0.5321
   75SLPC   O22 6684   5.464   5.734   6.991  0.1021  0.1961  0.6497
   75SLPC   C22 6685   5.610   5.902   7.104 -0.3460 -0.6832  1.4202
   75SLPC   H2R 6686   5.708   5.944   7.074  0.7307 -4.1585 -0.5148
   75SLPC   H2S 6687   5.541   5.981   7.139 -2.6548 -1.8636 -0.2305
   75SLPC    C3 6688   5.622   5.693   6.690 -0.4090  0.4504 -0.0357
   75SLPC    HX 6689   5.569   5.676   6.594 -0.2801  0.0764 -0.0423
   75SLPC    HY 6690   5.581   5.614   6.756 -1.1037 -0.4165 -1.4581
   75SLPC   O31 6691   5.763   5.694   6.684  0.0821  0.2761  0.1478
   75SLPC   C31 6692   5.820   5.601   6.607 -0.3526 -0.8873 -0.4739
   75SLPC   O32 6693   5.756   5.518   6.549 -0.0207  0.4844  0.1476
   75SLPC   C32 6694   5.973   5.611   6.600  1.0257 -0.5217  0.4031
   75SLPC   H2X 6695   6.006   5.688   6.672  0.3967 -0.5791  0.7648
   75SLPC   H2Y 6696   5.996   5.634   6.493  0.7041 -1.5884  0.0884
   75SLPC   C23 6697   5.649   5.826   7.228 -0.4251 -0.1982 -0.2705
   75SLPC   H3R 6698   5.726   5.751   7.198  3.3329  2.5561  1.6909
   75SLPC   H3S 6699   5.564   5.774   7.276 -1.7097  1.7629 -0.3115
   75SLPC   C24 6700   5.704   5.896   7.356  0.0762  0.1921 -0.4407
   75SLPC   H4R 6701   5.784   5.964   7.320 -0.2906 -0.5780 -2.9727
   75SLPC   H4S 6702   5.745   5.815   7.418 -1.5846 -1.8868 -1.8896
   75SLPC   C25 6703   5.599   5.969   7.439 -0.5041 -1.0509 -0.3587
   75SLPC   H5R 6704   5.531   5.903   7.498 -4.4618  3.6197  0.9586
   75SLPC   H5S 6705   5.538   6.027   7.367  0.5450  0.6358  0.0580
   75SLPC   C26 6706   5.651   6.073   7.543  0.2125  0.3375  0.2046
   75SLPC   H6R 6707   5.704   6.150   7.483 -0.1159 -0.3584 -0.9993
   75SLPC   H6S 6708   5.710   6.032   7.628  0.1310 -0.9786 -0.3484
   75SLPC   C27 6709   5.529   6.136   7.608 -0.0169 -0.3986  0.0941
   75SLPC   H7R 6710   5.496   6.078   7.697  1.1042  1.9727  2.1665
   75SLPC   H7S 6711   5.450   6.119   7.531  0.7119 -0.2060 -0.7116
   75SLPC   C28 6712   5.538   6.287   7.649  0.3843 -0.0532  0.5439
   75SLPC   H8R 6713   5.569   6.351   7.564  0.5365  2.3490  2.3345
   75SLPC   H8S 6714   5.620   6.299   7.722  1.8089  1.4169 -1.2012
   75SLPC   C29 6715   5.396   6.315   7.692  0.5713 -0.4739  0.9651
   75SLPC   H9R 6716   5.314   6.298   7.620  0.8943  0.3554  0.3867
   75SLPC  C210 6717   5.354   6.369   7.809 -0.2088  0.5987 -0.1623
   75SLPC  H10R 6718   5.247   6.393   7.816 -0.2494  0.4093 -0.1476
   75SLPC  C211 6719   5.451   6.407   7.921 -0.0908 -0.3468 -0.1493
   75SLPC  H11R 6720   5.399   6.480   7.986  0.4578 -2.0753  2.3557
   75SLPC  H11S 6721   5.536   6.467   7.883 -1.5565  1.4852 -0.6870
   75SLPC  C212 6722   5.506   6.293   8.004 -0.4100  0.4335  0.4260
   75SLPC  H12R 6723   5.549   6.213   7.942 -0.4870  1.1141 -0.5436
   75SLPC  C213 6724   5.511   6.288   8.139 -0.0891 -0.3133 -0.0908
   75SLPC  H13R 6725   5.566   6.204   8.185  0.9532  0.9901  1.1315
   75SLPC  C214 6726   5.449   6.384   8.240 -0.7212 -0.4312  0.3489
   75SLPC  H14R 6727   5.464   6.487   8.201  1.7844 -0.4364  1.0542
   75SLPC  H14S 6728   5.510   6.368   8.332  0.2965 -2.4237 -0.6008
   75SLPC  C215 6729   5.303   6.360   8.285 -0.4142  0.6342  0.2438
   75SLPC  H15R 6730   5.277   6.432   8.365 -3.2220  1.7797 -1.5279
   75SLPC  H15S 6731   5.292   6.257   8.325 -0.4547 -0.4408 -2.3146
   75SLPC  C216 6732   5.196   6.391   8.173  0.3168  0.1205  0.2397
   75SLPC  H16R 6733   5.195   6.295   8.118 -1.6317 -1.7491  3.2549
   75SLPC  H16S 6734   5.221   6.482   8.114 -1.9220  2.0497  2.0407
   75SLPC  C217 6735   5.050   6.415   8.219 -0.5130  1.0962 -0.0304
   75SLPC  H17R 6736   5.000   6.440   8.123  0.4875  0.2941 -0.7855
   75SLPC  H17S 6737   5.040   6.502   8.288 -1.5798  0.5995  0.4628
   75SLPC  C218 6738   4.974   6.290   8.273  0.1738 -0.6263 -0.3594
   75SLPC  H18R 6739   5.009   6.283   8.378  2.2937  3.2232 -0.6441
   75SLPC  H18S 6740   5.007   6.197   8.221  1.3117 -0.6094  0.3059
   75SLPC  H18T 6741   4.864   6.306   8.270  0.1925 -0.6399 -2.0365
   75SLPC   C33 6742   6.051   5.480   6.622 -0.3768  0.0982 -0.2628
   75SLPC   H3X 6743   6.053   5.458   6.731  0.6112  2.3596  0.2265
   75SLPC   H3Y 6744   5.994   5.401   6.568  0.1640 -0.1385 -0.4960
   75SLPC   C34 6745   6.197   5.488   6.570  0.5311 -0.2871  0.1188
   75SLPC   H4X 6746   6.253   5.577   6.603  0.5878 -1.1756  2.6092
   75SLPC   H4Y 6747   6.183   5.487   6.460 -1.3844 -2.7794  0.2794
   75SLPC   C35 6748   6.285   5.370   6.624 -0.0447 -0.0558  0.0640
   75SLPC   H5X 6749   6.364   5.360   6.546  0.5198  1.2391  0.4358
   75SLPC   H5Y 6750   6.233   5.272   6.629  2.5426 -1.4742  1.9684
   75SLPC   C36 6751   6.366   5.398   6.756  0.1178 -0.1359  0.1359
   75SLPC   H6X 6752   6.392   5.506   6.761 -0.6329 -0.0018  1.7159
   75SLPC   H6Y 6753   6.452   5.328   6.747 -1.8288 -2.3501 -3.5058
   75SLPC   C37 6754   6.294   5.363   6.893 -0.0265  0.1093 -0.8370
   75SLPC   H7X 6755   6.274   5.254   6.900  0.6631 -0.0143 -0.6802
   75SLPC   H7Y 6756   6.204   5.424   6.915  1.3949  1.6443  1.0964
   75SLPC   C38 6757   6.389   5.402   7.006 -0.9818  0.4754 -0.0875
   75SLPC   H8X 6758   6.408   5.511   7.018 -1.3585  0.6117 -0.6905
   75SLPC   H8Y 6759   6.492   5.365   6.986 -0.7868  1.0348 -0.1371
   75SLPC   C39 6760   6.346   5.327   7.132  0.3051  0.0282 -0.3453
   75SLPC   H9X 6761   6.349   5.217   7.124  1.2883 -0.2387  2.4917
   75SLPC   H9Y 6762   6.245   5.369   7.155  0.3762  0.6022 -1.0333
   75SLPC  C310 6763   6.433   5.366   7.258 -0.4022  0.9420  0.6001
   75SLPC  H10X 6764   6.418   5.474   7.279 -1.7831  1.3769 -2.2179
   75SLPC  H10Y 6765   6.543   5.352   7.251 -0.5218  0.8398 -1.5582
   75SLPC  C311 6766   6.386   5.307   7.389 -0.5749 -0.3163  0.1752
   75SLPC  H11X 6767   6.376   5.196   7.387 -3.7191 -0.1780  2.0532
   75SLPC  H11Y 6768   6.281   5.337   7.407 -0.5818  1.4719 -2.4409
   75SLPC  C312 6769   6.463   5.340   7.511 -0.5136  0.3157  0.0389
   75SLPC  H12X 6770   6.466   5.447   7.540  1.4400 -0.4656  3.2553
   75SLPC  H12Y 6771   6.567   5.302   7.505 -0.6953 -0.2370  0.2378
   75SLPC  C313 6772   6.412   5.266   7.637  0.0495  0.2422 -0.3524
   75SLPC  H13X 6773   6.419   5.157   7.615  0.6102  0.1649  0.1780
   75SLPC  H13Y 6774   6.303   5.288   7.646 -0.2073 -0.1970 -2.1241
   75SLPC  C314 6775   6.486   5.299   7.768 -0.3174  0.2068 -0.6529
   75SLPC  H14X 6776   6.461   5.406   7.790 -0.7938 -0.1520  0.6604
   75SLPC  H14Y 6777   6.596   5.297   7.754 -0.3326 -1.0763 -0.6843
   75SLPC  C315 6778   6.435   5.223   7.887  0.3228 -0.3307 -0.1825
   75SLPC  H15X 6779   6.449   5.113   7.877  0.0552 -0.2262 -1.9255
   75SLPC  H15Y 6780   6.328   5.242   7.906  0.3290  1.3501 -1.6540
   75SLPC  C316 6781   6.512   5.265   8.011 -0.6594 -0.0407  0.0806
   75SLPC  H16X 6782   6.520   5.376   8.012  1.9722 -0.1609 -1.1162
   75SLPC  H16Y 6783   6.616   5.228   8.001 -0.2686  0.8297  0.7468
   75SLPC  C317 6784   6.468   5.199   8.149  0.2240  0.3360  0.4418
   75SLPC  H17X 6785   6.365   5.157   8.147  0.3859 -0.0484 -0.0607
   75SLPC  H17Y 6786   6.452   5.286   8.216 -3.1990 -2.0231  3.0041
   75SLPC  C318 6787   6.564   5.094   8.217  0.0591 -0.1355  0.8916
   75SLPC  H18X 6788   6.672   5.112   8.199  0.5295 -0.5270  3.0818
   75SLPC  H18Y 6789   6.556   4.988   8.185  4.2874 -0.2594 -0.3261
   75SLPC  H18Z 6790   6.539   5.084   8.325  0.0677 -0.8236  0.8295
   76SLPC     N 6791   1.391   5.019   6.340 -0.1856  0.6671 -0.6972
   76SLPC   C13 6792   1.529   5.065   6.373 -0.2038 -0.1191  0.2835
   76SLPC  H13A 6793   1.552   5.106   6.470  2.0397  0.3090 -0.3686
   76SLPC  H13B 6794   1.600   4.991   6.341  1.8012  2.2355 -0.9998
   76SLPC  H13C 6795   1.557   5.146   6.307  1.0153  0.4975  1.5307
   76SLPC   C14 6796   1.382   4.992   6.195 -0.2200  0.4637 -0.1070
   76SLPC  H14A 6797   1.283   4.958   6.171 -0.0702 -0.6348  0.7728
   76SLPC  H14B 6798   1.401   5.086   6.144  1.5246 -0.2057 -0.7795
   76SLPC  H14C 6799   1.448   4.912   6.165 -1.4648  0.1062 -2.0445
   76SLPC   C15 6800   1.287   5.130   6.373  0.3454  0.4911 -0.3029
   76SLPC  H15A 6801   1.189   5.083   6.373  1.0650 -1.1401  1.3578
   76SLPC  H15B 6802   1.300   5.173   6.471 -2.9669 -1.3702  1.1636
   76SLPC  H15C 6803   1.289   5.205   6.296 -0.7222  0.7433 -0.1042
   76SLPC   C12 6804   1.365   4.891   6.420 -0.0859  1.1352  0.3377
   76SLPC  H12A 6805   1.358   4.927   6.521 -1.0926  1.2968  0.2190
   76SLPC  H12B 6806   1.452   4.829   6.407 -0.2296  1.1434 -0.7710
   76SLPC   C11 6807   1.240   4.811   6.376  0.2566  0.1318  0.3308
   76SLPC  H11A 6808   1.154   4.881   6.371 -1.2830 -1.5910  1.5495
   76SLPC  H11B 6809   1.223   4.736   6.457  1.2701 -1.0985 -0.5539
   76SLPC     P 6810   1.363   4.629   6.224  0.0274 -0.0444  0.2873
   76SLPC   O13 6811   1.345   4.577   6.086  0.4280  0.4618 -0.3652
   76SLPC   O14 6812   1.493   4.669   6.263 -0.4649  0.1015  0.0090
   76SLPC   O12 6813   1.260   4.744   6.251  0.4596 -0.1100 -0.0488
   76SLPC   O11 6814   1.318   4.516   6.321 -0.0301 -0.4422  0.1658
   76SLPC    C1 6815   1.185   4.463   6.331  0.0798 -0.3541 -0.6566
   76SLPC    HA 6816   1.108   4.528   6.284 -0.1003 -0.8192 -1.0207
   76SLPC    HB 6817   1.178   4.361   6.286 -0.2635 -1.9235  2.6535
   76SLPC    C2 6818   1.139   4.453   6.481  0.3089  1.2288 -0.3928
   76SLPC    HS 6819   1.113   4.560   6.498 -1.2127  0.7072  0.8182
   76SLPC   O21 6820   1.245   4.392   6.561 -0.7263 -0.2401 -0.5678
   76SLPC   C21 6821   1.278   4.471   6.663  0.0329 -0.3219  0.4345
   76SLPC   O22 6822   1.235   4.580   6.687 -0.0091 -0.2736 -0.0252
   76SLPC   C22 6823   1.394   4.401   6.742 -0.0732  0.5515 -0.1865
   76SLPC   H2R 6824   1.487   4.385   6.682 -0.4486  0.7769 -0.8392
   76SLPC   H2S 6825   1.423   4.487   6.806  0.5387  0.8042 -0.7861
   76SLPC    C3 6826   1.002   4.384   6.511  0.0357 -0.2444  0.5088
   76SLPC    HX 6827   1.025   4.276   6.524 -0.4340 -0.1510  2.3737
   76SLPC    HY 6828   0.938   4.402   6.422 -0.9660  0.6562  1.3808
   76SLPC   O31 6829   0.933   4.428   6.634 -0.2197  0.6856  0.2008
   76SLPC   C31 6830   0.872   4.545   6.623 -0.1403  0.5527  0.1329
   76SLPC   O32 6831   0.861   4.613   6.522 -0.0488  0.1015 -0.1969
   76SLPC   C32 6832   0.799   4.571   6.753  1.2517 -0.3659 -0.1465
   76SLPC   H2X 6833   0.774   4.468   6.787  2.4594 -0.5824  0.1288
   76SLPC   H2Y 6834   0.706   4.626   6.727  2.3733  1.4979 -0.3591
   76SLPC   C23 6835   1.351   4.267   6.815  0.0270 -0.1012  1.1002
   76SLPC   H3R 6836   1.428   4.220   6.880 -0.7588 -2.0430  0.7284
   76SLPC   H3S 6837   1.321   4.186   6.745 -1.2270  0.0801  1.3955
   76SLPC   C24 6838   1.240   4.294   6.918  0.4561  0.0050  0.1002
   76SLPC   H4R 6839   1.202   4.196   6.954 -2.1077  1.2940  1.1602
   76SLPC   H4S 6840   1.159   4.350   6.868 -0.5214  1.7875  3.3978
   76SLPC   C25 6841   1.294   4.370   7.045 -0.2891 -0.1021 -0.3322
   76SLPC   H5R 6842   1.365   4.438   6.993  0.9885 -2.9304 -2.5552
   76SLPC   H5S 6843   1.358   4.298   7.101  2.1428 -0.5704 -3.4575
   76SLPC   C26 6844   1.183   4.453   7.124 -0.3681  0.2062 -0.1393
   76SLPC   H6R 6845   1.090   4.398   7.148  0.4499 -0.5491  1.4370
   76SLPC   H6S 6846   1.147   4.534   7.058 -0.9723 -0.7634 -1.0403
   76SLPC   C27 6847   1.245   4.509   7.259  0.1817 -0.4306  0.4671
   76SLPC   H7R 6848   1.335   4.570   7.237 -0.2203  0.5465  1.4695
   76SLPC   H7S 6849   1.286   4.425   7.319  1.4207 -0.0043  0.2564
   76SLPC   C28 6850   1.146   4.601   7.337  0.2365 -0.2729  0.0598
   76SLPC   H8R 6851   1.097   4.670   7.265 -0.1770 -0.3819  0.2322
   76SLPC   H8S 6852   1.062   4.548   7.387 -0.3182  1.9435  1.6717
   76SLPC   C29 6853   1.232   4.679   7.426 -0.7456  0.4529  0.2957
   76SLPC   H9R 6854   1.321   4.722   7.377  0.7096 -3.1375 -0.5044
   76SLPC  C210 6855   1.226   4.697   7.557 -0.1037  0.0821  0.1117
   76SLPC  H10R 6856   1.305   4.756   7.605 -0.9528  1.0418  0.3973
   76SLPC  C211 6857   1.118   4.638   7.639 -0.3538  0.3553  0.2014
   76SLPC  H11R 6858   1.030   4.607   7.579 -0.4088 -0.7315  0.8232
   76SLPC  H11S 6859   1.086   4.710   7.718 -2.4685  1.2683 -1.3708
   76SLPC  C212 6860   1.164   4.512   7.707 -0.4741  0.5590 -0.2819
   76SLPC  H12R 6861   1.153   4.420   7.647 -3.3386  0.6144  0.0158
   76SLPC  C213 6862   1.232   4.496   7.826 -0.2067  0.1409  0.1605
   76SLPC  H13R 6863   1.254   4.400   7.873 -1.0015  1.1022  2.6404
   76SLPC  C214 6864   1.284   4.613   7.909  0.1842  0.6179  0.4517
   76SLPC  H14R 6865   1.213   4.619   7.994 -0.9229 -1.7280 -0.2188
   76SLPC  H14S 6866   1.279   4.706   7.847  1.2681  0.8448  0.6831
   76SLPC  C215 6867   1.427   4.594   7.962 -0.0950 -0.9055  0.2286
   76SLPC  H15R 6868   1.461   4.699   7.973  0.5817 -1.1730  0.7278
   76SLPC  H15S 6869   1.503   4.557   7.890  1.7524  2.1256  0.4234
   76SLPC  C216 6870   1.452   4.522   8.094  0.1794  0.2865 -0.4738
   76SLPC  H16R 6871   1.561   4.518   8.115 -0.1524  0.7806  1.5999
   76SLPC  H16S 6872   1.411   4.421   8.072 -1.9384  1.1438 -0.6360
   76SLPC  C217 6873   1.382   4.586   8.222 -0.0206  0.6426  0.4921
   76SLPC  H17R 6874   1.271   4.591   8.218 -0.0698  0.2173  1.1303
   76SLPC  H17S 6875   1.417   4.691   8.232  0.5410  0.8805 -2.9884
   76SLPC  C218 6876   1.421   4.503   8.348  0.6708  0.1758  0.1212
   76SLPC  H18R 6877   1.528   4.476   8.342  0.1203 -1.8428 -2.1690
   76SLPC  H18S 6878   1.373   4.403   8.339 -2.1994  1.5970 -1.9651
   76SLPC  H18T 6879   1.383   4.561   8.436 -0.1651  0.2004 -0.2486
   76SLPC   C33 6880   0.860   4.640   6.877 -0.0649 -0.1756 -0.3715
   76SLPC   H3X 6881   0.905   4.739   6.855 -0.2148 -0.0717 -0.2125
   76SLPC   H3Y 6882   0.946   4.577   6.907 -0.5798 -0.3505  0.7652
   76SLPC   C34 6883   0.767   4.649   6.994  0.4643  0.6382  1.0191
   76SLPC   H4X 6884   0.684   4.577   6.976 -0.8441  2.2178  0.5195
   76SLPC   H4Y 6885   0.708   4.741   6.977 -1.4298 -0.4763  1.2995
   76SLPC   C35 6886   0.822   4.639   7.135 -0.1499 -0.3343 -0.4530
   76SLPC   H5X 6887   0.904   4.713   7.146 -1.6229  1.2460  0.3404
   76SLPC   H5Y 6888   0.866   4.537   7.143 -1.3585 -0.8465 -0.1453
   76SLPC   C36 6889   0.716   4.666   7.245 -1.0721  0.8845  0.8949
   76SLPC   H6X 6890   0.645   4.580   7.244  0.0513 -0.2041 -2.6538
   76SLPC   H6Y 6891   0.663   4.761   7.224 -2.0927  0.2130  0.3128
   76SLPC   C37 6892   0.786   4.665   7.386  0.7274  0.0280  0.2779
   76SLPC   H7X 6893   0.871   4.738   7.383  0.2927  0.5582  0.7465
   76SLPC   H7Y 6894   0.821   4.567   7.423  1.6568  1.0888  2.3884
   76SLPC   C38 6895   0.679   4.708   7.482 -0.2242 -0.1538  0.1679
   76SLPC   H8X 6896   0.606   4.625   7.479  0.7632 -1.0170 -0.8780
   76SLPC   H8Y 6897   0.631   4.804   7.453  0.0954 -0.8333 -2.9879
   76SLPC   C39 6898   0.722   4.711   7.627 -0.0078 -0.2122  0.5853
   76SLPC   H9X 6899   0.816   4.769   7.622  1.2024 -2.1178  0.1258
   76SLPC   H9Y 6900   0.746   4.609   7.665 -2.4533 -0.6776  1.0643
   76SLPC  C310 6901   0.627   4.787   7.717  0.3058 -0.3456 -0.4374
   76SLPC  H10X 6902   0.524   4.756   7.688  0.6711 -1.7325 -0.3190
   76SLPC  H10Y 6903   0.628   4.898   7.708  0.4537 -0.0684  2.1850
   76SLPC  C311 6904   0.646   4.763   7.869  0.2983  0.4255 -0.4555
   76SLPC  H11X 6905   0.607   4.660   7.888  2.8932 -0.4999  0.3278
   76SLPC  H11Y 6906   0.581   4.834   7.924  0.2627 -1.0538  1.5170
   76SLPC  C312 6907   0.789   4.767   7.926  0.0080 -0.4371  0.0044
   76SLPC  H12X 6908   0.831   4.864   7.890 -0.0156 -0.4664 -0.1035
   76SLPC  H12Y 6909   0.848   4.680   7.890 -0.4329 -1.2890  1.2770
   76SLPC  C313 6910   0.796   4.751   8.085 -0.7089 -0.1833  0.7584
   76SLPC  H13X 6911   0.708   4.684   8.098 -0.6735 -1.0711 -2.6017
   76SLPC  H13Y 6912   0.765   4.845   8.135  0.3078  0.5343  0.0708
   76SLPC  C314 6913   0.937   4.691   8.129 -0.0170  0.4870 -0.3669
   76SLPC  H14X 6914   1.009   4.754   8.072  1.2441  0.0650  0.7251
   76SLPC  H14Y 6915   0.959   4.590   8.089 -2.8827  0.1613 -1.3439
   76SLPC  C315 6916   0.961   4.716   8.280  0.2040 -0.1521 -0.6275
   76SLPC  H15X 6917   0.967   4.824   8.307 -2.6523 -0.1151  0.3017
   76SLPC  H15Y 6918   1.057   4.664   8.297 -0.9767 -2.1878  0.2339
   76SLPC  C316 6919   0.846   4.682   8.367 -0.4751  0.8038 -0.7859
   76SLPC  H16X 6920   0.762   4.746   8.336 -1.3640 -0.2039 -0.5117
   76SLPC  H16Y 6921   0.869   4.715   8.471 -1.9772  1.4375 -0.6356
   76SLPC  C317 6922   0.804   4.533   8.353  0.9184  1.5303 -0.4750
   76SLPC  H17X 6923   0.807   4.503   8.246  0.6265  0.5039 -0.2140
   76SLPC  H17Y 6924   0.700   4.517   8.388 -0.2474  3.0456 -2.9656
   76SLPC  C318 6925   0.907   4.437   8.424 -0.2484  0.0841  0.2782
   76SLPC  H18X 6926   0.994   4.418   8.357 -1.4560 -3.5777 -0.4771
   76SLPC  H18Y 6927   0.868   4.333   8.423 -0.1186  0.0395 -0.7677
   76SLPC  H18Z 6928   0.935   4.477   8.525 -1.4421 -0.8536  1.0013
   77SLPC     N 6929   2.458   3.784   6.140 -0.4102  0.4279  0.3829
   77SLPC   C13 6930   2.589   3.803   6.077 -0.0450 -0.6263 -0.2564
   77SLPC  H13A 6931   2.643   3.879   6.131  1.4853 -1.2803 -0.8165
   77SLPC  H13B 6932   2.653   3.716   6.084  1.9238  0.8724  1.5592
   77SLPC  H13C 6933   2.579   3.835   5.974 -2.3927 -0.3951 -0.0190
   77SLPC   C14 6934   2.365   3.700   6.054 -0.2799  0.2697  0.0622
   77SLPC  H14A 6935   2.402   3.599   6.043  0.5129  0.5608  0.0013
   77SLPC  H14B 6936   2.261   3.707   6.081  0.0757  1.3287  1.2334
   77SLPC  H14C 6937   2.368   3.733   5.951 -0.4372 -1.3994 -0.5091
   77SLPC   C15 6938   2.393   3.917   6.169 -0.0589 -0.3201  0.4330
   77SLPC  H15A 6939   2.402   3.970   6.075  0.4441  0.6350  1.0124
   77SLPC  H15B 6940   2.287   3.900   6.183 -0.6874 -0.6917 -3.5029
   77SLPC  H15C 6941   2.446   3.967   6.248 -0.6871  0.2834  0.4880
   77SLPC   C12 6942   2.469   3.706   6.269 -0.2566  0.0373 -0.7216
   77SLPC  H12A 6943   2.547   3.631   6.256 -1.9269 -2.0436  0.6130
   77SLPC  H12B 6944   2.381   3.645   6.275 -0.6061  0.2340 -3.0098
   77SLPC   C11 6945   2.505   3.789   6.403  0.0201  0.8606  0.4270
   77SLPC  H11A 6946   2.513   3.718   6.488 -0.7773 -2.3959 -2.0219
   77SLPC  H11B 6947   2.421   3.860   6.417 -0.2602  0.3312  1.4941
   77SLPC     P 6948   2.761   3.841   6.448 -0.0191  0.1655 -0.0451
   77SLPC   O13 6949   2.783   3.699   6.437 -0.2772  0.5410  0.8568
   77SLPC   O14 6950   2.857   3.941   6.399 -0.2898 -0.4234 -0.2452
   77SLPC   O12 6951   2.622   3.874   6.383  0.8345  0.0803  0.1688
   77SLPC   O11 6952   2.730   3.873   6.604  0.0954 -0.0493  0.4357
   77SLPC    C1 6953   2.665   3.999   6.636  0.6634  0.0343  0.3427
   77SLPC    HA 6954   2.713   4.084   6.583  0.1352 -0.6462 -1.2832
   77SLPC    HB 6955   2.556   3.990   6.622  1.0450 -1.0574 -2.5056
   77SLPC    C2 6956   2.663   4.017   6.789 -0.7171 -0.5745  0.1010
   77SLPC    HS 6957   2.768   4.009   6.826 -0.6217  0.0668 -0.0127
   77SLPC   O21 6958   2.582   3.916   6.848  0.2192  0.0904 -0.1426
   77SLPC   C21 6959   2.590   3.894   6.981  0.4697 -0.0066 -0.3997
   77SLPC   O22 6960   2.677   3.932   7.056  0.5888 -0.7190  0.4871
   77SLPC   C22 6961   2.473   3.802   7.027  0.4110 -0.4274 -0.2194
   77SLPC   H2R 6962   2.404   3.789   6.941 -2.4378 -1.3395  2.0218
   77SLPC   H2S 6963   2.523   3.711   7.066  2.9222  1.0320  0.1412
   77SLPC    C3 6964   2.622   4.163   6.833  0.6754 -0.7261  0.5813
   77SLPC    HX 6965   2.511   4.177   6.834  0.7274 -0.3095  0.8784
   77SLPC    HY 6966   2.657   4.238   6.759 -2.3058 -0.4494 -0.7033
   77SLPC   O31 6967   2.664   4.204   6.963  0.1460 -0.6589 -0.0091
   77SLPC   C31 6968   2.795   4.243   6.971  0.2826 -0.2507 -0.0302
   77SLPC   O32 6969   2.866   4.254   6.875 -0.2863  0.9062  0.7684
   77SLPC   C32 6970   2.841   4.250   7.116  0.0336 -0.4564 -0.0601
   77SLPC   H2X 6971   2.909   4.337   7.119 -1.2450  0.5507  1.1378
   77SLPC   H2Y 6972   2.908   4.162   7.123  0.3652 -0.4656 -2.5769
   77SLPC   C23 6973   2.390   3.875   7.138  0.3073 -0.1442  0.1604
   77SLPC   H3R 6974   2.293   3.822   7.141 -0.5334  1.1195 -2.2991
   77SLPC   H3S 6975   2.374   3.982   7.115  0.3912  0.3569  2.2496
   77SLPC   C24 6976   2.464   3.855   7.267  0.7421  0.7916 -0.0641
   77SLPC   H4R 6977   2.572   3.879   7.257  0.7128  1.2262  0.6317
   77SLPC   H4S 6978   2.459   3.747   7.295 -0.8519  0.3876 -1.7015
   77SLPC   C25 6979   2.411   3.934   7.380 -0.2138  0.5846  0.1445
   77SLPC   H5R 6980   2.300   3.938   7.377 -0.2332  0.6291  0.7875
   77SLPC   H5S 6981   2.446   4.037   7.356  2.0032  0.1115  1.0995
   77SLPC   C26 6982   2.452   3.883   7.517  0.2816 -0.4038  0.1927
   77SLPC   H6R 6983   2.563   3.888   7.514  0.2954 -0.2010  0.9590
   77SLPC   H6S 6984   2.431   3.776   7.542  3.1159 -1.0054  0.3367
   77SLPC   C27 6985   2.408   3.975   7.627 -0.4495  0.0991  0.4328
   77SLPC   H7R 6986   2.299   3.963   7.645 -0.5226  1.3580  0.9570
   77SLPC   H7S 6987   2.429   4.080   7.598  1.5797 -0.6951 -1.2291
   77SLPC   C28 6988   2.465   3.938   7.765  0.0397  0.5507 -0.1394
   77SLPC   H8R 6989   2.464   3.827   7.762 -1.6134  0.5606 -1.3315
   77SLPC   H8S 6990   2.391   3.963   7.845  0.5150  0.6257  0.2801
   77SLPC   C29 6991   2.602   3.990   7.800  0.8272 -0.1052  0.2397
   77SLPC   H9R 6992   2.668   3.994   7.713  0.8403  0.8751  0.2830
   77SLPC  C210 6993   2.649   4.021   7.922  0.3327  0.4187 -0.2490
   77SLPC  H10R 6994   2.750   4.063   7.931  0.1296  0.8475  0.0553
   77SLPC  C211 6995   2.565   4.020   8.051  0.5384 -0.2120 -0.3547
   77SLPC  H11R 6996   2.457   4.030   8.027  0.3719  1.3751  0.9341
   77SLPC  H11S 6997   2.577   4.111   8.113  1.1146 -1.0538  0.8148
   77SLPC  C212 6998   2.572   3.901   8.140  0.1063 -0.2174  0.0412
   77SLPC  H12R 6999   2.525   3.807   8.107 -0.6845  0.0103  0.4918
   77SLPC  C213 7000   2.631   3.889   8.253  0.0040 -0.7678 -0.1192
   77SLPC  H13R 7001   2.621   3.797   8.312 -1.9883  0.6563  1.9287
   77SLPC  C214 7002   2.699   4.007   8.319 -1.0958  0.3885 -0.3012
   77SLPC  H14R 7003   2.641   4.099   8.342  0.2866  1.0122  0.8567
   77SLPC  H14S 7004   2.781   4.032   8.248  0.0964 -1.1763  0.4759
   77SLPC  C215 7005   2.760   3.972   8.458  0.1441  0.4085 -0.6461
   77SLPC  H15R 7006   2.810   4.062   8.499  2.9192 -0.2815 -2.2982
   77SLPC  H15S 7007   2.832   3.890   8.438  0.4254  0.2550  0.8754
   77SLPC  C216 7008   2.669   3.914   8.569  0.3060 -0.5727 -0.0942
   77SLPC  H16R 7009   2.634   3.810   8.549  0.9967 -0.6274 -1.1306
   77SLPC  H16S 7010   2.575   3.971   8.582 -0.4494 -1.8711  0.3572
   77SLPC  C217 7011   2.745   3.911   8.708  0.9718  0.4188 -0.6030
   77SLPC  H17R 7012   2.670   3.856   8.770  1.3683 -0.5332 -0.9553
   77SLPC  H17S 7013   2.754   4.013   8.751  2.8558 -0.1879  0.5404
   77SLPC  C218 7014   2.886   3.851   8.710  0.0064 -0.1056 -0.0137
   77SLPC  H18R 7015   2.874   3.750   8.665 -0.8823 -1.4239  2.8958
   77SLPC  H18S 7016   2.932   3.851   8.811 -1.6918 -1.3438  0.8219
   77SLPC  H18T 7017   2.963   3.898   8.645 -0.9319 -0.3905 -1.3685
   77SLPC   C33 7018   2.726   4.243   7.218 -0.2187  0.1971  0.4768
   77SLPC   H3X 7019   2.705   4.134   7.225 -1.1760  0.3469  0.1382
   77SLPC   H3Y 7020   2.635   4.292   7.179 -0.6449 -0.6539  0.3658
   77SLPC   C34 7021   2.783   4.301   7.344  0.4251 -0.0727  0.2105
   77SLPC   H4X 7022   2.827   4.402   7.336  0.6391 -0.1941 -0.1244
   77SLPC   H4Y 7023   2.863   4.233   7.380  1.1108 -0.0482 -1.2019
   77SLPC   C35 7024   2.672   4.308   7.454 -0.4878  0.3438  0.5152
   77SLPC   H5X 7025   2.602   4.222   7.444  0.0513 -0.0855  0.3945
   77SLPC   H5Y 7026   2.621   4.405   7.438  0.4646  0.7637 -0.0880
   77SLPC   C36 7027   2.732   4.317   7.597  0.3823  0.4308 -0.0179
   77SLPC   H6X 7028   2.824   4.379   7.588  1.2557 -0.8118  0.0537
   77SLPC   H6Y 7029   2.768   4.215   7.621 -0.6379 -0.8766 -3.4390
   77SLPC   C37 7030   2.633   4.359   7.697 -0.1130  0.6949 -0.4948
   77SLPC   H7X 7031   2.558   4.279   7.714 -0.1360 -0.1445 -3.7756
   77SLPC   H7Y 7032   2.575   4.452   7.680 -0.0582  0.8649  0.2171
   77SLPC   C38 7033   2.702   4.381   7.835  0.9880 -0.0322  0.5543
   77SLPC   H8X 7034   2.795   4.439   7.816  0.6259  0.5796  0.6301
   77SLPC   H8Y 7035   2.741   4.284   7.873 -0.6454 -1.7354 -1.8839
   77SLPC   C39 7036   2.609   4.435   7.945 -0.0311  0.0089 -0.5760
   77SLPC   H9X 7037   2.554   4.342   7.969  1.2580 -0.4399  0.7830
   77SLPC   H9Y 7038   2.548   4.520   7.905  0.5842  0.4803 -0.5325
   77SLPC  C310 7039   2.684   4.478   8.073  0.8216 -0.3925  0.6128
   77SLPC  H10X 7040   2.609   4.529   8.138 -0.4550 -1.5993  0.1403
   77SLPC  H10Y 7041   2.753   4.559   8.043 -2.0401  1.2835 -1.9857
   77SLPC  C311 7042   2.762   4.368   8.148 -0.3330  0.1317 -0.0571
   77SLPC  H11X 7043   2.828   4.313   8.077  0.3775 -2.9738  2.7584
   77SLPC  H11Y 7044   2.681   4.301   8.183  0.3994 -1.3635 -1.0998
   77SLPC  C312 7045   2.841   4.435   8.255 -0.7071  0.0191  0.3083
   77SLPC  H12X 7046   2.787   4.523   8.294 -1.1414  0.6141 -1.5363
   77SLPC  H12Y 7047   2.936   4.469   8.209  0.1722 -1.6943  0.7622
   77SLPC  C313 7048   2.893   4.334   8.365  0.8697  0.6003  1.2480
   77SLPC  H13X 7049   2.903   4.235   8.316  2.2598  0.8143  1.0454
   77SLPC  H13Y 7050   2.816   4.322   8.444 -1.3356 -1.6280 -1.0624
   77SLPC  C314 7051   3.026   4.376   8.429 -0.0272 -0.0985  0.2209
   77SLPC  H14X 7052   3.011   4.478   8.468  0.6120  0.0655  0.0529
   77SLPC  H14Y 7053   3.100   4.382   8.346 -1.1466 -2.1151 -1.0237
   77SLPC  C315 7054   3.066   4.277   8.541 -0.6560  0.1433  0.4492
   77SLPC  H15X 7055   2.976   4.251   8.601  0.3708 -3.0191  0.8123
   77SLPC  H15Y 7056   3.141   4.332   8.602 -1.6542  1.1178  0.8201
   77SLPC  C316 7057   3.126   4.151   8.483 -0.2189  0.5548 -0.1592
   77SLPC  H16X 7058   3.197   4.186   8.404  0.6552  0.3247  0.5077
   77SLPC  H16Y 7059   3.042   4.090   8.443 -1.1168  1.1049  0.8466
   77SLPC  C317 7060   3.214   4.076   8.585  0.7584  0.4968 -0.0946
   77SLPC  H17X 7061   3.148   4.062   8.674  2.2177 -1.2352  0.7715
   77SLPC  H17Y 7062   3.305   4.135   8.610 -0.7965  2.6209  0.9441
   77SLPC  C318 7063   3.256   3.943   8.524  0.2015  0.4113 -0.2167
   77SLPC  H18X 7064   3.317   3.876   8.588 -1.7334 -1.1592  0.0728
   77SLPC  H18Y 7065   3.311   3.970   8.432  0.6809  0.0761 -0.0302
   77SLPC  H18Z 7066   3.165   3.885   8.499  0.7024 -0.0949 -0.8803
   78SLPC     N 7067   4.262   5.845   6.254  0.4917 -0.2965 -0.4124
   78SLPC   C13 7068   4.131   5.889   6.189  0.0329  0.0231 -0.0616
   78SLPC  H13A 7069   4.120   5.836   6.096 -1.7031 -1.5640  0.9795
   78SLPC  H13B 7070   4.048   5.857   6.249  0.2854 -0.0268  0.2670
   78SLPC  H13C 7071   4.124   5.996   6.179 -0.1572  0.3909  3.0382
   78SLPC   C14 7072   4.265   5.920   6.381 -0.2429  0.0250 -0.7102
   78SLPC  H14A 7073   4.356   5.907   6.438 -0.0277  2.5220 -0.3774
   78SLPC  H14B 7074   4.267   6.023   6.351 -0.5481 -0.0318 -0.9288
   78SLPC  H14C 7075   4.180   5.909   6.446 -0.2780  2.0777 -0.3633
   78SLPC   C15 7076   4.374   5.881   6.160 -0.3578 -0.0739  0.5296
   78SLPC  H15A 7077   4.384   5.989   6.155  0.2316 -0.1396  0.2502
   78SLPC  H15B 7078   4.459   5.827   6.199  0.8031  0.2768 -1.3561
   78SLPC  H15C 7079   4.360   5.837   6.062  1.4687  1.1643 -0.3425
   78SLPC   C12 7080   4.259   5.691   6.280  0.1354 -0.0665  0.5867
   78SLPC  H12A 7081   4.263   5.636   6.187  1.4570 -3.1244  2.3118
   78SLPC  H12B 7082   4.163   5.664   6.322  0.9469 -1.8495  1.4034
   78SLPC   C11 7083   4.376   5.643   6.368  0.1462  0.7931  0.1891
   78SLPC  H11A 7084   4.342   5.542   6.398 -2.4652  1.6763  0.4158
   78SLPC  H11B 7085   4.385   5.705   6.459  1.4295 -0.0658  0.6664
   78SLPC     P 7086   4.589   5.524   6.286  0.0093 -0.1215  0.5649
   78SLPC   O13 7087   4.494   5.419   6.246 -0.2808  0.0885  0.7936
   78SLPC   O14 7088   4.700   5.556   6.190 -0.1389 -0.7545 -0.3612
   78SLPC   O12 7089   4.501   5.659   6.293 -0.6460 -0.0352 -0.2585
   78SLPC   O11 7090   4.638   5.487   6.433 -0.1171  0.0393  0.1444
   78SLPC    C1 7091   4.707   5.568   6.523  0.1475  0.5310 -0.3171
   78SLPC    HA 7092   4.806   5.517   6.526 -0.5479 -0.8121  1.5174
   78SLPC    HB 7093   4.722   5.675   6.495 -2.1773  1.2830  0.9819
   78SLPC    C2 7094   4.655   5.561   6.671  0.4897 -0.5978  0.3208
   78SLPC    HS 7095   4.663   5.457   6.710 -0.5421 -0.8657 -0.1490
   78SLPC   O21 7096   4.518   5.604   6.662  0.8486  0.0189  0.0455
   78SLPC   C21 7097   4.426   5.555   6.750 -0.5534 -0.0325 -0.1272
   78SLPC   O22 7098   4.450   5.475   6.841  0.0888 -0.1985 -0.1173
   78SLPC   C22 7099   4.289   5.614   6.724  0.5964 -0.1279 -0.0646
   78SLPC   H2R 7100   4.278   5.629   6.614  0.1704 -2.2411 -0.3484
   78SLPC   H2S 7101   4.215   5.539   6.760 -1.7596  1.8265 -0.5732
   78SLPC    C3 7102   4.728   5.649   6.786  0.1491  0.1332 -0.5766
   78SLPC    HX 7103   4.710   5.756   6.760 -1.4992  0.1136  0.3688
   78SLPC    HY 7104   4.837   5.628   6.775  0.2257  0.7110 -1.0164
   78SLPC   O31 7105   4.690   5.627   6.925  0.5514  0.0243 -0.0585
   78SLPC   C31 7106   4.755   5.543   6.997 -0.0026  0.3915  0.1543
   78SLPC   O32 7107   4.848   5.467   6.956  0.5315 -0.6177 -0.3435
   78SLPC   C32 7108   4.699   5.543   7.137 -0.0951 -0.5744  0.5869
   78SLPC   H2X 7109   4.598   5.498   7.131 -0.9026  0.5066  3.9190
   78SLPC   H2Y 7110   4.695   5.651   7.164  1.2286 -0.2884 -0.2184
   78SLPC   C23 7111   4.269   5.751   6.792 -0.1199  0.1761 -0.7326
   78SLPC   H3R 7112   4.167   5.760   6.834 -0.6027 -1.2376 -1.5606
   78SLPC   H3S 7113   4.274   5.829   6.713 -5.5595  0.2854 -1.3726
   78SLPC   C24 7114   4.370   5.790   6.905 -0.5392  0.4206 -0.2285
   78SLPC   H4R 7115   4.478   5.787   6.880 -0.3582 -2.3971  0.5134
   78SLPC   H4S 7116   4.370   5.704   6.976 -1.2012 -0.9800 -1.8809
   78SLPC   C25 7117   4.337   5.916   6.987 -0.6721 -0.9076  0.8707
   78SLPC   H5R 7118   4.348   6.003   6.919  0.3826 -1.2279  0.6060
   78SLPC   H5S 7119   4.416   5.919   7.065 -0.7049 -0.0722  0.8805
   78SLPC   C26 7120   4.203   5.899   7.057  0.5405 -0.2405  0.4196
   78SLPC   H6R 7121   4.205   5.801   7.109 -0.3312 -0.3614  0.2394
   78SLPC   H6S 7122   4.120   5.891   6.984 -1.9818  1.9421  2.8306
   78SLPC   C27 7123   4.168   6.002   7.164 -0.7754 -0.5371  0.2819
   78SLPC   H7R 7124   4.059   6.016   7.175 -0.4896  2.2733  0.4083
   78SLPC   H7S 7125   4.208   6.103   7.138  0.4540 -0.2162  2.9867
   78SLPC   C28 7126   4.216   5.974   7.308 -0.6061 -0.4672  0.2057
   78SLPC   H8R 7127   4.173   5.880   7.349  0.9124 -0.6794  1.4211
   78SLPC   H8S 7128   4.182   6.054   7.377  2.4050  0.9852  0.1796
   78SLPC   C29 7129   4.364   5.968   7.330 -0.3903  0.2624  0.0519
   78SLPC   H9R 7130   4.431   6.000   7.250 -0.4711 -1.4496 -0.7493
   78SLPC  C210 7131   4.417   5.902   7.436 -0.1872  0.2068 -0.1275
   78SLPC  H10R 7132   4.525   5.908   7.456 -0.2204  1.7376 -0.3083
   78SLPC  C211 7133   4.344   5.840   7.552  0.0290 -0.3464  0.3767
   78SLPC  H11R 7134   4.256   5.785   7.512  0.4845  0.2882 -1.6141
   78SLPC  H11S 7135   4.303   5.928   7.607  0.1564  0.3419 -0.5979
   78SLPC  C212 7136   4.434   5.759   7.640  0.0791  0.1055  0.4989
   78SLPC  H12R 7137   4.511   5.695   7.595 -0.9982 -0.5243 -0.5029
   78SLPC  C213 7138   4.433   5.768   7.774 -0.5245  0.0354  1.1634
   78SLPC  H13R 7139   4.502   5.710   7.838  0.1657  1.4646  1.7711
   78SLPC  C214 7140   4.342   5.845   7.860  0.6810 -0.2198 -0.0517
   78SLPC  H14R 7141   4.299   5.775   7.934  2.8840  0.8516  2.4069
   78SLPC  H14S 7142   4.253   5.891   7.812 -1.3812 -0.0514  3.5840
   78SLPC  C215 7143   4.398   5.945   7.955 -0.6529 -0.5616  0.5744
   78SLPC  H15R 7144   4.464   5.882   8.018  1.1555  0.3046 -0.3931
   78SLPC  H15S 7145   4.315   5.989   8.015  0.7090  1.2348  1.2424
   78SLPC  C216 7146   4.477   6.061   7.886 -0.1175 -0.5188 -0.0052
   78SLPC  H16R 7147   4.424   6.147   7.839  2.9057  0.4021 -2.0997
   78SLPC  H16S 7148   4.538   6.011   7.808 -0.8450 -0.1088 -0.8492
   78SLPC  C217 7149   4.580   6.130   7.986  0.1286 -0.1395 -0.3277
   78SLPC  H17R 7150   4.521   6.198   8.051  1.1693  0.5076 -0.0179
   78SLPC  H17S 7151   4.648   6.201   7.933 -0.4236  0.4216 -0.2874
   78SLPC  C218 7152   4.672   6.030   8.065  0.5081  0.1382 -0.8127
   78SLPC  H18R 7153   4.614   5.957   8.125  0.7624  1.1421  0.7161
   78SLPC  H18S 7154   4.742   6.093   8.124  0.2999 -1.6942  1.5343
   78SLPC  H18T 7155   4.741   5.973   8.000  1.2234 -0.5503  0.5072
   78SLPC   C33 7156   4.775   5.464   7.253  0.1105  0.3721 -0.1357
   78SLPC   H3X 7157   4.884   5.484   7.255 -0.1667  2.5337 -2.2642
   78SLPC   H3Y 7158   4.765   5.357   7.227  0.7689 -0.4223  2.5280
   78SLPC   C34 7159   4.710   5.505   7.387 -0.1663  0.1632  0.0474
   78SLPC   H4X 7160   4.599   5.498   7.394 -0.1599  0.7926  1.0768
   78SLPC   H4Y 7161   4.732   5.614   7.392 -1.5557  0.4174  1.7159
   78SLPC   C35 7162   4.772   5.433   7.508  0.0334 -0.0003 -0.3549
   78SLPC   H5X 7163   4.881   5.433   7.487 -0.2319  0.7709 -1.8935
   78SLPC   H5Y 7164   4.735   5.329   7.520 -1.2649  0.1429 -2.5084
   78SLPC   C36 7165   4.754   5.503   7.643  0.1039  0.4058 -0.1671
   78SLPC   H6X 7166   4.648   5.501   7.677 -0.1220 -4.1282 -0.5295
   78SLPC   H6Y 7167   4.777   5.611   7.633  4.4417 -0.3730 -0.5910
   78SLPC   C37 7168   4.848   5.459   7.757  0.8304 -0.5341 -0.3265
   78SLPC   H7X 7169   4.947   5.423   7.722  0.6623 -0.8801 -0.4550
   78SLPC   H7Y 7170   4.804   5.367   7.802 -0.4803  1.0756  1.9336
   78SLPC   C38 7171   4.863   5.561   7.874  0.3949 -0.2666 -0.4091
   78SLPC   H8X 7172   4.879   5.665   7.839  2.7854 -0.4354  0.0163
   78SLPC   H8Y 7173   4.961   5.530   7.918  0.1291 -1.2460 -0.4723
   78SLPC   C39 7174   4.752   5.553   7.981  0.3420 -0.2968  0.7514
   78SLPC   H9X 7175   4.760   5.449   8.021  1.2725 -0.3133  0.5506
   78SLPC   H9Y 7176   4.650   5.561   7.938  1.2372  2.2783 -1.1357
   78SLPC  C310 7177   4.776   5.644   8.096 -0.2451  0.2134  0.3454
   78SLPC  H10X 7178   4.786   5.750   8.066  1.3809 -0.5403 -2.0695
   78SLPC  H10Y 7179   4.875   5.619   8.140  1.8458  3.0034 -2.3990
   78SLPC  C311 7180   4.660   5.621   8.195 -0.6755 -0.3418 -0.2647
   78SLPC  H11X 7181   4.675   5.516   8.228  4.3236 -0.2327 -1.2959
   78SLPC  H11Y 7182   4.565   5.632   8.138 -0.9068  0.0021  0.1805
   78SLPC  C312 7183   4.665   5.730   8.308  0.2416 -0.6142 -0.0760
   78SLPC  H12X 7184   4.615   5.825   8.280 -0.3268 -0.4516  1.3869
   78SLPC  H12Y 7185   4.773   5.747   8.330 -0.0581  1.6115 -0.1359
   78SLPC  C313 7186   4.600   5.693   8.441 -0.5963 -0.8679  0.2576
   78SLPC  H13X 7187   4.649   5.744   8.526  2.9803 -0.5853 -1.7825
   78SLPC  H13Y 7188   4.612   5.583   8.447 -1.2924 -0.9407  0.4219
   78SLPC  C314 7189   4.454   5.736   8.452 -0.0195  0.7325 -0.5701
   78SLPC  H14X 7190   4.397   5.718   8.359 -1.3509 -0.0048  0.3432
   78SLPC  H14Y 7191   4.442   5.845   8.470 -0.2825  0.7329 -0.7564
   78SLPC  C315 7192   4.384   5.652   8.562  0.5370 -0.3065  0.8140
   78SLPC  H15X 7193   4.440   5.677   8.654  3.6310  2.1734 -1.5141
   78SLPC  H15Y 7194   4.377   5.543   8.541  0.7048 -0.2805  0.6239
   78SLPC  C316 7195   4.237   5.695   8.579  0.3061  0.1135  0.0570
   78SLPC  H16X 7196   4.203   5.718   8.476  2.9420  2.0359 -0.4853
   78SLPC  H16Y 7197   4.217   5.791   8.632 -0.6106 -0.6635  1.1917
   78SLPC  C317 7198   4.159   5.586   8.651  0.5651  0.3032 -0.4021
   78SLPC  H17X 7199   4.070   5.626   8.705 -0.0809 -0.4419 -0.9006
   78SLPC  H17Y 7200   4.223   5.541   8.730  0.9117 -1.0038 -1.4038
   78SLPC  C318 7201   4.103   5.480   8.557  0.5437 -0.6070 -1.0961
   78SLPC  H18X 7202   4.182   5.432   8.497  0.7498 -1.3854 -0.2257
   78SLPC  H18Y 7203   4.037   5.527   8.480  1.0114 -1.5594 -2.1073
   78SLPC  H18Z 7204   4.054   5.387   8.595  0.1172 -0.0123 -0.1596
   79SLPC     N 7205   3.106   0.423   5.889 -0.1539 -0.2330 -0.1902
   79SLPC   C13 7206   3.223   0.330   5.909  0.0052 -1.0124 -0.3747
   79SLPC  H13A 7207   3.245   0.309   6.013  0.1433  0.6225 -0.0580
   79SLPC  H13B 7208   3.201   0.234   5.865 -0.5802 -1.4828  0.8816
   79SLPC  H13C 7209   3.323   0.361   5.884  0.4570 -0.6655  1.6430
   79SLPC   C14 7210   2.997   0.331   5.896 -0.7975 -0.0127  0.6603
   79SLPC  H14A 7211   3.003   0.248   5.827  1.4844  0.0283  0.7312
   79SLPC  H14B 7212   2.994   0.287   5.995 -1.1775  0.5944  0.9243
   79SLPC  H14C 7213   2.900   0.376   5.882 -0.1409  2.3459  2.9132
   79SLPC   C15 7214   3.107   0.483   5.748  0.4425  0.6204 -0.0530
   79SLPC  H15A 7215   3.013   0.534   5.733 -0.4534 -1.0334 -0.3234
   79SLPC  H15B 7216   3.192   0.549   5.741 -1.8212  3.6747 -0.5426
   79SLPC  H15C 7217   3.108   0.398   5.682 -1.2594  0.8670 -0.4480
   79SLPC   C12 7218   3.099   0.536   5.995  0.6403  0.1459 -0.1173
   79SLPC  H12A 7219   3.015   0.596   5.964 -1.3172 -2.4793 -0.1957
   79SLPC  H12B 7220   3.190   0.594   5.997  1.2608 -0.6323 -2.3643
   79SLPC   C11 7221   3.072   0.490   6.139  0.4414  0.0125  0.8145
   79SLPC  H11A 7222   3.094   0.576   6.207 -0.6149  0.1043  1.0531
   79SLPC  H11B 7223   3.142   0.410   6.172 -0.8605 -0.5928  2.2223
   79SLPC     P 7224   2.817   0.544   6.160  0.2459 -0.0196  0.1252
   79SLPC   O13 7225   2.857   0.683   6.149  0.5552  0.1704 -0.1982
   79SLPC   O14 7226   2.724   0.497   6.058 -0.0270 -0.4464 -0.1110
   79SLPC   O12 7227   2.943   0.444   6.161  0.1909 -0.5118 -0.4953
   79SLPC   O11 7228   2.751   0.534   6.304  0.7972  0.3834 -0.7245
   79SLPC    C1 7229   2.718   0.408   6.373  0.3211  0.3945 -0.4303
   79SLPC    HA 7230   2.636   0.422   6.447  0.5885 -1.1342  0.1876
   79SLPC    HB 7231   2.665   0.341   6.302  3.3892 -2.7168 -0.0556
   79SLPC    C2 7232   2.831   0.348   6.459  0.0225  0.0104 -0.1126
   79SLPC    HS 7233   2.874   0.270   6.392 -1.0093  0.3704 -1.2161
   79SLPC   O21 7234   2.763   0.281   6.566  0.0198  0.1581  1.0091
   79SLPC   C21 7235   2.828   0.182   6.621  0.4843  0.4630 -0.0005
   79SLPC   O22 7236   2.937   0.144   6.585  0.0565 -0.0677  0.6219
   79SLPC   C22 7237   2.745   0.137   6.739 -0.3599  0.3956  0.4370
   79SLPC   H2R 7238   2.676   0.213   6.781 -2.1028  0.0491 -1.6418
   79SLPC   H2S 7239   2.682   0.047   6.723  0.1198 -0.0582  1.0546
   79SLPC    C3 7240   2.933   0.455   6.512 -0.0845 -0.1127  0.0529
   79SLPC    HX 7241   2.883   0.553   6.527 -0.5044 -0.1341 -1.1065
   79SLPC    HY 7242   2.989   0.479   6.419 -1.8988  0.8781 -0.8354
   79SLPC   O31 7243   3.011   0.415   6.624 -0.7286  0.2992  0.5574
   79SLPC   C31 7244   3.050   0.502   6.712 -0.2350 -0.0813 -0.0352
   79SLPC   O32 7245   3.014   0.620   6.718  0.1059 -0.0595 -0.2969
   79SLPC   C32 7246   3.142   0.424   6.817 -0.5543 -0.5534 -0.1202
   79SLPC   H2X 7247   3.242   0.441   6.773 -1.0684 -0.2588 -1.2097
   79SLPC   H2Y 7248   3.108   0.320   6.836  0.8120 -0.9694  0.1453
   79SLPC   C23 7249   2.846   0.082   6.843  0.3690  0.2812 -0.3915
   79SLPC   H3R 7250   2.932   0.152   6.848 -0.0885  1.1539 -3.2281
   79SLPC   H3S 7251   2.879  -0.021   6.817 -2.4095 -0.3099 -1.9671
   79SLPC   C24 7252   2.779   0.077   6.980  0.2683 -0.0031 -0.6833
   79SLPC   H4R 7253   2.710  -0.010   6.974 -0.4843  0.6623 -2.0685
   79SLPC   H4S 7254   2.724   0.170   7.005 -2.2330 -1.3754 -0.6477
   79SLPC   C25 7255   2.882   0.065   7.093 -0.2136 -0.2333 -0.2608
   79SLPC   H5R 7256   2.948   0.154   7.093 -1.9856  1.3247  3.4108
   79SLPC   H5S 7257   2.937  -0.031   7.087  0.0218 -0.1616  0.6245
   79SLPC   C26 7258   2.827   0.048   7.234 -0.2011  1.0164 -0.0089
   79SLPC   H6R 7259   2.907  -0.003   7.292 -0.3082 -1.6405 -1.9888
   79SLPC   H6S 7260   2.743  -0.025   7.239 -1.6872  2.7217  1.5086
   79SLPC   C27 7261   2.791   0.186   7.292 -0.2163  0.0190  0.0051
   79SLPC   H7R 7262   2.694   0.212   7.246 -0.6523 -0.3535  0.6947
   79SLPC   H7S 7263   2.860   0.265   7.255  0.1789  0.4323  1.5734
   79SLPC   C28 7264   2.773   0.190   7.453 -0.3213 -0.2242  0.1121
   79SLPC   H8R 7265   2.745   0.297   7.459  0.5720 -0.0281  1.5337
   79SLPC   H8S 7266   2.869   0.181   7.509 -0.3864  1.6838  0.6150
   79SLPC   C29 7267   2.665   0.094   7.500 -0.1529  0.0052  0.1281
   79SLPC   H9R 7268   2.628   0.037   7.414  3.8075 -0.4249 -1.5219
   79SLPC  C210 7269   2.631   0.072   7.633  0.5920 -0.2544 -0.2707
   79SLPC  H10R 7270   2.549   0.002   7.654  0.7995 -0.0461  1.3207
   79SLPC  C211 7271   2.698   0.155   7.739 -0.1245  0.3321  0.1102
   79SLPC  H11R 7272   2.661   0.260   7.739 -1.6135 -0.0996 -2.3974
   79SLPC  H11S 7273   2.806   0.146   7.717 -0.3120 -0.6825 -0.4874
   79SLPC  C212 7274   2.663   0.093   7.875  0.4021 -0.7336  0.0128
   79SLPC  H12R 7275   2.562   0.052   7.886 -0.6060  1.1498 -1.6030
   79SLPC  C213 7276   2.756   0.073   7.972  0.0639 -0.1404 -0.1978
   79SLPC  H13R 7277   2.720   0.026   8.065 -1.5342 -3.9511 -2.5254
   79SLPC  C214 7278   2.899   0.100   7.971  0.0952 -0.8248 -0.5139
   79SLPC  H14R 7279   2.923   0.190   7.910  2.8904 -0.1334  1.3779
   79SLPC  H14S 7280   2.960   0.029   7.912  0.0970 -0.6993 -0.6620
   79SLPC  C215 7281   2.975   0.097   8.099  0.8150  0.0978 -0.2696
   79SLPC  H15R 7282   2.999  -0.011   8.110  1.2645  0.0479 -1.5842
   79SLPC  H15S 7283   2.901   0.129   8.175 -1.5405 -0.0484 -2.3834
   79SLPC  C216 7284   3.099   0.182   8.109 -0.3286 -0.8257  0.1219
   79SLPC  H16R 7285   3.129   0.197   8.214 -0.6975  1.1692 -0.0039
   79SLPC  H16S 7286   3.075   0.288   8.086  0.8053 -0.8022 -1.0771
   79SLPC  C217 7287   3.214   0.134   8.016 -0.0132 -0.0750 -0.1700
   79SLPC  H17R 7288   3.172   0.140   7.913  0.3168 -0.5761 -0.3343
   79SLPC  H17S 7289   3.229   0.031   8.053 -0.1840  0.1093  0.4303
   79SLPC  C218 7290   3.347   0.217   8.021 -0.4612  0.7122 -0.4312
   79SLPC  H18R 7291   3.376   0.251   7.919  2.3373  1.3584  0.4726
   79SLPC  H18S 7292   3.427   0.155   8.065 -2.2314 -1.2062  0.2090
   79SLPC  H18T 7293   3.328   0.303   8.089  1.9883  1.0321 -0.0349
   79SLPC   C33 7294   3.126   0.501   6.949 -0.4673 -0.3604 -0.0141
   79SLPC   H3X 7295   3.135   0.611   6.935  1.1754 -0.6836 -2.0568
   79SLPC   H3Y 7296   3.204   0.477   7.025 -1.2325  0.6928  1.1598
   79SLPC   C34 7297   2.990   0.484   7.025  0.1348  0.7706 -0.0208
   79SLPC   H4X 7298   2.974   0.375   7.038  0.6646  0.6569 -0.2864
   79SLPC   H4Y 7299   2.909   0.519   6.957 -2.1258  1.4202  2.8185
   79SLPC   C35 7300   2.980   0.551   7.162  0.6975 -0.0218  0.4406
   79SLPC   H5X 7301   3.010   0.657   7.147 -1.3779  0.4960 -0.3321
   79SLPC   H5Y 7302   3.047   0.502   7.236  2.6042  1.1015 -0.4588
   79SLPC   C36 7303   2.845   0.550   7.230 -0.1084 -0.0253 -0.7881
   79SLPC   H6X 7304   2.817   0.444   7.212  1.7304 -0.4677 -1.2588
   79SLPC   H6Y 7305   2.771   0.623   7.191  0.3012 -0.3239 -2.1790
   79SLPC   C37 7306   2.855   0.581   7.378 -0.4554  0.2160  0.5580
   79SLPC   H7X 7307   2.915   0.674   7.385 -0.0832 -0.0218  0.5785
   79SLPC   H7Y 7308   2.912   0.503   7.433 -0.0095 -0.3321 -0.6534
   79SLPC   C38 7309   2.715   0.604   7.446  0.0143  0.1130  0.4220
   79SLPC   H8X 7310   2.671   0.502   7.456  0.1287 -0.0488 -0.5850
   79SLPC   H8Y 7311   2.653   0.669   7.381 -2.0871 -2.1100  0.0271
   79SLPC   C39 7312   2.715   0.657   7.593 -0.8355 -0.7000  0.9370
   79SLPC   H9X 7313   2.612   0.695   7.609 -0.7056 -0.1879  0.5579
   79SLPC   H9Y 7314   2.790   0.736   7.612  0.7175 -1.2603 -2.1979
   79SLPC  C310 7315   2.726   0.535   7.686 -0.4520  0.0733 -0.4409
   79SLPC  H10X 7316   2.831   0.501   7.684 -0.7281 -0.7278 -2.0647
   79SLPC  H10Y 7317   2.647   0.464   7.656 -2.5277  2.3162 -0.6614
   79SLPC  C311 7318   2.684   0.568   7.836  0.1363 -0.0771 -0.1357
   79SLPC  H11X 7319   2.575   0.547   7.839  0.5610 -2.8473 -1.1837
   79SLPC  H11Y 7320   2.712   0.669   7.873  1.0125 -0.7410  1.1093
   79SLPC  C312 7321   2.750   0.473   7.936 -0.2286 -0.2231  0.3601
   79SLPC  H12X 7322   2.859   0.482   7.918 -0.4670 -1.4622 -2.1221
   79SLPC  H12Y 7323   2.716   0.371   7.905 -0.7879  0.2350 -0.5793
   79SLPC  C313 7324   2.706   0.518   8.069 -0.5809  0.6810 -0.5792
   79SLPC  H13X 7325   2.597   0.525   8.086 -0.6167  0.4826 -0.7214
   79SLPC  H13Y 7326   2.748   0.618   8.090 -1.1266  1.2024 -1.8787
   79SLPC  C314 7327   2.749   0.398   8.171  0.2874  0.2558  0.9852
   79SLPC  H14X 7328   2.850   0.366   8.139  0.5678  0.1890  1.9265
   79SLPC  H14Y 7329   2.673   0.317   8.161  1.2549 -0.7814  1.7627
   79SLPC  C315 7330   2.739   0.449   8.314  0.7432 -0.7918  0.3777
   79SLPC  H15X 7331   2.762   0.364   8.381  1.7682 -0.0810  0.9623
   79SLPC  H15Y 7332   2.644   0.502   8.333  0.1443 -0.1367 -3.6055
   79SLPC  C316 7333   2.861   0.537   8.356  0.8988  0.2603 -0.5157
   79SLPC  H16X 7334   2.871   0.641   8.322  1.4667  0.4664  0.2487
   79SLPC  H16Y 7335   2.946   0.482   8.311 -1.4040 -4.0710 -0.2127
   79SLPC  C317 7336   2.883   0.531   8.507 -0.4139  0.7968 -0.3981
   79SLPC  H17X 7337   2.987   0.565   8.528 -0.7928  1.6843  0.1160
   79SLPC  H17Y 7338   2.856   0.430   8.544  0.3834  1.4459  2.1932
   79SLPC  C318 7339   2.793   0.620   8.589  0.3491 -0.3892 -0.3763
   79SLPC  H18X 7340   2.688   0.590   8.568  0.7976 -1.3452 -1.3384
   79SLPC  H18Y 7341   2.806   0.728   8.565 -0.8997 -0.6175 -2.3084
   79SLPC  H18Z 7342   2.809   0.605   8.698 -2.7384 -0.9966  0.0782
   80SLPC     N 7343   4.513   4.589   6.293 -0.2480 -0.3636  0.2177
   80SLPC   C13 7344   4.655   4.557   6.321 -0.3415 -0.2837  0.4671
   80SLPC  H13A 7345   4.690   4.498   6.238  1.6216 -2.2913  2.5597
   80SLPC  H13B 7346   4.718   4.644   6.337  1.5708 -1.5478  0.1449
   80SLPC  H13C 7347   4.662   4.482   6.399 -2.4264 -0.5595  0.4507
   80SLPC   C14 7348   4.507   4.686   6.182  0.3189  0.5342  0.7399
   80SLPC  H14A 7349   4.533   4.636   6.090  0.3086  0.5910  0.7059
   80SLPC  H14B 7350   4.413   4.739   6.174  0.6146  1.1644  1.3010
   80SLPC  H14C 7351   4.581   4.764   6.196  0.2266  0.5965  0.8882
   80SLPC   C15 7352   4.451   4.646   6.421 -0.8491  0.5953  0.2581
   80SLPC  H15A 7353   4.485   4.747   6.434 -0.1647  0.3407  0.4554
   80SLPC  H15B 7354   4.343   4.634   6.422 -0.7678 -0.1590  1.0042
   80SLPC  H15C 7355   4.476   4.590   6.510  0.3653  4.8514  2.8565
   80SLPC   C12 7356   4.440   4.466   6.249  0.5949 -0.1487  0.6359
   80SLPC  H12A 7357   4.473   4.379   6.304  1.5927 -1.4260 -1.8462
   80SLPC  H12B 7358   4.477   4.437   6.153  0.1675 -0.0427  0.4358
   80SLPC   C11 7359   4.289   4.458   6.240  0.0922  0.0602 -0.2987
   80SLPC  H11A 7360   4.255   4.377   6.172  0.8794 -1.0025  0.5396
   80SLPC  H11B 7361   4.255   4.554   6.195  0.5740  0.5746  0.4197
   80SLPC     P 7362   4.201   4.305   6.432 -0.3605  0.4039  0.0161
   80SLPC   O13 7363   4.086   4.243   6.361  0.0565 -0.2070 -0.1541
   80SLPC   O14 7364   4.326   4.230   6.437 -0.4474 -0.3359  0.1924
   80SLPC   O12 7365   4.228   4.453   6.375  0.0207  0.8081  0.1176
   80SLPC   O11 7366   4.172   4.335   6.582  0.2770  0.1886  0.3752
   80SLPC    C1 7367   4.197   4.468   6.634  0.2007 -0.5617  0.1499
   80SLPC    HA 7368   4.306   4.484   6.649 -0.4163  3.2820  1.8900
   80SLPC    HB 7369   4.148   4.551   6.578 -1.1950 -1.9705 -0.8060
   80SLPC    C2 7370   4.129   4.482   6.769 -0.4292  0.4067 -1.2761
   80SLPC    HS 7371   4.112   4.591   6.780  0.3980  0.5739 -1.5673
   80SLPC   O21 7372   4.210   4.419   6.866 -0.2279 -0.2670  0.0132
   80SLPC   C21 7373   4.283   4.503   6.929 -0.6529 -0.9371 -0.4858
   80SLPC   O22 7374   4.303   4.622   6.901 -0.0498 -0.5169  0.0032
   80SLPC   C22 7375   4.334   4.450   7.056 -0.2511  0.4612 -0.4166
   80SLPC   H2R 7376   4.336   4.339   7.057  1.1655  0.4091  2.9456
   80SLPC   H2S 7377   4.442   4.477   7.064  0.6121 -2.5256 -0.5823
   80SLPC    C3 7378   3.994   4.401   6.766 -0.8629 -0.0492  0.5532
   80SLPC    HX 7379   4.007   4.294   6.741  2.0080  0.8704 -2.6340
   80SLPC    HY 7380   3.932   4.444   6.684 -0.2635 -0.0032  0.1226
   80SLPC   O31 7381   3.922   4.417   6.888 -0.3350  0.4283 -0.4424
   80SLPC   C31 7382   3.862   4.530   6.910 -0.4664 -0.4388 -0.0492
   80SLPC   O32 7383   3.837   4.617   6.827 -0.4654 -0.1789  0.3184
   80SLPC   C32 7384   3.821   4.535   7.057 -0.5695 -0.6859  0.3253
   80SLPC   H2X 7385   3.909   4.576   7.113  1.4336 -3.4097 -0.6186
   80SLPC   H2Y 7386   3.804   4.431   7.093 -1.4268  0.1291  2.4858
   80SLPC   C23 7387   4.251   4.492   7.185  0.2115 -0.0952  0.0056
   80SLPC   H3R 7388   4.244   4.602   7.190 -1.6158 -0.1726  0.0043
   80SLPC   H3S 7389   4.312   4.451   7.268  1.6815 -1.7275 -1.7785
   80SLPC   C24 7390   4.121   4.411   7.200  0.1047  0.2567 -0.2432
   80SLPC   H4R 7391   4.153   4.308   7.224 -0.3968  0.6011  2.1902
   80SLPC   H4S 7392   4.060   4.404   7.108 -0.6177 -1.1882  0.3108
   80SLPC   C25 7393   4.031   4.454   7.322 -0.4961  0.0604 -0.1920
   80SLPC   H5R 7394   3.928   4.413   7.307 -1.9312  2.4608  2.2276
   80SLPC   H5S 7395   4.028   4.565   7.327  1.4207  0.1560 -0.5474
   80SLPC   C26 7396   4.086   4.400   7.457 -0.0262 -0.1084  0.2958
   80SLPC   H6R 7397   4.179   4.452   7.488 -0.5475 -0.6958  3.0482
   80SLPC   H6S 7398   4.093   4.289   7.448 -2.2842 -0.2238 -0.6874
   80SLPC   C27 7399   3.986   4.425   7.571  0.4397 -0.3646  0.0020
   80SLPC   H7R 7400   3.897   4.358   7.573  1.0649 -1.2882  2.9454
   80SLPC   H7S 7401   3.954   4.529   7.550 -0.0931 -0.7561 -1.2218
   80SLPC   C28 7402   4.059   4.446   7.711  0.1420 -0.3494 -0.3139
   80SLPC   H8R 7403   4.134   4.528   7.704  0.2230 -0.5042 -1.4849
   80SLPC   H8S 7404   4.111   4.351   7.735  0.2026 -0.4378 -0.7702
   80SLPC   C29 7405   3.958   4.485   7.817  0.3486 -0.2558 -0.2632
   80SLPC   H9R 7406   3.878   4.549   7.777 -0.9886 -1.5270  0.2707
   80SLPC  C210 7407   3.967   4.459   7.947  1.1889 -0.4371 -0.4365
   80SLPC  H10R 7408   3.891   4.498   8.015  1.5121 -3.3375  1.7952
   80SLPC  C211 7409   4.072   4.371   8.012  0.8612  0.1583 -0.0947
   80SLPC  H11R 7410   4.106   4.435   8.096 -1.2645  0.0102  0.9422
   80SLPC  H11S 7411   4.154   4.356   7.939 -1.9552 -1.1384 -3.3100
   80SLPC  C212 7412   4.017   4.240   8.065 -0.4357 -0.0751  0.4996
   80SLPC  H12R 7413   3.919   4.213   8.023 -0.4454  0.9306 -0.1486
   80SLPC  C213 7414   4.064   4.167   8.162 -0.0971  0.1567 -0.3761
   80SLPC  H13R 7415   4.022   4.068   8.183 -0.3755  0.1265 -1.0408
   80SLPC  C214 7416   4.193   4.201   8.240  0.1122 -0.3352 -0.1256
   80SLPC  H14R 7417   4.174   4.200   8.350  0.1605  1.4953 -0.0743
   80SLPC  H14S 7418   4.237   4.302   8.226 -0.1678 -0.3386 -1.0794
   80SLPC  C215 7419   4.310   4.098   8.224  0.0660  0.0104 -0.6207
   80SLPC  H15R 7420   4.341   4.081   8.119 -2.2796  0.1554 -1.3893
   80SLPC  H15S 7421   4.259   4.007   8.262  1.2214 -0.1087  0.7447
   80SLPC  C216 7422   4.426   4.119   8.320  0.5407  0.5387 -0.2924
   80SLPC  H16R 7423   4.378   4.154   8.414  1.0158  0.7525 -0.1281
   80SLPC  H16S 7424   4.492   4.199   8.281 -0.2755  2.0978  1.4025
   80SLPC  C217 7425   4.500   3.993   8.357  0.1574 -0.0704  1.1881
   80SLPC  H17R 7426   4.539   3.944   8.265  0.0098  2.6369 -0.4095
   80SLPC  H17S 7427   4.428   3.916   8.391 -1.1944  0.3847 -0.5236
   80SLPC  C218 7428   4.607   3.993   8.461  0.4309 -0.4057 -0.2451
   80SLPC  H18R 7429   4.575   4.061   8.543  0.0581 -0.5591 -0.2578
   80SLPC  H18S 7430   4.700   4.038   8.421 -0.6205 -0.5384 -3.0499
   80SLPC  H18T 7431   4.630   3.897   8.512  0.7201 -0.6103 -0.7638
   80SLPC   C33 7432   3.689   4.608   7.087 -0.6186  0.0653 -0.0561
   80SLPC   H3X 7433   3.604   4.594   7.017 -0.1501 -1.8797 -0.3076
   80SLPC   H3Y 7434   3.725   4.713   7.082  1.2781 -0.5770 -0.7627
   80SLPC   C34 7435   3.629   4.570   7.223 -0.6304  0.0351  0.0661
   80SLPC   H4X 7436   3.708   4.569   7.301 -0.6687 -2.4435  0.1352
   80SLPC   H4Y 7437   3.586   4.468   7.219 -1.1650  0.2875 -0.6413
   80SLPC   C35 7438   3.531   4.666   7.275 -0.0023 -0.0879  0.5939
   80SLPC   H5X 7439   3.452   4.696   7.202  1.7974  0.8598 -1.0798
   80SLPC   H5Y 7440   3.584   4.763   7.288 -0.9684  0.5748 -0.2280
   80SLPC   C36 7441   3.459   4.618   7.398  0.6976  0.2888  0.2582
   80SLPC   H6X 7442   3.399   4.529   7.371  0.8321  0.2121  0.2089
   80SLPC   H6Y 7443   3.388   4.701   7.417 -1.9418 -1.1414 -2.4833
   80SLPC   C37 7444   3.548   4.600   7.522  0.8476  0.5250  0.2674
   80SLPC   H7X 7445   3.612   4.691   7.524 -3.0229  3.5737 -1.8644
   80SLPC   H7Y 7446   3.614   4.513   7.500 -0.0760 -0.0883 -0.1270
   80SLPC   C38 7447   3.473   4.581   7.653 -0.5046 -0.6807 -0.7614
   80SLPC   H8X 7448   3.399   4.500   7.635 -3.6577  1.4448  1.7002
   80SLPC   H8Y 7449   3.410   4.672   7.665  0.5224  0.4867 -3.3608
   80SLPC   C39 7450   3.567   4.545   7.769 -0.2291 -0.4716  0.5186
   80SLPC   H9X 7451   3.634   4.630   7.797 -1.5119 -0.2357  3.1246
   80SLPC   H9Y 7452   3.633   4.463   7.732 -2.1715 -2.5081  1.4187
   80SLPC  C310 7453   3.488   4.500   7.888  0.0580 -0.2576  0.3733
   80SLPC  H10X 7454   3.419   4.416   7.863  2.5633 -2.1883 -0.5363
   80SLPC  H10Y 7455   3.424   4.579   7.931 -0.6497 -0.6170  0.0033
   80SLPC  C311 7456   3.583   4.459   8.008  0.6419  0.0506  0.6517
   80SLPC  H11X 7457   3.622   4.553   8.052  1.0119 -0.0085  0.4531
   80SLPC  H11Y 7458   3.663   4.402   7.957 -1.0019 -1.8837  0.0862
   80SLPC  C312 7459   3.511   4.357   8.097  0.2273 -0.3176 -0.2437
   80SLPC  H12X 7460   3.514   4.261   8.041  2.0171  0.2872 -1.2401
   80SLPC  H12Y 7461   3.411   4.392   8.130  0.2710 -2.6985  2.7985
   80SLPC  C313 7462   3.583   4.345   8.231  0.2289  0.1534  0.4804
   80SLPC  H13X 7463   3.594   4.447   8.274  3.1094  0.9728 -1.8270
   80SLPC  H13Y 7464   3.686   4.304   8.222 -0.8099 -2.2552 -1.2253
   80SLPC  C314 7465   3.517   4.236   8.324 -0.7270  0.1943  0.1808
   80SLPC  H14X 7466   3.548   4.135   8.290 -3.8128 -0.2147 -1.7587
   80SLPC  H14Y 7467   3.407   4.233   8.308 -0.5907 -1.8001 -0.6885
   80SLPC  C315 7468   3.566   4.253   8.473 -0.9674  0.1331  0.1483
   80SLPC  H15X 7469   3.526   4.161   8.519 -1.5520 -0.9536 -2.3663
   80SLPC  H15Y 7470   3.524   4.343   8.524  1.5750  0.3693  2.0211
   80SLPC  C316 7471   3.716   4.246   8.511 -0.0686 -0.5634 -0.1789
   80SLPC  H16X 7472   3.723   4.257   8.622 -0.0003  1.0145 -0.3175
   80SLPC  H16Y 7473   3.774   4.331   8.470  0.8025 -0.7688  0.5824
   80SLPC  C317 7474   3.780   4.123   8.463  0.0353 -0.2438  0.6557
   80SLPC  H17X 7475   3.805   4.137   8.356  1.3365 -1.0626  0.8350
   80SLPC  H17Y 7476   3.718   4.032   8.480 -0.4605  0.2096  1.3498
   80SLPC  C318 7477   3.911   4.087   8.535 -0.2397 -0.0810  0.0564
   80SLPC  H18X 7478   3.934   3.983   8.505  1.1119 -0.3220  1.7366
   80SLPC  H18Y 7479   3.899   4.086   8.645 -0.4693 -1.5758  0.0323
   80SLPC  H18Z 7480   3.992   4.158   8.505 -2.5602  1.7842 -2.2710
   81SAPS     N 7481   4.397   1.153  11.167  0.1361  0.2668 -0.0541
   81SAPS   HN1 7482   4.491   1.116  11.193  1.2980  1.5825 -2.1180
   81SAPS   HN2 7483   4.385   1.102  11.077  1.1737 -0.9944  0.4814
   81SAPS   HN3 7484   4.408   1.252  11.137 -0.7095  1.2996  2.7392
   81SAPS   C12 7485   4.293   1.155  11.266  0.0588  0.2648  0.2709
   81SAPS  H12A 7486   4.287   1.052  11.298 -0.4689 -0.7505 -2.7048
   81SAPS   C13 7487   4.324   1.240  11.382 -0.5704 -0.2703 -0.4034
   81SAPS  O13A 7488   4.440   1.297  11.397  0.3563  0.0819 -0.6544
   81SAPS  O13B 7489   4.243   1.234  11.479  0.4714  0.4607 -0.5465
   81SAPS   C11 7490   4.156   1.202  11.203  0.7380  0.0749  0.1272
   81SAPS  H11A 7491   4.157   1.311  11.181 -1.8216  0.2276  0.4404
   81SAPS  H11B 7492   4.064   1.199  11.266  0.1050  3.2498 -0.4796
   81SAPS     P 7493   4.021   1.150  10.969 -0.3033  0.1238  0.0995
   81SAPS   O13 7494   3.895   1.162  11.048 -0.3272  0.4170  0.5753
   81SAPS   O14 7495   4.066   1.266  10.887  0.3559  0.0760  0.6096
   81SAPS   O12 7496   4.136   1.117  11.081 -0.0914  0.6166 -0.8197
   81SAPS   O11 7497   4.016   1.021  10.884 -0.0493 -0.2781 -0.4997
   81SAPS    C1 7498   4.114   1.003  10.780 -0.0959 -0.0887 -0.5021
   81SAPS    HA 7499   4.200   1.074  10.790  1.0669 -1.1411 -2.3993
   81SAPS    HB 7500   4.154   0.900  10.787  0.7077  0.2574  0.3404
   81SAPS    C2 7501   4.060   1.016  10.631 -0.4539 -1.0280 -0.4474
   81SAPS    HS 7502   3.977   1.089  10.645 -0.5285 -0.8600 -1.6851
   81SAPS   O21 7503   4.012   0.888  10.595  0.2098  0.0887  0.2011
   81SAPS   C21 7504   3.908   0.879  10.527  0.2653 -0.3487  0.2583
   81SAPS   O22 7505   3.822   0.958  10.497 -0.6897 -0.4245 -0.5621
   81SAPS   C22 7506   3.906   0.726  10.478 -0.3534 -0.7319 -0.2679
   81SAPS   H2R 7507   4.006   0.686  10.455  1.1002  1.8104  1.1554
   81SAPS   H2S 7508   3.862   0.673  10.565  0.0127  1.2957  1.2208
   81SAPS    C3 7509   4.174   1.079  10.543 -0.1897 -0.1511 -0.2791
   81SAPS    HX 7510   4.266   1.019  10.561 -0.9221 -0.7295  1.8427
   81SAPS    HY 7511   4.200   1.173  10.595 -1.0265 -1.0848  1.9492
   81SAPS   O31 7512   4.135   1.121  10.413 -0.1463 -0.6407  0.5749
   81SAPS   C31 7513   4.206   1.065  10.312 -0.5631  0.5616 -0.2031
   81SAPS   O32 7514   4.291   0.976  10.331  0.1241 -0.7381 -0.3576
   81SAPS   C32 7515   4.167   1.130  10.179 -0.2131 -0.2113  0.2047
   81SAPS   H2X 7516   4.156   1.239  10.198  0.1095 -0.4489  2.0228
   81SAPS   H2Y 7517   4.067   1.086  10.160 -1.0290  0.5434  2.4473
   81SAPS   C23 7518   3.801   0.696  10.365 -0.3437 -0.3610 -0.5431
   81SAPS   H3R 7519   3.815   0.764  10.278 -2.3846  0.2775 -0.4342
   81SAPS   H3S 7520   3.697   0.725  10.391 -0.2705  0.3587 -1.0185
   81SAPS   C24 7521   3.818   0.548  10.309 -0.9015  0.2731 -0.5577
   81SAPS   H4R 7522   3.775   0.475  10.381 -1.2340  0.1275 -0.8965
   81SAPS   H4S 7523   3.927   0.528  10.307 -0.5122  2.1451 -0.1121
   81SAPS   C25 7524   3.749   0.526  10.173 -0.5994 -0.0991 -0.6267
   81SAPS   H5R 7525   3.639   0.528  10.177 -0.6274 -0.0481 -1.3320
   81SAPS   C26 7526   3.807   0.520  10.054  0.0025 -0.7078  0.2012
   81SAPS   H6R 7527   3.743   0.490   9.969 -0.9348  1.3219  0.1305
   81SAPS   C27 7528   3.955   0.522  10.024  0.6479  0.3740  0.0042
   81SAPS   H7R 7529   3.977   0.453   9.941 -2.6405 -0.6667 -0.1429
   81SAPS   H7S 7530   4.008   0.466  10.104 -0.9733 -1.0164  0.1437
   81SAPS   C28 7531   4.014   0.665  10.011 -0.8070 -0.2798 -0.1972
   81SAPS   H8R 7532   4.041   0.707  10.109  0.4989  0.5767 -0.9080
   81SAPS   C29 7533   4.034   0.731   9.900 -0.2175 -0.6274  0.5269
   81SAPS   H9R 7534   4.088   0.827   9.905  0.4291 -0.9559  0.1085
   81SAPS  C210 7535   3.996   0.683   9.763 -0.0088  0.0604 -0.6629
   81SAPS  H10R 7536   3.929   0.764   9.727  0.4403  1.2107  0.9231
   81SAPS  H10S 7537   3.931   0.594   9.761  2.9611 -2.2824 -0.7141
   81SAPS  C211 7538   4.112   0.654   9.675  0.1162  0.2498  0.4691
   81SAPS  H11R 7539   4.203   0.617   9.724  0.0255  0.9186  1.1686
   81SAPS  C212 7540   4.119   0.657   9.545 -0.7326  0.7613  0.5278
   81SAPS  H12R 7541   4.211   0.624   9.494 -0.7637  1.7192 -0.1661
   81SAPS  C213 7542   4.012   0.703   9.447 -0.5116  0.6340 -0.1846
   81SAPS  H13R 7543   4.062   0.774   9.377 -0.7583  2.7942  1.6911
   81SAPS  H13S 7544   3.937   0.767   9.499  0.7865  1.9893  0.0913
   81SAPS  C214 7545   3.945   0.600   9.366  0.1451  0.0860 -0.7298
   81SAPS  H14R 7546   3.840   0.590   9.398  0.6441  0.6084  1.2580
   81SAPS  C215 7547   3.991   0.533   9.258  0.0671 -0.7278 -0.5718
   81SAPS  H15R 7548   3.921   0.463   9.209 -0.4440 -0.2762 -0.4956
   81SAPS  C216 7549   4.120   0.563   9.192 -0.1711  0.1615 -0.5163
   81SAPS  H16R 7550   4.191   0.480   9.210 -0.5521  0.1641  1.1629
   81SAPS  H16S 7551   4.177   0.650   9.232  1.6283 -1.1936 -0.0252
   81SAPS  C217 7552   4.095   0.576   9.042  0.1016 -0.6492  0.1516
   81SAPS  H17R 7553   4.016   0.646   9.009 -1.2017 -2.5517 -0.9490
   81SAPS  H17S 7554   4.043   0.484   9.007 -1.4670  0.5865 -0.9327
   81SAPS  C218 7555   4.219   0.620   8.966 -0.0607  0.1527 -0.6038
   81SAPS  H18R 7556   4.291   0.536   8.978 -2.1006 -1.4907  1.0983
   81SAPS  H18S 7557   4.262   0.714   9.006  1.3109 -0.6620 -0.0934
   81SAPS  C219 7558   4.196   0.634   8.814  0.3625 -0.2806  0.6002
   81SAPS  H19R 7559   4.286   0.683   8.771  0.1119  0.2765  0.6980
   81SAPS  H19S 7560   4.108   0.699   8.792  0.1491 -0.3727  1.1494
   81SAPS  C220 7561   4.159   0.497   8.745  0.0246  0.5901 -0.1594
   81SAPS  H20R 7562   4.065   0.459   8.791  0.8479 -3.2752 -1.3422
   81SAPS  H20S 7563   4.237   0.420   8.762 -0.1037  0.9320  2.4563
   81SAPS  H20T 7564   4.149   0.502   8.635  1.6737 -2.2352 -0.5073
   81SAPS   C33 7565   4.257   1.087  10.065  0.2471 -0.2110  0.8742
   81SAPS   H3X 7566   4.302   0.986  10.074 -1.5208 -1.3351 -1.7083
   81SAPS   H3Y 7567   4.341   1.158  10.048 -0.4303  0.1400 -1.3761
   81SAPS   C34 7568   4.175   1.079   9.937 -0.3121  0.3729 -0.3372
   81SAPS   H4X 7569   4.141   1.182   9.912  0.3438  0.7836  0.4079
   81SAPS   H4Y 7570   4.084   1.016   9.943 -2.1200  2.9536  2.1727
   81SAPS   C35 7571   4.262   1.034   9.818 -0.2449  0.5208  0.5914
   81SAPS   H5X 7572   4.305   0.932   9.833 -2.7950 -0.6298  0.6745
   81SAPS   H5Y 7573   4.339   1.113   9.814 -0.1685  0.4126 -0.3585
   81SAPS   C36 7574   4.187   1.016   9.680 -0.2932 -0.3025  0.1697
   81SAPS   H6X 7575   4.078   1.005   9.700 -0.3317 -0.1000  0.0746
   81SAPS   H6Y 7576   4.231   0.929   9.628  0.1014  0.7559 -1.3199
   81SAPS   C37 7577   4.211   1.137   9.587  0.0396 -0.7982 -0.4056
   81SAPS   H7X 7578   4.320   1.159   9.597 -0.2271  1.9638 -2.3605
   81SAPS   H7Y 7579   4.153   1.220   9.633  2.6797  2.3868 -2.3885
   81SAPS   C38 7580   4.164   1.122   9.445  0.4082  0.4811 -0.0557
   81SAPS   H8X 7581   4.165   1.213   9.381 -2.2361  0.4356 -0.2948
   81SAPS   H8Y 7582   4.055   1.099   9.455  0.8304 -2.0010 -0.4349
   81SAPS   C39 7583   4.240   1.011   9.374  0.5160  0.1337  0.6369
   81SAPS   H9X 7584   4.240   0.914   9.428  0.5043  0.1083  0.5916
   81SAPS   H9Y 7585   4.347   1.041   9.381  0.6031 -0.2607  1.0854
   81SAPS  C310 7586   4.207   0.989   9.219 -0.5869 -0.2606 -0.1375
   81SAPS  H10X 7587   4.265   0.901   9.183 -0.1245 -0.4660  1.0656
   81SAPS  H10Y 7588   4.263   1.072   9.171  0.9723 -0.8434  0.5942
   81SAPS  C311 7589   4.070   0.983   9.176  0.7711 -0.1515 -0.1255
   81SAPS  H11X 7590   4.013   1.076   9.200 -2.1326 -2.0742  0.9397
   81SAPS  H11Y 7591   4.013   0.901   9.226  0.5524  0.6191  0.9386
   81SAPS  C312 7592   4.043   0.968   9.023 -0.1375 -0.1336  1.0885
   81SAPS  H12X 7593   4.095   0.875   8.990 -1.0645 -0.2866  0.0012
   81SAPS  H12Y 7594   4.086   1.051   8.963 -1.7077 -0.0667  0.0036
   81SAPS  C313 7595   3.897   0.963   8.993 -0.2820  0.4345 -0.8544
   81SAPS  H13X 7596   3.858   1.064   9.016 -0.8425  0.0430 -0.0342
   81SAPS  H13Y 7597   3.839   0.890   9.054 -0.2670  0.7803 -0.4247
   81SAPS  C314 7598   3.865   0.922   8.849  0.2550 -0.6005  0.2496
   81SAPS  H14X 7599   3.966   0.922   8.802  0.1369  0.9232 -0.0402
   81SAPS  H14Y 7600   3.810   1.002   8.795  1.1453 -0.6851 -0.8148
   81SAPS  C315 7601   3.803   0.785   8.829  0.1458 -0.2649  0.0196
   81SAPS  H15X 7602   3.702   0.789   8.875  0.7593 -1.1128  1.4896
   81SAPS  H15Y 7603   3.854   0.713   8.896  0.1557  1.4522  1.9476
   81SAPS  C316 7604   3.809   0.739   8.686 -0.2528  0.6066  0.1090
   81SAPS  H16X 7605   3.912   0.712   8.657 -0.9245 -1.0324 -0.8761
   81SAPS  H16Y 7606   3.772   0.823   8.623  0.3832 -0.9678 -2.4922
   81SAPS  C317 7607   3.713   0.625   8.649 -0.4410 -0.0063 -0.2333
   81SAPS  H17X 7608   3.736   0.620   8.540 -1.0014 -0.0027 -0.3541
   81SAPS  H17Y 7609   3.608   0.658   8.661 -0.6106 -1.5458  4.1492
   81SAPS  C318 7610   3.730   0.492   8.728 -0.1635  0.3541  0.8085
   81SAPS  H18X 7611   3.734   0.508   8.838 -0.1236  0.0380  0.8555
   81SAPS  H18Y 7612   3.833   0.459   8.704 -0.4831  0.5535 -0.9586
   81SAPS  H18Z 7613   3.653   0.418   8.697  1.1961 -1.7051  2.0799
   82SAPS     N 7614   2.980   6.130  10.974 -0.7012  0.6043  0.2830
   82SAPS   HN1 7615   2.917   6.212  10.970 -0.7412  0.5277 -2.4263
   82SAPS   HN2 7616   3.072   6.156  11.015 -0.0010 -0.1317 -0.7803
   82SAPS   HN3 7617   3.000   6.110  10.874  3.9378 -0.6809  1.2352
   82SAPS   C12 7618   2.929   6.003  11.033  0.2762  0.2339  0.1466
   82SAPS  H12A 7619   2.979   5.920  10.984 -0.1330  0.3283 -0.4480
   82SAPS   C13 7620   2.940   5.985  11.185 -0.7961 -0.3912  0.5858
   82SAPS  O13A 7621   2.989   6.085  11.245 -0.0675  0.2180 -0.1021
   82SAPS  O13B 7622   2.891   5.887  11.246  0.0339 -0.4355  0.1862
   82SAPS   C11 7623   2.783   5.993  10.986 -0.1829 -0.4930 -0.0360
   82SAPS  H11A 7624   2.718   6.060  11.046  0.4847  0.3667 -0.2417
   82SAPS  H11B 7625   2.752   5.895  11.027 -0.8798  0.7057  2.5306
   82SAPS     P 7626   2.629   5.992  10.787 -0.8208 -0.3804 -0.5004
   82SAPS   O13 7627   2.599   5.853  10.802 -0.1852  0.2886  0.0142
   82SAPS   O14 7628   2.544   6.095  10.853  0.6723 -0.0587  0.9895
   82SAPS   O12 7629   2.773   6.012  10.844  0.6675  0.1142 -0.4087
   82SAPS   O11 7630   2.652   6.032  10.632  0.7890 -0.0392  0.7999
   82SAPS    C1 7631   2.767   5.988  10.563 -0.3360  0.6823 -0.1343
   82SAPS    HA 7632   2.857   5.999  10.627 -0.5336  0.0902  0.2464
   82SAPS    HB 7633   2.759   5.882  10.532  1.3670  0.4566  0.1063
   82SAPS    C2 7634   2.794   6.092  10.447 -0.4156  0.3181  0.4239
   82SAPS    HS 7635   2.781   6.193  10.491 -2.3572  1.3152 -2.1760
   82SAPS   O21 7636   2.700   6.065  10.339  0.6746 -0.2143  0.8981
   82SAPS   C21 7637   2.593   6.132  10.348  0.7895  0.0185  0.5003
   82SAPS   O22 7638   2.574   6.229  10.416 -0.0196 -0.1591  0.3700
   82SAPS   C22 7639   2.484   6.080  10.250  0.7607  0.2272  0.3271
   82SAPS   H2R 7640   2.524   6.059  10.148 -2.2727 -0.0175 -0.9152
   82SAPS   H2S 7641   2.456   5.986  10.301  2.6388 -1.2274 -1.1381
   82SAPS    C3 7642   2.943   6.075  10.409  0.0375 -1.3772 -0.1869
   82SAPS    HX 7643   2.968   5.969  10.388  1.4831 -2.0624  4.0303
   82SAPS    HY 7644   2.999   6.106  10.500  0.1514 -1.5183 -0.2086
   82SAPS   O31 7645   2.970   6.167  10.298  0.2127 -0.5351 -0.3314
   82SAPS   C31 7646   3.102   6.189  10.283  0.2755 -0.1702  0.2477
   82SAPS   O32 7647   3.191   6.160  10.358 -0.7009 -0.5006 -0.5759
   82SAPS   C32 7648   3.123   6.244  10.148 -0.4212 -0.5724  0.0737
   82SAPS   H2X 7649   3.210   6.312  10.157 -0.4356 -0.5997  0.4110
   82SAPS   H2Y 7650   3.037   6.298  10.103 -1.3467 -2.6523 -0.8014
   82SAPS   C23 7651   2.375   6.185  10.216  0.0218  0.0379 -0.1216
   82SAPS   H3R 7652   2.428   6.282  10.207  0.8776 -0.1513  2.1390
   82SAPS   H3S 7653   2.304   6.194  10.301  0.8306  1.6544  0.4126
   82SAPS   C24 7654   2.295   6.163  10.089  0.6002  1.0921 -0.1834
   82SAPS   H4R 7655   2.364   6.154  10.002  0.1101 -1.9733 -0.3784
   82SAPS   H4S 7656   2.223   6.242  10.060 -0.0115  0.2639 -0.9572
   82SAPS   C25 7657   2.202   6.037  10.102 -0.1595  0.1193  0.2405
   82SAPS   H5R 7658   2.107   6.039  10.157 -1.3012 -2.6547 -1.4150
   82SAPS   C26 7659   2.209   5.920  10.033  0.4111  0.2064  1.1006
   82SAPS   H6R 7660   2.143   5.834  10.051 -0.5979  0.6570 -0.2483
   82SAPS   C27 7661   2.314   5.897   9.927  0.1441  0.4043  0.3782
   82SAPS   H7R 7662   2.414   5.876   9.970 -0.7252 -2.1054  1.3133
   82SAPS   H7S 7663   2.332   5.991   9.870 -0.6156  0.8512  0.8568
   82SAPS   C28 7664   2.275   5.787   9.832 -0.4029 -0.0858 -0.0303
   82SAPS   H8R 7665   2.166   5.771   9.822 -0.6009  1.2526 -0.2766
   82SAPS   C29 7666   2.357   5.711   9.759 -0.2048 -0.0218 -0.2520
   82SAPS   H9R 7667   2.315   5.627   9.702 -0.1329  0.1493 -0.5618
   82SAPS  C210 7668   2.502   5.707   9.739  0.4638  0.8224  0.2459
   82SAPS  H10R 7669   2.551   5.627   9.800  0.0286  0.0041 -0.4636
   82SAPS  H10S 7670   2.545   5.804   9.773 -0.1528  1.2660 -0.2383
   82SAPS  C211 7671   2.546   5.703   9.593 -0.0048  0.2152 -0.2841
   82SAPS  H11R 7672   2.486   5.770   9.529 -0.7037 -0.0574  0.0708
   82SAPS  C212 7673   2.653   5.638   9.546 -0.4877 -0.7720 -0.4109
   82SAPS  H12R 7674   2.673   5.637   9.437 -3.2117  0.2137 -1.0154
   82SAPS  C213 7675   2.731   5.539   9.625  0.2253  0.4131  0.2338
   82SAPS  H13R 7676   2.764   5.575   9.725  1.2168 -0.2505  0.1657
   82SAPS  H13S 7677   2.814   5.507   9.558  1.7806  0.2144  2.1627
   82SAPS  C214 7678   2.647   5.413   9.646  0.4476  0.0729  0.1682
   82SAPS  H14R 7679   2.538   5.416   9.634  0.1535  0.1526  2.4659
   82SAPS  C215 7680   2.697   5.292   9.651  0.4375 -0.0278 -0.0972
   82SAPS  H15R 7681   2.629   5.206   9.656 -0.2200  0.5252  0.6743
   82SAPS  C216 7682   2.845   5.257   9.655  0.1491  0.2011 -0.0852
   82SAPS  H16R 7683   2.860   5.181   9.735 -2.4853 -0.8332 -0.4673
   82SAPS  H16S 7684   2.899   5.351   9.678  0.5631 -0.4693  1.8550
   82SAPS  C217 7685   2.902   5.183   9.534  0.1245  0.7299 -0.6848
   82SAPS  H17R 7686   2.834   5.096   9.527  0.7413 -0.0478  1.8411
   82SAPS  H17S 7687   3.008   5.158   9.557  0.2780  0.8267 -1.2549
   82SAPS  C218 7688   2.893   5.276   9.417  0.2815  0.1942  0.1402
   82SAPS  H18R 7689   2.988   5.331   9.398 -0.1571  1.2199  0.9199
   82SAPS  H18S 7690   2.802   5.339   9.422 -1.0043 -1.1523 -3.0676
   82SAPS  C219 7691   2.863   5.188   9.298 -0.0200 -0.1597  0.1906
   82SAPS  H19R 7692   2.861   5.247   9.204 -2.3820  0.4675  0.5489
   82SAPS  H19S 7693   2.765   5.136   9.307 -0.3240 -0.2845 -2.9319
   82SAPS  C220 7694   2.939   5.060   9.273 -0.6248 -0.0530  0.1207
   82SAPS  H20R 7695   2.900   5.008   9.183 -3.4028 -0.4645  1.4661
   82SAPS  H20S 7696   2.944   4.984   9.353  2.7206  1.0376  1.1355
   82SAPS  H20T 7697   3.046   5.086   9.253 -1.0717  2.3440  0.5657
   82SAPS   C33 7698   3.162   6.134  10.049 -0.4772  0.0130  0.7149
   82SAPS   H3X 7699   3.092   6.093   9.974  0.3330 -0.4508  0.1850
   82SAPS   H3Y 7700   3.192   6.052  10.119 -1.7677  1.0778  2.6075
   82SAPS   C34 7701   3.287   6.173   9.967 -0.7567 -0.3354 -0.1016
   82SAPS   H4X 7702   3.354   6.239  10.026 -0.2028  2.0580 -3.2070
   82SAPS   H4Y 7703   3.258   6.246   9.889 -1.0135 -0.0697  0.2376
   82SAPS   C35 7704   3.366   6.061   9.910  0.7495 -0.3268  0.2551
   82SAPS   H5X 7705   3.379   5.983   9.989 -0.9898  0.5311  1.4609
   82SAPS   H5Y 7706   3.466   6.109   9.898 -0.1665  1.4414 -0.6417
   82SAPS   C36 7707   3.330   6.010   9.769  0.4917 -0.2889  0.8989
   82SAPS   H6X 7708   3.220   6.008   9.750  0.4570  0.0269  1.0596
   82SAPS   H6Y 7709   3.363   5.905   9.752  1.8728  0.6528 -3.3765
   82SAPS   C37 7710   3.399   6.109   9.664 -0.0720 -0.3504 -0.0014
   82SAPS   H7X 7711   3.506   6.096   9.689 -0.2999 -0.4078  0.9809
   82SAPS   H7Y 7712   3.367   6.214   9.676  0.5936 -0.2004  0.5224
   82SAPS   C38 7713   3.365   6.082   9.513  0.2468  0.3989  0.8969
   82SAPS   H8X 7714   3.362   5.972   9.502 -1.1497  0.2886  2.1048
   82SAPS   H8Y 7715   3.447   6.129   9.454  2.4537 -1.4849  2.2911
   82SAPS   C39 7716   3.231   6.139   9.467 -0.3265 -0.7306  0.3869
   82SAPS   H9X 7717   3.229   6.241   9.508 -0.2222 -0.4829 -0.2078
   82SAPS   H9Y 7718   3.145   6.085   9.511  0.2913  0.1776  2.8420
   82SAPS  C310 7719   3.213   6.140   9.313 -0.1554 -0.5636 -0.2093
   82SAPS  H10X 7720   3.223   6.037   9.272 -3.8582 -1.5117  0.9068
   82SAPS  H10Y 7721   3.299   6.191   9.265  0.5293 -1.1479  0.3724
   82SAPS  C311 7722   3.078   6.189   9.270  0.0865 -0.3121 -0.0789
   82SAPS  H11X 7723   3.067   6.288   9.319 -0.6955 -1.0050  1.1679
   82SAPS  H11Y 7724   3.006   6.127   9.327 -0.5618  1.8978  1.6480
   82SAPS  C312 7725   3.066   6.201   9.115  0.0194 -0.2641  0.3354
   82SAPS  H12X 7726   2.963   6.229   9.085  0.0091  0.2019  0.7999
   82SAPS  H12Y 7727   3.087   6.100   9.075  2.2404 -0.9985  3.0715
   82SAPS  C313 7728   3.155   6.304   9.043  0.2586  0.4158 -0.1469
   82SAPS  H13X 7729   3.259   6.268   9.059  0.8401  2.2362  0.4532
   82SAPS  H13Y 7730   3.125   6.404   9.081 -2.3955  0.3174 -1.7544
   82SAPS  C314 7731   3.134   6.318   8.891 -0.1918 -0.2452  0.0024
   82SAPS  H14X 7732   3.115   6.218   8.846  1.3542 -1.1053  1.1979
   82SAPS  H14Y 7733   3.230   6.353   8.848  0.3223  0.4576  1.6605
   82SAPS  C315 7734   3.016   6.412   8.852 -0.9523  0.2082  0.3191
   82SAPS  H15X 7735   3.035   6.515   8.887  3.8072 -0.0962 -0.6410
   82SAPS  H15Y 7736   2.929   6.371   8.908 -3.2508  0.7301 -2.6028
   82SAPS  C316 7737   2.982   6.407   8.698 -0.0716 -0.2501 -0.7346
   82SAPS  H16X 7738   3.061   6.464   8.646  1.6721  1.0266  2.9392
   82SAPS  H16Y 7739   2.882   6.455   8.694 -0.2024 -0.3859  0.3830
   82SAPS  C317 7740   2.963   6.258   8.645 -0.1761  0.1129 -0.1624
   82SAPS  H17X 7741   3.064   6.213   8.637  0.1260 -0.0449  3.2120
   82SAPS  H17Y 7742   2.911   6.265   8.547  1.7178  0.8904 -1.1626
   82SAPS  C318 7743   2.873   6.184   8.736  0.5475 -0.0714  0.2790
   82SAPS  H18X 7744   2.794   6.242   8.789  1.4394  0.2486  1.2954
   82SAPS  H18Y 7745   2.924   6.118   8.810  0.8612  0.0924  0.2092
   82SAPS  H18Z 7746   2.811   6.123   8.667  0.5931  1.6069 -1.2982
   83SAPS     N 7747   4.402   1.566  11.426  0.1385  0.2092 -0.0226
   83SAPS   HN1 7748   4.396   1.462  11.425 -2.4571  0.3075  0.1355
   83SAPS   HN2 7749   4.376   1.585  11.525  0.5723 -3.0349  0.8601
   83SAPS   HN3 7750   4.323   1.584  11.362  0.4780 -2.2775 -1.2902
   83SAPS   C12 7751   4.531   1.627  11.390  0.0334 -0.2465 -0.2087
   83SAPS  H12A 7752   4.515   1.733  11.377  2.1110  0.7857  3.8929
   83SAPS   C13 7753   4.644   1.628  11.491 -0.1150  0.1120  0.7738
   83SAPS  O13A 7754   4.629   1.599  11.614 -0.2989  0.7642  0.0795
   83SAPS  O13B 7755   4.743   1.697  11.456 -0.1489  0.3098 -0.4973
   83SAPS   C11 7756   4.580   1.556  11.257 -0.1576  0.1887 -0.7471
   83SAPS  H11A 7757   4.592   1.446  11.270  0.8957  0.3158 -0.5755
   83SAPS  H11B 7758   4.671   1.605  11.218 -0.2548  0.4508 -0.6480
   83SAPS     P 7759   4.504   1.515  11.013 -0.0383 -0.5694  0.1829
   83SAPS   O13 7760   4.454   1.379  11.030 -0.0423  0.1828 -0.0813
   83SAPS   O14 7761   4.442   1.601  10.911 -0.1532 -0.3091 -0.4453
   83SAPS   O12 7762   4.486   1.583  11.154 -0.1202  0.0377 -0.2146
   83SAPS   O11 7763   4.660   1.496  10.995  0.0417  0.6282  0.5096
   83SAPS    C1 7764   4.732   1.595  10.918 -0.1901 -0.1560  0.7072
   83SAPS    HA 7765   4.685   1.695  10.932 -0.3477  0.1983 -1.8643
   83SAPS    HB 7766   4.833   1.603  10.962 -0.5416  0.0854  1.4883
   83SAPS    C2 7767   4.757   1.565  10.763 -0.9400  0.0935 -0.0350
   83SAPS    HS 7768   4.662   1.589  10.711 -1.7452 -1.5812  0.5987
   83SAPS   O21 7769   4.800   1.424  10.753  0.3903 -0.1293  0.6716
   83SAPS   C21 7770   4.753   1.360  10.649 -0.3143 -0.1804 -0.0738
   83SAPS   O22 7771   4.672   1.408  10.568  0.2793 -0.8267  0.0290
   83SAPS   C22 7772   4.815   1.224  10.635  0.0308 -0.1367 -0.1973
   83SAPS   H2R 7773   4.787   1.173  10.730  1.2789 -0.6013 -0.0539
   83SAPS   H2S 7774   4.769   1.172  10.548 -0.3523  0.5776 -0.4268
   83SAPS    C3 7775   4.867   1.663  10.703 -0.2915  0.3568 -0.1057
   83SAPS    HX 7776   4.951   1.632  10.768 -2.1684 -2.7507  1.0708
   83SAPS    HY 7777   4.845   1.771  10.720  0.3338  0.7188 -1.4539
   83SAPS   O31 7778   4.894   1.626  10.560 -0.1362 -0.0008 -0.1677
   83SAPS   C31 7779   4.801   1.674  10.483 -0.1041  0.1113 -0.6091
   83SAPS   O32 7780   4.722   1.754  10.516  0.8715  0.0426  0.4345
   83SAPS   C32 7781   4.822   1.627  10.341 -0.3491  0.3662 -0.3995
   83SAPS   H2X 7782   4.839   1.518  10.343 -0.9865  0.2724  0.7817
   83SAPS   H2Y 7783   4.906   1.691  10.305 -0.4016 -0.6918 -2.5612
   83SAPS   C23 7784   4.962   1.227  10.614  0.1957 -0.5229 -0.3968
   83SAPS   H3R 7785   4.999   1.129  10.651 -0.3068 -0.2068  0.9958
   83SAPS   H3S 7786   4.999   1.308  10.681 -1.1720 -0.2780  0.1024
   83SAPS   C24 7787   5.006   1.258  10.473  0.0680 -0.0691 -0.4811
   83SAPS   H4R 7788   5.005   1.369  10.465 -0.5119 -0.0321  0.0656
   83SAPS   H4S 7789   4.930   1.218  10.402  0.1135  1.3044 -1.3442
   83SAPS   C25 7790   5.141   1.201  10.454 -0.1202  0.1091 -0.3157
   83SAPS   H5R 7791   5.217   1.241  10.523 -0.0927 -0.1768 -0.1819
   83SAPS   C26 7792   5.177   1.109  10.362 -0.1905  0.1067  0.5742
   83SAPS   H6R 7793   5.284   1.086  10.361 -0.5060 -1.4143  0.5663
   83SAPS   C27 7794   5.099   1.040  10.259  1.0511  0.5630  0.2500
   83SAPS   H7R 7795   4.998   1.026  10.303  0.7150  0.8949 -0.4074
   83SAPS   H7S 7796   5.134   0.934  10.260 -0.3147  0.0911  1.0143
   83SAPS   C28 7797   5.105   1.104  10.125  0.5224  0.9493  0.5672
   83SAPS   H8R 7798   5.061   1.205  10.126 -0.2714  0.6147  1.5412
   83SAPS   C29 7799   5.161   1.057  10.013 -0.0449 -0.1495  0.5180
   83SAPS   H9R 7800   5.132   1.107   9.919  3.1809  0.9284 -0.0084
   83SAPS  C210 7801   5.226   0.924   9.988 -0.0080 -0.3570  0.5050
   83SAPS  H10R 7802   5.221   0.906   9.879 -2.7067 -1.5493  0.7560
   83SAPS  H10S 7803   5.160   0.849  10.036 -0.5243 -0.3294 -0.1503
   83SAPS  C211 7804   5.367   0.907  10.029 -0.5344  0.2012  0.0428
   83SAPS  H11R 7805   5.389   0.905  10.136 -0.2454 -2.5185  0.0155
   83SAPS  C212 7806   5.469   0.893   9.940 -0.1852 -0.6196 -0.4805
   83SAPS  H12R 7807   5.568   0.888   9.987 -0.7006 -1.7368  0.5351
   83SAPS  C213 7808   5.473   0.890   9.791 -0.6231  0.0884  0.1180
   83SAPS  H13R 7809   5.382   0.838   9.754 -0.1637  0.6009 -1.8763
   83SAPS  H13S 7810   5.564   0.842   9.749 -0.0325  1.6417 -0.4535
   83SAPS  C214 7811   5.475   1.027   9.735 -0.4549 -0.0139  0.1159
   83SAPS  H14R 7812   5.471   1.107   9.811 -0.7748 -1.2664  1.4583
   83SAPS  C215 7813   5.472   1.061   9.604  0.0703  0.5022  0.2549
   83SAPS  H15R 7814   5.470   1.168   9.577 -1.1289  0.9019  1.7939
   83SAPS  C216 7815   5.464   0.964   9.492 -0.3062 -0.0664 -0.0798
   83SAPS  H16R 7816   5.386   0.977   9.414 -0.8076 -0.8014  0.2827
   83SAPS  H16S 7817   5.444   0.859   9.523  1.1335 -0.3883 -0.1518
   83SAPS  C217 7818   5.602   0.949   9.413 -0.1141 -0.3385  0.2293
   83SAPS  H17R 7819   5.671   0.900   9.485 -0.5392 -0.3228  0.6432
   83SAPS  H17S 7820   5.633   1.054   9.391 -0.2726 -0.1425  0.9112
   83SAPS  C218 7821   5.585   0.869   9.284 -0.3192  0.0856  0.3441
   83SAPS  H18R 7822   5.490   0.909   9.241  1.4471  2.4663 -1.6513
   83SAPS  H18S 7823   5.567   0.764   9.316  1.7628 -0.7957 -1.1821
   83SAPS  C219 7824   5.703   0.877   9.179  0.2551 -0.0667  0.0926
   83SAPS  H19R 7825   5.788   0.822   9.224 -0.5067 -0.0824  1.5635
   83SAPS  H19S 7826   5.732   0.983   9.164 -2.6561  1.1828  2.2485
   83SAPS  C220 7827   5.667   0.811   9.046  0.3083 -0.6032 -0.6831
   83SAPS  H20R 7828   5.653   0.703   9.066 -0.4026 -0.4847 -0.5259
   83SAPS  H20S 7829   5.756   0.819   8.980  1.2061  1.3975  0.6697
   83SAPS  H20T 7830   5.576   0.857   9.002 -0.4760 -0.5352  0.9409
   83SAPS   C33 7831   4.699   1.668  10.256 -0.3697  0.4498 -0.6589
   83SAPS   H3X 7832   4.720   1.667  10.147 -1.2107  1.9575 -0.8704
   83SAPS   H3Y 7833   4.662   1.769  10.284  1.3997  0.6716  1.0808
   83SAPS   C34 7834   4.576   1.573  10.273 -0.2272  0.5060  0.7726
   83SAPS   H4X 7835   4.525   1.589  10.371 -2.5541  0.2401 -0.3198
   83SAPS   H4Y 7836   4.618   1.470  10.274 -0.7995  0.2463 -0.4436
   83SAPS   C35 7837   4.472   1.570  10.164  0.2282  0.2161  0.5966
   83SAPS   H5X 7838   4.510   1.627  10.076 -0.4435 -1.1121 -0.5949
   83SAPS   H5Y 7839   4.394   1.642  10.198 -1.2192 -0.3472 -1.3307
   83SAPS   C36 7840   4.411   1.436  10.126  0.5392  0.2185  0.6016
   83SAPS   H6X 7841   4.364   1.390  10.216  1.2654 -0.1377  0.8071
   83SAPS   H6Y 7842   4.495   1.373  10.090 -0.2321 -0.4851 -0.0257
   83SAPS   C37 7843   4.309   1.464  10.009 -0.1758 -0.7812 -0.4247
   83SAPS   H7X 7844   4.243   1.547  10.042 -3.0572 -1.6741 -3.3894
   83SAPS   H7Y 7845   4.246   1.373  10.009 -0.8919 -0.2930 -1.0046
   83SAPS   C38 7846   4.367   1.510   9.875  0.0791 -0.6990 -0.5362
   83SAPS   H8X 7847   4.444   1.446   9.826 -0.5843  0.2709 -2.9620
   83SAPS   H8Y 7848   4.421   1.607   9.882 -1.9178  0.6188 -2.1867
   83SAPS   C39 7849   4.264   1.538   9.762  0.0438 -0.8089  0.4612
   83SAPS   H9X 7850   4.206   1.631   9.778 -1.8962 -1.6045 -1.4109
   83SAPS   H9Y 7851   4.198   1.449   9.767  0.6182 -1.2940 -0.3990
   83SAPS  C310 7852   4.327   1.537   9.623  0.8049 -0.9107  0.1723
   83SAPS  H10X 7853   4.422   1.481   9.624  1.9747  0.9045 -1.8176
   83SAPS  H10Y 7854   4.360   1.643   9.617 -1.5217 -0.1621 -0.8064
   83SAPS  C311 7855   4.236   1.503   9.507 -0.2130 -0.3420  0.4580
   83SAPS  H11X 7856   4.151   1.575   9.501 -1.0342 -1.2588  0.8559
   83SAPS  H11Y 7857   4.205   1.397   9.511 -1.5958  0.0519  0.8578
   83SAPS  C312 7858   4.314   1.533   9.375  0.5858 -0.1661  0.4183
   83SAPS  H12X 7859   4.393   1.454   9.377 -0.9015 -1.9494 -3.2392
   83SAPS  H12Y 7860   4.362   1.634   9.380 -0.5259  0.3821  0.2090
   83SAPS  C313 7861   4.229   1.515   9.246  0.3343 -0.3698  1.0971
   83SAPS  H13X 7862   4.131   1.562   9.268 -0.2403  0.3419 -2.3216
   83SAPS  H13Y 7863   4.209   1.407   9.228  1.9197 -0.5706  0.3064
   83SAPS  C314 7864   4.290   1.576   9.118  0.0690 -0.3017 -0.4576
   83SAPS  H14X 7865   4.334   1.675   9.143 -0.7585  0.3579 -1.5295
   83SAPS  H14Y 7866   4.214   1.590   9.038 -1.2290 -0.1586  0.7623
   83SAPS  C315 7867   4.393   1.477   9.059  0.4305  0.3035 -0.4911
   83SAPS  H15X 7868   4.320   1.408   9.013 -2.5303  2.9262 -0.0918
   83SAPS  H15Y 7869   4.441   1.425   9.144 -1.1067  0.9315  0.8117
   83SAPS  C316 7870   4.489   1.524   8.953 -0.0065 -0.2812  0.4894
   83SAPS  H16X 7871   4.567   1.590   8.995  0.9875 -0.9944 -0.2031
   83SAPS  H16Y 7872   4.440   1.577   8.869  0.2298 -0.0327  0.5081
   83SAPS  C317 7873   4.538   1.395   8.892  0.6663 -0.1750  0.3554
   83SAPS  H17X 7874   4.454   1.343   8.842  0.3384  0.2116  0.4925
   83SAPS  H17Y 7875   4.586   1.328   8.966  2.4982  0.7152  0.0317
   83SAPS  C318 7876   4.644   1.423   8.786 -0.3204 -0.3384 -0.0533
   83SAPS  H18X 7877   4.686   1.327   8.749 -1.2268  0.0587 -2.2807
   83SAPS  H18Y 7878   4.716   1.499   8.823  1.1011 -0.1411 -2.8984
   83SAPS  H18Z 7879   4.604   1.472   8.695  2.1248 -0.9543 -1.5578
   84SAPS     N 7880   6.781   0.552  10.940  0.3355  0.1755  0.3473
   84SAPS   HN1 7881   6.760   0.623  10.866 -0.9811 -0.5486 -0.0189
   84SAPS   HN2 7882   6.750   0.461  10.901  0.1212 -0.4779  2.0019
   84SAPS   HN3 7883   6.713   0.579  11.015 -0.6118  2.0753 -1.0868
   84SAPS   C12 7884   6.916   0.554  11.006 -0.1623 -0.7482 -0.4146
   84SAPS  H12A 7885   6.995   0.536  10.935  1.9182 -0.1086  1.6435
   84SAPS   C13 7886   6.951   0.686  11.080 -0.1882  0.2454  0.2005
   84SAPS  O13A 7887   6.880   0.792  11.055 -0.4275  0.4480 -0.0225
   84SAPS  O13B 7888   7.074   0.701  11.112 -0.2065 -0.1977  0.2667
   84SAPS   C11 7889   6.924   0.450  11.123  0.3648  0.3818  0.2442
   84SAPS  H11A 7890   6.848   0.462  11.203  1.5057 -1.6649  1.7209
   84SAPS  H11B 7891   7.021   0.451  11.178  0.6359 -0.8202 -0.1862
   84SAPS     P 7892   7.019   0.236  11.016 -0.1958  0.0673 -0.4784
   84SAPS   O13 7893   7.147   0.261  11.091  0.3009 -0.0437  0.1523
   84SAPS   O14 7894   6.979   0.096  10.996  0.3277  0.2769  0.3626
   84SAPS   O12 7895   6.890   0.321  11.064 -0.5025 -0.0339 -0.1252
   84SAPS   O11 7896   7.034   0.303  10.872 -0.0957  0.5391 -0.2033
   84SAPS    C1 7897   7.153   0.329  10.800 -0.1844 -0.1136 -0.1807
   84SAPS    HA 7898   7.164   0.439  10.787  2.0538 -0.1501  0.8520
   84SAPS    HB 7899   7.251   0.309  10.849  0.1852 -0.4818 -1.0442
   84SAPS    C2 7900   7.156   0.243  10.670  0.0208  0.3055 -0.9470
   84SAPS    HS 7901   7.242   0.276  10.608 -0.5496  0.6904 -1.5406
   84SAPS   O21 7902   7.035   0.264  10.597 -0.8877  0.2045  0.1259
   84SAPS   C21 7903   7.019   0.389  10.552 -0.2482  0.6798 -0.0673
   84SAPS   O22 7904   7.088   0.488  10.562 -0.2809  0.3049  0.1168
   84SAPS   C22 7905   6.897   0.398  10.463 -0.3630 -0.4744 -0.3029
   84SAPS   H2R 7906   6.858   0.294  10.457 -1.4688  0.0090 -2.5030
   84SAPS   H2S 7907   6.820   0.453  10.522 -1.4667 -0.5134 -1.6544
   84SAPS    C3 7908   7.164   0.097  10.706  0.2184 -0.0138 -0.0270
   84SAPS    HX 7909   7.079   0.070  10.771  0.6322 -2.3664 -0.3718
   84SAPS    HY 7910   7.259   0.067  10.756 -0.5913 -3.2339 -0.1708
   84SAPS   O31 7911   7.158   0.025  10.579 -0.0903  1.1991  0.6650
   84SAPS   C31 7912   7.200  -0.104  10.588 -0.6241 -0.1424  0.6761
   84SAPS   O32 7913   7.227  -0.156  10.694  0.1695 -0.1795  0.3507
   84SAPS   C32 7914   7.223  -0.164  10.447 -0.1412  0.2617  0.2946
   84SAPS   H2X 7915   7.269  -0.265  10.445 -1.4965 -0.4301  1.6145
   84SAPS   H2Y 7916   7.288  -0.087  10.401 -1.8969  2.2618  1.0307
   84SAPS   C23 7917   6.925   0.443  10.319  0.0556  0.3017 -0.1038
   84SAPS   H3R 7918   6.974   0.543  10.316  0.8004  0.0138  1.6240
   84SAPS   H3S 7919   6.826   0.457  10.271 -0.0295  1.6227  0.4220
   84SAPS   C24 7920   7.019   0.341  10.245  0.0688 -0.1177  0.2673
   84SAPS   H4R 7921   7.109   0.327  10.308  0.1073 -0.5525  0.1198
   84SAPS   H4S 7922   7.061   0.378  10.149  0.9113  1.3986  1.1849
   84SAPS   C25 7923   6.951   0.208  10.219  0.4212  0.7013  0.1748
   84SAPS   H5R 7924   6.968   0.140  10.305 -1.4106  1.5562  1.2705
   84SAPS   C26 7925   6.891   0.160  10.106  0.3038 -0.3126  0.0832
   84SAPS   H6R 7926   6.835   0.065  10.108 -1.7857  0.8135 -1.7119
   84SAPS   C27 7927   6.882   0.224   9.968  0.0562 -0.0781 -0.1654
   84SAPS   H7R 7928   6.884   0.335   9.980  0.3660 -0.0276 -0.6687
   84SAPS   H7S 7929   6.782   0.198   9.927 -0.7028  1.1463  0.8319
   84SAPS   C28 7930   6.994   0.200   9.876  0.1836  0.6594 -0.3048
   84SAPS   H8R 7931   7.084   0.173   9.932  0.9663 -1.6792 -2.4913
   84SAPS   C29 7932   6.991   0.215   9.743  0.1692  0.5357 -0.4261
   84SAPS   H9R 7933   7.076   0.185   9.679  1.5543 -1.8018  2.3190
   84SAPS  C210 7934   6.867   0.256   9.671  0.6821 -0.0792 -0.6026
   84SAPS  H10R 7935   6.789   0.293   9.742  2.1398  0.5972  0.7132
   84SAPS  H10S 7936   6.825   0.164   9.626 -0.6725 -0.1303  0.6932
   84SAPS  C211 7937   6.889   0.362   9.569 -0.2260  0.8039 -0.7591
   84SAPS  H11R 7938   6.880   0.461   9.614  0.2937 -0.9265  3.6229
   84SAPS  C212 7939   6.910   0.351   9.434  0.1949 -0.3385  0.4294
   84SAPS  H12R 7940   6.924   0.445   9.378 -0.6886  0.3657  1.3435
   84SAPS  C213 7941   6.915   0.226   9.352  0.1089  0.0613  0.0225
   84SAPS  H13R 7942   6.907   0.139   9.420 -1.3833 -0.0976 -0.3322
   84SAPS  H13S 7943   7.011   0.219   9.295  0.5315  0.5967  0.6437
   84SAPS  C214 7944   6.794   0.211   9.264  0.3519  0.2012 -0.3821
   84SAPS  H14R 7945   6.710   0.257   9.319  1.8284 -0.4815  2.6805
   84SAPS  C215 7946   6.774   0.136   9.152  0.7694  0.0329 -0.2330
   84SAPS  H15R 7947   6.671   0.128   9.114 -0.7632  0.2663  3.4153
   84SAPS  C216 7948   6.877   0.049   9.077 -0.4520 -0.1155  1.0453
   84SAPS  H16R 7949   6.846  -0.054   9.051 -0.7085  0.3590 -0.6070
   84SAPS  H16S 7950   6.976   0.035   9.126  0.5699  3.4262  0.3216
   84SAPS  C217 7951   6.903   0.124   8.940  0.0817 -0.0506  1.0724
   84SAPS  H17R 7952   6.990   0.074   8.892  1.7463  1.3598  2.4653
   84SAPS  H17S 7953   6.941   0.229   8.947  0.0434 -0.1239  2.8205
   84SAPS  C218 7954   6.781   0.130   8.843  0.1494  0.5832  0.3604
   84SAPS  H18R 7955   6.699   0.188   8.890 -1.0053  0.5504 -1.5268
   84SAPS  H18S 7956   6.742   0.029   8.816  0.4780  0.8405 -1.1753
   84SAPS  C219 7957   6.810   0.194   8.700 -0.6332  0.6015  0.1540
   84SAPS  H19R 7958   6.719   0.167   8.643 -0.7129  1.0610  0.0652
   84SAPS  H19S 7959   6.901   0.148   8.654  0.4401  1.0405  1.7403
   84SAPS  C220 7960   6.816   0.346   8.702  0.3371 -0.2047 -0.1166
   84SAPS  H20R 7961   6.736   0.384   8.769 -1.1971 -1.7980 -0.9683
   84SAPS  H20S 7962   6.797   0.382   8.598 -2.0701 -1.7473 -0.2890
   84SAPS  H20T 7963   6.914   0.382   8.742  0.0713  2.7365 -1.7557
   84SAPS   C33 7964   7.109  -0.160  10.345  0.2495  0.3660  0.0115
   84SAPS   H3X 7965   7.044  -0.071  10.336  0.0460  0.1319 -1.0933
   84SAPS   H3Y 7966   7.033  -0.237  10.371  0.2933 -0.2143 -1.4465
   84SAPS   C34 7967   7.160  -0.182  10.203 -0.1006  0.6369 -0.6744
   84SAPS   H4X 7968   7.231  -0.267  10.200 -0.4219  0.3362 -0.0478
   84SAPS   H4Y 7969   7.225  -0.094  10.180 -0.0333  0.1076 -2.6108
   84SAPS   C35 7970   7.054  -0.193  10.090 -0.4566  0.2967 -0.6304
   84SAPS   H5X 7971   6.989  -0.103  10.102 -1.5200 -0.4054 -0.8969
   84SAPS   H5Y 7972   6.986  -0.280  10.103 -0.0322  0.1367  0.5973
   84SAPS   C36 7973   7.125  -0.178   9.952 -0.2696  0.3590  0.5137
   84SAPS   H6X 7974   7.189  -0.268   9.946 -0.8086  0.0703 -1.4889
   84SAPS   H6Y 7975   7.180  -0.081   9.954 -0.9789  0.8429 -1.6952
   84SAPS   C37 7976   7.029  -0.180   9.835  0.5142  1.2481  0.3048
   84SAPS   H7X 7977   6.944  -0.109   9.845 -0.3717  0.2920 -0.2309
   84SAPS   H7Y 7978   6.980  -0.280   9.835  1.1413  0.8543  3.2048
   84SAPS   C38 7979   7.108  -0.165   9.702  0.5209  0.2212 -0.4137
   84SAPS   H8X 7980   7.181  -0.082   9.716 -0.4993  1.8560 -3.7829
   84SAPS   H8Y 7981   7.025  -0.134   9.635 -0.1683  0.8602  0.7063
   84SAPS   C39 7982   7.164  -0.301   9.657  0.1160 -0.2885 -0.2596
   84SAPS   H9X 7983   7.079  -0.373   9.652  0.0142 -0.0842 -2.4567
   84SAPS   H9Y 7984   7.233  -0.347   9.730  0.7006 -0.7752 -1.0962
   84SAPS  C310 7985   7.232  -0.301   9.521 -0.1913 -0.4181 -0.1699
   84SAPS  H10X 7986   7.291  -0.392   9.497  3.4316  1.5576  0.4829
   84SAPS  H10Y 7987   7.321  -0.234   9.524 -0.0741 -0.2977 -3.0815
   84SAPS  C311 7988   7.152  -0.242   9.407 -0.4182 -0.0721  0.3874
   84SAPS  H11X 7989   7.116  -0.142   9.439  1.4797  0.7341  0.1246
   84SAPS  H11Y 7990   7.056  -0.297   9.391 -0.5324  0.7265 -2.1314
   84SAPS  C312 7991   7.237  -0.248   9.278  0.0342 -0.0949  0.6735
   84SAPS  H12X 7992   7.310  -0.332   9.273  0.1669  0.0089  0.8657
   84SAPS  H12Y 7993   7.298  -0.156   9.267  0.2727 -0.4704 -1.8219
   84SAPS  C313 7994   7.132  -0.251   9.166  0.0213  0.4094 -0.2574
   84SAPS  H13X 7995   7.049  -0.180   9.185 -1.0864 -0.4644 -1.6352
   84SAPS  H13Y 7996   7.085  -0.352   9.171 -1.2814  1.0237  0.2918
   84SAPS  C314 7997   7.198  -0.248   9.023 -0.4128 -1.1114 -0.0023
   84SAPS  H14X 7998   7.242  -0.350   9.016  2.4991  0.1323 -1.4612
   84SAPS  H14Y 7999   7.280  -0.174   9.036 -0.0802 -1.6374  0.9637
   84SAPS  C315 8000   7.119  -0.214   8.897 -0.4793 -0.9298 -0.3950
   84SAPS  H15X 8001   7.177  -0.235   8.805 -1.9873  1.5319 -2.0329
   84SAPS  H15Y 8002   7.085  -0.109   8.906  1.3610 -0.4374  1.4277
   84SAPS  C316 8003   6.995  -0.312   8.889 -0.2571 -0.2246 -0.6163
   84SAPS  H16X 8004   6.932  -0.293   8.979 -1.7048  2.9987 -2.1536
   84SAPS  H16Y 8005   7.036  -0.415   8.884 -3.4957 -1.6022 -1.7392
   84SAPS  C317 8006   6.908  -0.275   8.771  0.1749 -0.3812 -0.2211
   84SAPS  H17X 8007   6.971  -0.284   8.680 -0.7304  0.0869 -0.9164
   84SAPS  H17Y 8008   6.887  -0.167   8.786 -1.9260 -0.8916  0.8645
   84SAPS  C318 8009   6.777  -0.358   8.753 -0.2075 -0.0619 -0.0630
   84SAPS  H18X 8010   6.735  -0.334   8.653  0.4749  4.1690  0.4654
   84SAPS  H18Y 8011   6.698  -0.329   8.826 -1.2205 -3.3202  0.3029
   84SAPS  H18Z 8012   6.791  -0.468   8.757 -2.2616 -0.4378 -1.5563
   85SAPS     N 8013   2.528   2.559  10.985  0.1532  0.1394 -0.3064
   85SAPS   HN1 8014   2.485   2.521  11.071  1.4941 -1.0999 -0.1431
   85SAPS   HN2 8015   2.466   2.619  10.926 -0.5892 -0.5676 -0.2645
   85SAPS   HN3 8016   2.560   2.475  10.932 -0.7617 -0.2225 -0.3174
   85SAPS   C12 8017   2.639   2.641  11.034  0.0176 -0.3649  0.3178
   85SAPS  H12A 8018   2.678   2.693  10.947 -2.5206  0.1057 -0.6298
   85SAPS   C13 8019   2.602   2.737  11.154 -0.3557  0.2974  0.7348
   85SAPS  O13A 8020   2.487   2.735  11.196  1.0165  0.3857  0.2722
   85SAPS  O13B 8021   2.694   2.796  11.215 -0.1969  0.2536  0.3045
   85SAPS   C11 8022   2.737   2.535  11.085 -1.0267  0.3339  0.2993
   85SAPS  H11A 8023   2.697   2.486  11.176 -0.2450 -2.3267 -0.7004
   85SAPS  H11B 8024   2.832   2.585  11.116 -0.5637  0.1014 -0.6982
   85SAPS     P 8025   2.893   2.394  10.911  0.3018 -0.2475  0.0230
   85SAPS   O13 8026   3.014   2.435  10.981 -1.1934 -0.1019 -0.2747
   85SAPS   O14 8027   2.883   2.253  10.885  0.2199  0.0468  0.1660
   85SAPS   O12 8028   2.769   2.435  10.991  0.1469 -0.5884 -0.2708
   85SAPS   O11 8029   2.874   2.485  10.781 -0.5610  0.3377 -0.2181
   85SAPS    C1 8030   2.763   2.478  10.697  0.2393 -0.2076  0.7208
   85SAPS    HA 8031   2.709   2.382  10.709  0.6052 -0.3102  1.6265
   85SAPS    HB 8032   2.694   2.559  10.729 -1.1261 -1.8284  2.0794
   85SAPS    C2 8033   2.800   2.503  10.547 -1.4064  0.3946  0.4865
   85SAPS    HS 8034   2.870   2.589  10.542 -2.3196  1.1183 -0.1059
   85SAPS   O21 8035   2.689   2.529  10.458 -0.3070 -0.3694 -0.1426
   85SAPS   C21 8036   2.646   2.657  10.466 -0.2646  0.7892 -0.7234
   85SAPS   O22 8037   2.692   2.749  10.525  0.1813 -0.2269  0.2026
   85SAPS   C22 8038   2.533   2.678  10.364  0.4376  0.2621 -0.2459
   85SAPS   H2R 8039   2.475   2.583  10.362 -2.9031  2.1442 -1.1154
   85SAPS   H2S 8040   2.459   2.752  10.401  1.0927 -0.8773  3.7381
   85SAPS    C3 8041   2.876   2.377  10.488  0.7941  0.1538 -0.1147
   85SAPS    HX 8042   2.800   2.296  10.503 -0.6574  1.5880  0.6480
   85SAPS    HY 8043   2.961   2.353  10.554 -1.5566  1.1082  3.5764
   85SAPS   O31 8044   2.901   2.382  10.346 -0.1906  0.0749  0.0514
   85SAPS   C31 8045   3.006   2.451  10.316 -0.0827  1.2788  0.2881
   85SAPS   O32 8046   3.088   2.498  10.392 -0.2805 -0.4710 -0.0813
   85SAPS   C32 8047   3.012   2.466  10.163 -0.5239  0.0072 -0.3308
   85SAPS   H2X 8048   2.919   2.423  10.120 -0.9820  0.4957  0.1450
   85SAPS   H2Y 8049   3.101   2.418  10.118 -0.2622  0.3555 -0.1953
   85SAPS   C23 8050   2.578   2.710  10.225  0.0183 -0.4937  0.0050
   85SAPS   H3R 8051   2.647   2.638  10.175 -0.2939 -1.5132  1.0118
   85SAPS   H3S 8052   2.627   2.809  10.222 -0.2275 -0.3711 -3.2702
   85SAPS   C24 8053   2.468   2.716  10.121 -0.0839  0.3008 -0.5537
   85SAPS   H4R 8054   2.416   2.619  10.137  0.8685  0.1182  1.9740
   85SAPS   H4S 8055   2.510   2.708  10.019 -1.3209  2.0767 -1.2472
   85SAPS   C25 8056   2.370   2.830  10.115 -0.1224  1.1669 -0.2126
   85SAPS   H5R 8057   2.298   2.826  10.198 -0.3349  2.2646 -0.3284
   85SAPS   C26 8058   2.356   2.919  10.016  0.5243 -0.4057 -0.4031
   85SAPS   H6R 8059   2.276   2.994  10.031  2.1826  1.0821  1.8007
   85SAPS   C27 8060   2.436   2.926   9.892  0.0590 -0.1201  0.2751
   85SAPS   H7R 8061   2.435   2.830   9.836  1.7582  0.3754 -0.6866
   85SAPS   H7S 8062   2.544   2.931   9.916  0.1320 -1.7955  0.4391
   85SAPS   C28 8063   2.392   3.038   9.798  0.0657  0.2551  0.1341
   85SAPS   H8R 8064   2.377   3.139   9.839 -2.9486 -0.5520  1.2705
   85SAPS   C29 8065   2.356   3.016   9.668 -0.1339 -0.4156  0.4769
   85SAPS   H9R 8066   2.325   3.099   9.604  2.8317  1.3074  1.0788
   85SAPS  C210 8067   2.350   2.887   9.592  0.3488 -0.1882  0.1210
   85SAPS  H10R 8068   2.255   2.832   9.609  0.2279 -0.1133 -0.2851
   85SAPS  H10S 8069   2.415   2.810   9.637 -2.0244 -1.7385  1.0914
   85SAPS  C211 8070   2.371   2.889   9.438  0.2527 -0.4228  0.1568
   85SAPS  H11R 8071   2.464   2.839   9.406  0.7571 -0.8672  2.2063
   85SAPS  C212 8072   2.293   2.944   9.342  0.3114 -0.0982 -0.4992
   85SAPS  H12R 8073   2.329   2.942   9.238  0.8732 -2.1529 -0.3177
   85SAPS  C213 8074   2.171   3.026   9.367 -0.3391 -0.3704  0.3389
   85SAPS  H13R 8075   2.186   3.129   9.329  2.4446 -0.5900  0.5741
   85SAPS  H13S 8076   2.144   3.050   9.472  1.1251  0.8178  0.4851
   85SAPS  C214 8077   2.049   2.953   9.321  0.0308  0.1601  0.0549
   85SAPS  H14R 8078   2.028   2.867   9.386  3.2234 -2.0717 -1.5995
   85SAPS  C215 8079   1.981   2.975   9.208  0.3616 -0.6626  0.1092
   85SAPS  H15R 8080   1.890   2.918   9.184 -0.0005 -0.1098  0.1364
   85SAPS  C216 8081   2.014   3.083   9.104 -0.4977  0.0740  0.6947
   85SAPS  H16R 8082   2.107   3.139   9.128 -0.5774  0.5314 -0.0318
   85SAPS  H16S 8083   1.933   3.158   9.093 -0.4153  0.1062  0.2737
   85SAPS  C217 8084   2.021   3.028   8.954 -1.1897 -0.0439  0.0419
   85SAPS  H17R 8085   1.928   2.970   8.938 -1.7959  1.2450 -1.3054
   85SAPS  H17S 8086   2.111   2.962   8.951 -1.1249 -0.0568  1.3297
   85SAPS  C218 8087   2.020   3.133   8.845 -0.9431 -0.0169  0.1687
   85SAPS  H18R 8088   2.063   3.091   8.752  0.1767  0.2039  0.5642
   85SAPS  H18S 8089   2.090   3.216   8.871 -0.0269 -0.6040 -0.3578
   85SAPS  C219 8090   1.884   3.202   8.823 -0.3261  0.0390  0.0075
   85SAPS  H19R 8091   1.848   3.236   8.922  3.1425 -0.6898  1.6672
   85SAPS  H19S 8092   1.815   3.130   8.774  1.2089 -1.5489  0.0701
   85SAPS  C220 8093   1.914   3.321   8.728 -0.0873  0.2606 -0.9606
   85SAPS  H20R 8094   1.968   3.290   8.636  0.2916  0.8566 -0.9470
   85SAPS  H20S 8095   1.983   3.397   8.769 -0.2024 -0.4413  0.5898
   85SAPS  H20T 8096   1.821   3.378   8.712 -0.7198  0.2588  2.0850
   85SAPS   C33 8097   3.035   2.616  10.134 -0.0353  0.2966  0.3647
   85SAPS   H3X 8098   3.143   2.637  10.149 -0.2087  3.7905 -2.1323
   85SAPS   H3Y 8099   2.972   2.680  10.199 -0.7817 -0.6100  0.5500
   85SAPS   C34 8100   2.998   2.663   9.991 -0.6068 -0.3184 -0.2209
   85SAPS   H4X 8101   2.996   2.773   9.978 -3.1210 -0.4124 -1.2479
   85SAPS   H4Y 8102   2.894   2.634   9.964 -0.9820  0.0211  0.7684
   85SAPS   C35 8103   3.103   2.609   9.892 -0.6889  0.1065 -0.4680
   85SAPS   H5X 8104   3.095   2.498   9.893  1.6333 -0.1094 -0.0640
   85SAPS   H5Y 8105   3.204   2.616   9.938 -1.4227 -2.0629  1.7166
   85SAPS   C36 8106   3.087   2.653   9.744 -0.6664 -0.1815  0.1576
   85SAPS   H6X 8107   3.103   2.763   9.737 -1.1949 -0.1281 -0.2761
   85SAPS   H6Y 8108   2.986   2.629   9.705  0.3255 -3.5825 -0.6226
   85SAPS   C37 8109   3.190   2.585   9.656 -0.1368 -0.7204  0.1947
   85SAPS   H7X 8110   3.190   2.475   9.668 -0.8624 -0.8404 -0.7575
   85SAPS   H7Y 8111   3.295   2.619   9.673 -0.7416  2.0576 -0.9182
   85SAPS   C38 8112   3.155   2.603   9.507 -0.2076  0.3411 -0.2247
   85SAPS   H8X 8113   3.180   2.710   9.490  0.9250  0.1565  0.2430
   85SAPS   H8Y 8114   3.044   2.595   9.499 -0.1785  0.5616 -1.0057
   85SAPS   C39 8115   3.230   2.508   9.418 -0.7200  0.0741  0.4530
   85SAPS   H9X 8116   3.205   2.409   9.460 -1.9323 -0.1337 -0.6937
   85SAPS   H9Y 8117   3.340   2.526   9.415 -0.9917  2.2304  1.3636
   85SAPS  C310 8118   3.164   2.523   9.277 -0.3719  0.2403 -0.7477
   85SAPS  H10X 8119   3.056   2.499   9.282  0.1220 -2.5223 -1.4663
   85SAPS  H10Y 8120   3.217   2.442   9.222  1.0275  0.6434 -0.0450
   85SAPS  C311 8121   3.198   2.654   9.193 -0.5594 -0.0774  0.5980
   85SAPS  H11X 8122   3.308   2.663   9.189 -0.6122  0.3052 -0.0511
   85SAPS  H11Y 8123   3.148   2.734   9.252 -0.3855  1.1351 -0.8514
   85SAPS  C312 8124   3.151   2.652   9.040 -0.3795 -0.3291 -0.4191
   85SAPS  H12X 8125   3.164   2.755   8.999 -0.2271 -0.4111 -0.5741
   85SAPS  H12Y 8126   3.042   2.635   9.046 -0.6995  1.7431  1.1627
   85SAPS  C313 8127   3.221   2.546   8.953  0.5358 -0.0953  0.3697
   85SAPS  H13X 8128   3.193   2.447   8.993 -0.4280 -0.3501 -0.8924
   85SAPS  H13Y 8129   3.328   2.558   8.981  0.7980 -1.9286  0.2690
   85SAPS  C314 8130   3.185   2.563   8.814 -1.3465 -0.2377 -0.5406
   85SAPS  H14X 8131   3.246   2.501   8.745 -1.4519  0.3866 -1.2039
   85SAPS  H14Y 8132   3.208   2.669   8.788 -0.0006  0.1703  1.9847
   85SAPS  C315 8133   3.045   2.533   8.779 -0.6149 -0.3202 -0.3444
   85SAPS  H15X 8134   2.970   2.607   8.816  2.0834  1.5441  1.8076
   85SAPS  H15Y 8135   3.017   2.435   8.823  3.1908 -0.3729  2.5015
   85SAPS  C316 8136   3.030   2.519   8.628  0.4302 -0.5668  0.6136
   85SAPS  H16X 8137   3.092   2.436   8.587  1.9569  1.0992 -0.5905
   85SAPS  H16Y 8138   3.065   2.613   8.581 -1.4951  0.5965  1.3811
   85SAPS  C317 8139   2.887   2.497   8.574 -0.5939 -0.1793  0.2127
   85SAPS  H17X 8140   2.822   2.580   8.611 -1.8192 -0.7521 -0.5730
   85SAPS  H17Y 8141   2.858   2.399   8.617  1.6158 -1.0442 -0.1477
   85SAPS  C318 8142   2.881   2.505   8.417 -0.2374  0.7198 -0.4752
   85SAPS  H18X 8143   2.970   2.450   8.379  0.2199  2.5440 -2.2069
   85SAPS  H18Y 8144   2.883   2.613   8.393 -1.9530  1.4800  2.3449
   85SAPS  H18Z 8145   2.789   2.454   8.380 -0.8474  2.2760 -1.1545
   86SAPS     N 8146   3.918   2.841  11.096  0.0246  0.1133  0.2535
   86SAPS   HN1 8147   4.010   2.823  11.050  1.0868  1.0205  1.9245
   86SAPS   HN2 8148   3.873   2.750  11.121 -1.7712  1.1970  1.1776
   86SAPS   HN3 8149   3.856   2.885  11.025  1.5451 -0.6244 -1.6146
   86SAPS   C12 8150   3.937   2.944  11.203 -0.0262  0.2323 -0.6214
   86SAPS  H12A 8151   3.853   2.918  11.266 -1.4737  1.3591 -1.9844
   86SAPS   C13 8152   4.067   2.924  11.285  0.0420  0.3578  0.6871
   86SAPS  O13A 8153   4.160   2.857  11.232  0.4148 -0.1253  0.1483
   86SAPS  O13B 8154   4.084   2.977  11.397  0.3537  0.3094 -0.3705
   86SAPS   C11 8155   3.923   3.083  11.134  0.4911 -0.2447  0.0015
   86SAPS  H11A 8156   3.995   3.104  11.052  1.2453  0.6767  0.8776
   86SAPS  H11B 8157   3.939   3.152  11.220  1.8030 -0.1830 -0.2798
   86SAPS     P 8158   3.750   3.086  10.927 -0.1146  0.2665  0.2488
   86SAPS   O13 8159   3.839   2.981  10.875  0.0578  0.2420  0.1336
   86SAPS   O14 8160   3.605   3.078  10.925  0.0022  0.3841 -0.7851
   86SAPS   O12 8161   3.788   3.101  11.085 -0.0174 -0.2019  0.4477
   86SAPS   O11 8162   3.794   3.230  10.886 -0.3658 -0.5789  0.0848
   86SAPS    C1 8163   3.738   3.299  10.778  0.0694 -0.5519  0.0988
   86SAPS    HA 8164   3.644   3.247  10.748  0.8195 -1.2387 -1.1221
   86SAPS    HB 8165   3.712   3.401  10.813 -0.5292 -0.3605 -0.8766
   86SAPS    C2 8166   3.833   3.316  10.649  0.1083  0.8283 -0.7407
   86SAPS    HS 8167   3.775   3.384  10.582  0.1427 -0.8868 -2.5984
   86SAPS   O21 8168   3.875   3.195  10.582 -0.2389 -0.3234  0.2690
   86SAPS   C21 8169   3.777   3.124  10.529  0.0746  0.2335 -0.1031
   86SAPS   O22 8170   3.658   3.150  10.534  0.1738 -0.0952 -0.5101
   86SAPS   C22 8171   3.833   2.998  10.455  0.7180  0.4083 -0.0008
   86SAPS   H2R 8172   3.866   2.933  10.540 -0.0839  0.0961  0.0854
   86SAPS   H2S 8173   3.746   2.939  10.419  1.4010 -0.9020  0.3936
   86SAPS    C3 8174   3.958   3.388  10.699  0.2118 -0.3744  0.1904
   86SAPS    HX 8175   4.021   3.331  10.770  1.0162 -0.5135 -0.6258
   86SAPS    HY 8176   3.922   3.470  10.765 -1.6405 -1.1758  0.2272
   86SAPS   O31 8177   4.031   3.445  10.587 -0.2061  0.5140  0.2797
   86SAPS   C31 8178   4.082   3.566  10.605  0.3378 -0.3661  0.1394
   86SAPS   O32 8179   4.089   3.639  10.709 -0.4608  0.6508  0.2092
   86SAPS   C32 8180   4.125   3.617  10.461  0.5026  0.5979 -0.1751
   86SAPS   H2X 8181   4.212   3.553  10.434  0.9196  1.4124 -0.7825
   86SAPS   H2Y 8182   4.171   3.716  10.477  2.4850 -0.6472  2.8570
   86SAPS   C23 8183   3.947   3.016  10.347 -0.0820 -0.3521  0.2480
   86SAPS   H3R 8184   4.001   2.919  10.339 -0.4831 -0.8035  2.3588
   86SAPS   H3S 8185   4.034   3.073  10.384  0.4483 -1.8497  1.4055
   86SAPS   C24 8186   3.907   3.044  10.204  0.3355 -0.2616 -0.4587
   86SAPS   H4R 8187   3.830   2.979  10.157  1.5821 -1.1666 -1.3290
   86SAPS   H4S 8188   3.996   3.027  10.139  1.1960  1.7606  0.1107
   86SAPS   C25 8189   3.865   3.190  10.189  0.4738 -0.2396 -0.1807
   86SAPS   H5R 8190   3.798   3.223  10.270  1.6199  0.8497  0.3711
   86SAPS   C26 8191   3.893   3.268  10.079 -0.0147 -0.6288  0.3537
   86SAPS   H6R 8192   3.851   3.369  10.068  2.8072  0.7025  0.9109
   86SAPS   C27 8193   3.982   3.220   9.959  0.4428  0.5921 -0.0097
   86SAPS   H7R 8194   4.057   3.143   9.988 -1.0505 -0.9731 -0.1727
   86SAPS   H7S 8195   4.041   3.305   9.919  0.2839  0.5080 -0.4286
   86SAPS   C28 8196   3.891   3.152   9.856  0.7313 -0.1435  0.4549
   86SAPS   H8R 8197   3.802   3.100   9.894 -0.7397  1.7445 -0.2267
   86SAPS   C29 8198   3.918   3.152   9.725  0.1489  0.2165  0.2894
   86SAPS   H9R 8199   3.845   3.096   9.664  0.6833  0.4565 -0.6002
   86SAPS  C210 8200   4.039   3.204   9.642  0.4655  0.0327  0.0930
   86SAPS  H10R 8201   4.065   3.312   9.655  0.3942 -0.0272  0.7607
   86SAPS  H10S 8202   4.015   3.201   9.533  1.4359  0.7588 -0.1591
   86SAPS  C211 8203   4.166   3.123   9.669  0.0843 -0.0738 -0.0184
   86SAPS  H11R 8204   4.180   3.071   9.765 -0.6491  0.3019  0.3000
   86SAPS  C212 8205   4.268   3.091   9.587 -0.2048 -0.6938 -0.2048
   86SAPS  H12R 8206   4.345   3.026   9.631  1.5622  2.4503  1.8158
   86SAPS  C213 8207   4.276   3.125   9.441 -0.0752 -0.0917 -0.1497
   86SAPS  H13R 8208   4.194   3.193   9.411  0.2547  0.4488  0.1583
   86SAPS  H13S 8209   4.277   3.033   9.379 -0.3678  0.8197 -1.5444
   86SAPS  C214 8210   4.411   3.199   9.421 -0.1391  0.0739  0.3257
   86SAPS  H14R 8211   4.459   3.256   9.501  0.6857 -1.3410  0.8652
   86SAPS  C215 8212   4.471   3.213   9.304  0.4363  0.0125  0.2427
   86SAPS  H15R 8213   4.560   3.279   9.297  1.0554 -0.8314 -0.0578
   86SAPS  C216 8214   4.430   3.154   9.170 -0.2510 -0.1911 -1.0647
   86SAPS  H16R 8215   4.350   3.077   9.179  1.2036 -1.5761  1.2865
   86SAPS  H16S 8216   4.522   3.109   9.126  0.9836  2.7713 -1.7641
   86SAPS  C217 8217   4.382   3.258   9.070  0.4620  0.6646  0.4288
   86SAPS  H17R 8218   4.448   3.346   9.086  0.0416  0.8365  1.2539
   86SAPS  H17S 8219   4.278   3.294   9.083  0.5984  2.5656 -2.7263
   86SAPS  C218 8220   4.390   3.222   8.924  0.5556 -0.4290  0.2426
   86SAPS  H18R 8221   4.342   3.125   8.899  0.3859 -0.1700 -0.4678
   86SAPS  H18S 8222   4.499   3.219   8.905  1.1582  2.4801  2.4694
   86SAPS  C219 8223   4.334   3.331   8.831 -0.1307 -0.6956 -0.0785
   86SAPS  H19R 8224   4.349   3.300   8.725 -1.8031 -1.8125 -0.0255
   86SAPS  H19S 8225   4.394   3.424   8.844 -0.6505  0.0840 -2.6047
   86SAPS  C220 8226   4.194   3.370   8.855 -0.1175  0.1709 -0.2761
   86SAPS  H20R 8227   4.187   3.419   8.955  1.2197 -0.3676  0.1026
   86SAPS  H20S 8228   4.130   3.279   8.847 -0.5375  0.0336  2.9590
   86SAPS  H20T 8229   4.166   3.445   8.778  0.1005  0.2186 -0.3090
   86SAPS   C33 8230   4.014   3.611  10.356  0.0193 -0.3841 -0.0860
   86SAPS   H3X 8231   3.928   3.674  10.383  0.9772  0.6509  0.6299
   86SAPS   H3Y 8232   3.974   3.510  10.330 -0.0374 -0.5548  0.6415
   86SAPS   C34 8233   4.064   3.669  10.222 -0.2128  0.2375 -0.4030
   86SAPS   H4X 8234   4.161   3.615  10.210 -1.3410 -1.3349 -3.4657
   86SAPS   H4Y 8235   4.101   3.773  10.240  0.3697  0.0132 -0.2889
   86SAPS   C35 8236   3.975   3.653  10.101  0.2424  0.0581 -0.1466
   86SAPS   H5X 8237   3.875   3.699  10.112 -1.6869 -2.5775 -4.1758
   86SAPS   H5Y 8238   3.955   3.544  10.095  2.3003 -0.5852  2.6225
   86SAPS   C36 8239   4.033   3.705   9.966  0.2586  0.4037  0.4783
   86SAPS   H6X 8240   4.138   3.673   9.946  0.2751  1.9374 -2.2853
   86SAPS   H6Y 8241   4.045   3.813   9.986 -0.2414  0.3827  0.9179
   86SAPS   C37 8242   3.943   3.671   9.849 -0.3454  0.0283 -0.0278
   86SAPS   H7X 8243   3.840   3.711   9.863 -0.8560 -0.2311 -2.6120
   86SAPS   H7Y 8244   3.929   3.563   9.827  2.1530 -0.1451 -1.1660
   86SAPS   C38 8245   4.000   3.743   9.723  0.5722 -0.6968 -0.1149
   86SAPS   H8X 8246   4.110   3.726   9.720  0.3148 -2.4697 -0.9466
   86SAPS   H8Y 8247   3.989   3.853   9.728 -0.2191 -0.7446 -0.6318
   86SAPS   C39 8248   3.932   3.683   9.599  0.0371  0.3168  0.5126
   86SAPS   H9X 8249   3.831   3.730   9.595  0.6182  1.5179 -0.7589
   86SAPS   H9Y 8250   3.921   3.572   9.607  3.2570 -0.3208 -1.9744
   86SAPS  C310 8251   4.011   3.697   9.464  0.8711 -0.7708 -0.0101
   86SAPS  H10X 8252   4.110   3.648   9.478  0.4720 -2.1932 -1.7202
   86SAPS  H10Y 8253   4.015   3.803   9.430 -0.2941 -0.9335 -0.6967
   86SAPS  C311 8254   3.958   3.618   9.347 -0.2267 -0.6069 -0.1166
   86SAPS  H11X 8255   4.020   3.650   9.260  0.0024 -0.3010  0.1588
   86SAPS  H11Y 8256   3.850   3.631   9.324  0.1993 -0.9478 -2.6411
   86SAPS  C312 8257   3.988   3.470   9.356  0.8450 -0.1375  0.5443
   86SAPS  H12X 8258   3.904   3.428   9.415  0.5681 -1.5160 -0.7695
   86SAPS  H12Y 8259   4.082   3.441   9.406  1.2711  0.5532  0.1648
   86SAPS  C313 8260   3.978   3.382   9.229 -0.2455  0.1063  0.7975
   86SAPS  H13X 8261   3.989   3.274   9.251  0.1046 -0.5403 -2.2211
   86SAPS  H13Y 8262   4.062   3.417   9.165 -1.3093 -1.4589 -1.5839
   86SAPS  C314 8263   3.851   3.401   9.146 -0.3529  0.0324 -0.1203
   86SAPS  H14X 8264   3.836   3.504   9.106 -1.4990 -0.9002 -2.2273
   86SAPS  H14Y 8265   3.762   3.376   9.207 -0.2550  1.2610  0.5547
   86SAPS  C315 8266   3.867   3.311   9.023 -0.4569  0.2852  0.3367
   86SAPS  H15X 8267   3.896   3.218   9.077  1.1539  0.9763  0.7146
   86SAPS  H15Y 8268   3.954   3.350   8.968  0.0541 -0.2069  0.7847
   86SAPS  C316 8269   3.747   3.274   8.943  0.3861 -0.4803 -0.5849
   86SAPS  H16X 8270   3.709   3.368   8.898  1.3356  0.5361  0.6540
   86SAPS  H16Y 8271   3.672   3.247   9.021  0.1535  1.6055 -0.0246
   86SAPS  C317 8272   3.751   3.168   8.834 -0.6190  0.1946 -0.2765
   86SAPS  H17X 8273   3.794   3.227   8.750 -0.6677  0.3753 -0.1754
   86SAPS  H17Y 8274   3.647   3.138   8.812 -0.3997 -0.3361 -0.6056
   86SAPS  C318 8275   3.817   3.028   8.853 -0.1799 -0.9738 -0.0657
   86SAPS  H18X 8276   3.814   2.978   8.754  0.6427  0.8275 -1.0414
   86SAPS  H18Y 8277   3.754   2.979   8.931 -0.6838 -0.0513  0.1249
   86SAPS  H18Z 8278   3.924   3.033   8.880  1.0057  2.3356 -4.3764
   87SAPS     N 8279   4.527   2.625  11.323  0.3115  0.0829 -0.4022
   87SAPS   HN1 8280   4.548   2.679  11.410  2.7465 -2.8218  0.9987
   87SAPS   HN2 8281   4.456   2.680  11.271  1.1082 -0.0288 -1.6524
   87SAPS   HN3 8282   4.497   2.532  11.356  0.7394  0.3966  0.9327
   87SAPS   C12 8283   4.652   2.612  11.245  0.3665 -0.5175  0.4354
   87SAPS  H12A 8284   4.706   2.705  11.245  0.2258 -0.3738 -1.7939
   87SAPS   C13 8285   4.746   2.490  11.278  0.3348  0.3698 -0.2238
   87SAPS  O13A 8286   4.724   2.435  11.388 -0.0022 -0.0664 -0.2997
   87SAPS  O13B 8287   4.849   2.478  11.216 -0.3097  0.6430 -0.6898
   87SAPS   C11 8288   4.612   2.595  11.089  0.3706  0.2493 -1.1480
   87SAPS  H11A 8289   4.573   2.491  11.077 -4.1059  1.0764  2.9357
   87SAPS  H11B 8290   4.708   2.598  11.033  1.4342 -1.3726  0.4684
   87SAPS     P 8291   4.576   2.831  10.982 -0.1837  0.1192 -0.1040
   87SAPS   O13 8292   4.467   2.925  10.963  0.0547  0.1768  0.5615
   87SAPS   O14 8293   4.698   2.885  11.050 -0.1821  0.4509  0.0470
   87SAPS   O12 8294   4.519   2.700  11.050 -0.4719  0.6655  0.3001
   87SAPS   O11 8295   4.629   2.790  10.840 -0.1448 -0.3005  0.3164
   87SAPS    C1 8296   4.542   2.715  10.744  0.2484 -0.4106 -0.3252
   87SAPS    HA 8297   4.594   2.617  10.733  1.2237  0.0411  0.0768
   87SAPS    HB 8298   4.437   2.722  10.780 -0.6378 -0.3789 -2.7515
   87SAPS    C2 8299   4.545   2.790  10.606 -0.0467 -0.6714  0.3592
   87SAPS    HS 8300   4.489   2.729  10.532 -0.0602 -0.0605 -0.1413
   87SAPS   O21 8301   4.685   2.799  10.571 -0.0236 -0.3971 -0.4761
   87SAPS   C21 8302   4.708   2.806  10.441 -0.2266  0.3279  0.6710
   87SAPS   O22 8303   4.628   2.831  10.356  0.1690  0.0693 -0.1380
   87SAPS   C22 8304   4.857   2.790  10.409  0.2275  0.0337 -0.0554
   87SAPS   H2R 8305   4.910   2.882  10.440 -0.3646  0.4375 -0.2103
   87SAPS   H2S 8306   4.888   2.708  10.477  0.9302  1.7970  1.8485
   87SAPS    C3 8307   4.476   2.936  10.621 -0.7543  0.7215 -0.0047
   87SAPS    HX 8308   4.552   2.994  10.678 -0.2437  0.0219  0.0414
   87SAPS    HY 8309   4.379   2.920  10.674  0.0389 -1.8378  0.8267
   87SAPS   O31 8310   4.467   2.988  10.492 -0.1624  0.0901 -0.0271
   87SAPS   C31 8311   4.355   2.945  10.425 -0.4411 -0.0438  0.3343
   87SAPS   O32 8312   4.261   2.885  10.476 -0.3926 -0.3196 -0.0134
   87SAPS   C32 8313   4.371   3.005  10.279  0.2509  0.1627 -0.0996
   87SAPS   H2X 8314   4.482   3.015  10.271  0.0762  1.4967 -1.4136
   87SAPS   H2Y 8315   4.327   3.106  10.290 -3.3372 -0.9530 -2.4158
   87SAPS   C23 8316   4.884   2.768  10.254  0.0176  0.5006 -0.5610
   87SAPS   H3R 8317   4.855   2.860  10.199 -1.4672 -0.4982 -1.5204
   87SAPS   H3S 8318   4.820   2.694  10.202 -1.1429  2.7720 -2.5706
   87SAPS   C24 8319   5.034   2.746  10.221  0.0295  0.4251  0.0382
   87SAPS   H4R 8320   5.099   2.829  10.255 -1.2224  0.3834  2.8154
   87SAPS   H4S 8321   5.040   2.734  10.111 -1.1089  1.5914 -0.1732
   87SAPS   C25 8322   5.078   2.621  10.299  0.0257 -0.3315 -0.1052
   87SAPS   H5R 8323   5.082   2.632  10.409  1.9828  0.4268 -0.2196
   87SAPS   C26 8324   5.102   2.501  10.245  0.1222 -0.0511 -0.5004
   87SAPS   H6R 8325   5.123   2.415  10.310 -0.3825 -0.2328 -0.5693
   87SAPS   C27 8326   5.093   2.474  10.097 -0.6589  0.4772 -0.1400
   87SAPS   H7R 8327   5.145   2.376  10.082  1.6487  1.5274  0.5670
   87SAPS   H7S 8328   5.147   2.551  10.038 -1.3989  1.8015  0.8690
   87SAPS   C28 8329   4.952   2.473  10.047  0.2965  0.9945 -0.4950
   87SAPS   H8R 8330   4.883   2.431  10.122  1.3850 -0.3346 -0.1851
   87SAPS   C29 8331   4.911   2.507   9.926 -0.2560  0.7870 -0.9530
   87SAPS   H9R 8332   4.805   2.494   9.899  0.4376 -2.8274 -2.4980
   87SAPS  C210 8333   4.999   2.545   9.813  0.1068 -0.5868  0.3856
   87SAPS  H10R 8334   5.067   2.622   9.857 -0.5687  0.8925 -1.0636
   87SAPS  H10S 8335   4.933   2.606   9.747 -0.0240 -2.1883 -1.0499
   87SAPS  C211 8336   5.089   2.436   9.745  0.1477 -0.5148  0.6731
   87SAPS  H11R 8337   5.196   2.440   9.768 -0.4143  1.8706  3.5237
   87SAPS  C212 8338   5.053   2.371   9.641  0.0919  0.1877 -0.0564
   87SAPS  H12R 8339   5.114   2.284   9.614  2.1791  2.1399 -1.9952
   87SAPS  C213 8340   4.918   2.366   9.577 -0.2931  0.1574  0.5521
   87SAPS  H13R 8341   4.928   2.427   9.485 -1.9068  2.4272  1.7836
   87SAPS  H13S 8342   4.838   2.413   9.638  0.0624 -0.2517  1.3533
   87SAPS  C214 8343   4.880   2.226   9.535  0.5538 -0.4846 -0.2432
   87SAPS  H14R 8344   4.854   2.156   9.616 -2.9622  0.9165  0.0218
   87SAPS  C215 8345   4.917   2.172   9.415  0.5287  0.1184  0.0330
   87SAPS  H15R 8346   4.888   2.068   9.398 -0.1634  0.4787 -1.1154
   87SAPS  C216 8347   4.987   2.244   9.302  0.3105  1.1077 -0.8540
   87SAPS  H16R 8348   5.044   2.165   9.249 -2.3184 -2.8622  1.6896
   87SAPS  H16S 8349   5.043   2.334   9.335 -1.8139  1.9220  0.7406
   87SAPS  C217 8350   4.881   2.286   9.190 -0.1649 -0.2621  0.2275
   87SAPS  H17R 8351   4.821   2.368   9.235  0.1747 -0.1135  0.4043
   87SAPS  H17S 8352   4.819   2.200   9.156 -0.2639 -0.5691  1.1371
   87SAPS  C218 8353   4.939   2.325   9.059  0.4468  0.5184 -0.0392
   87SAPS  H18R 8354   5.005   2.243   9.023  1.5600  1.9589 -1.4588
   87SAPS  H18S 8355   5.006   2.413   9.072 -0.2889  0.6083  5.0736
   87SAPS  C219 8356   4.837   2.358   8.960 -0.0468 -0.9448  0.1944
   87SAPS  H19R 8357   4.788   2.454   8.987  0.3052 -0.5831 -0.4296
   87SAPS  H19S 8358   4.755   2.283   8.961  0.4377 -1.4917 -0.2233
   87SAPS  C220 8359   4.897   2.377   8.821  0.1574  0.8194 -0.9699
   87SAPS  H20R 8360   4.965   2.465   8.812 -0.9843  1.6992 -1.3018
   87SAPS  H20S 8361   4.810   2.393   8.753 -1.6097  1.9180  1.3994
   87SAPS  H20T 8362   4.949   2.282   8.798  3.3394  2.3458 -0.5379
   87SAPS   C33 8363   4.294   2.933  10.166  0.5073 -0.5649 -0.2674
   87SAPS   H3X 8364   4.185   2.957  10.169  0.4509 -0.7205 -0.9126
   87SAPS   H3Y 8365   4.293   2.825  10.191 -0.4233 -0.4551  0.2385
   87SAPS   C34 8366   4.350   2.959  10.027  0.6178 -0.2097 -0.2332
   87SAPS   H4X 8367   4.346   3.069  10.013  1.7438 -0.1612 -0.2090
   87SAPS   H4Y 8368   4.282   2.916   9.950  0.1377  1.5097 -0.8161
   87SAPS   C35 8369   4.485   2.901  10.008 -0.4802 -0.5745 -0.7451
   87SAPS   H5X 8370   4.492   2.798  10.050  1.8489 -0.8022 -1.5742
   87SAPS   H5Y 8371   4.566   2.954  10.063 -0.9013 -0.9833  0.3172
   87SAPS   C36 8372   4.533   2.902   9.870  0.8264  0.3276 -0.1211
   87SAPS   H6X 8373   4.521   3.008   9.841 -0.6399  0.1560 -0.2266
   87SAPS   H6Y 8374   4.462   2.846   9.805  2.4986 -0.9758 -0.9287
   87SAPS   C37 8375   4.671   2.831   9.861 -0.1116 -0.1444  0.2247
   87SAPS   H7X 8376   4.657   2.723   9.885  0.2483 -0.6780 -1.7734
   87SAPS   H7Y 8377   4.737   2.881   9.935 -1.8009  0.6134  1.2762
   87SAPS   C38 8378   4.732   2.833   9.720  0.4750  0.0516  0.7503
   87SAPS   H8X 8379   4.841   2.812   9.721  0.3608 -0.6037  1.7882
   87SAPS   H8Y 8380   4.721   2.932   9.672  0.4236 -0.6189 -0.6767
   87SAPS   C39 8381   4.663   2.731   9.619 -1.0616  0.1897 -0.6300
   87SAPS   H9X 8382   4.562   2.712   9.661  0.1386  2.0567  3.5971
   87SAPS   H9Y 8383   4.729   2.642   9.612 -1.3569 -0.1624  0.7864
   87SAPS  C310 8384   4.647   2.794   9.483 -1.1068 -0.0086  0.0283
   87SAPS  H10X 8385   4.748   2.835   9.461 -0.0886 -2.1787  0.3445
   87SAPS  H10Y 8386   4.563   2.866   9.477 -0.7806  0.6115  2.1523
   87SAPS  C311 8387   4.623   2.689   9.364 -0.3132 -0.6251  0.3335
   87SAPS  H11X 8388   4.523   2.642   9.377  0.4515 -2.9331 -1.3425
   87SAPS  H11Y 8389   4.709   2.619   9.371  1.3285  1.1530 -0.8312
   87SAPS  C312 8390   4.637   2.770   9.231 -0.6760  0.1777  0.5593
   87SAPS  H12X 8391   4.726   2.836   9.227  0.4715 -1.2746  1.1532
   87SAPS  H12Y 8392   4.545   2.832   9.227 -0.7015  0.2982  2.2397
   87SAPS  C313 8393   4.651   2.686   9.108 -0.3112  0.2963 -0.5534
   87SAPS  H13X 8394   4.584   2.598   9.112 -0.4774  0.4617  1.6809
   87SAPS  H13Y 8395   4.756   2.650   9.106 -0.4009 -0.1667  1.0423
   87SAPS  C314 8396   4.624   2.773   8.988 -0.2687  0.2665  0.4771
   87SAPS  H14X 8397   4.691   2.861   8.996  0.3297 -0.0578 -0.6971
   87SAPS  H14Y 8398   4.519   2.809   8.983  0.2670  2.1340  1.7714
   87SAPS  C315 8399   4.648   2.700   8.857 -0.8115  0.3953 -0.6521
   87SAPS  H15X 8400   4.607   2.597   8.858  0.6400 -0.2047 -0.0417
   87SAPS  H15Y 8401   4.756   2.683   8.834 -0.5516  0.4711  0.4500
   87SAPS  C316 8402   4.588   2.763   8.730 -0.4563  0.4846  0.1851
   87SAPS  H16X 8403   4.614   2.871   8.734 -0.8878  0.5495  1.9555
   87SAPS  H16Y 8404   4.479   2.753   8.742 -0.3875  0.7513  1.1034
   87SAPS  C317 8405   4.623   2.686   8.599  0.3884 -0.8196  0.3589
   87SAPS  H17X 8406   4.644   2.582   8.631 -0.0382 -0.2236  2.7171
   87SAPS  H17Y 8407   4.717   2.715   8.548  0.1243 -1.6463 -0.6564
   87SAPS  C318 8408   4.506   2.699   8.497 -0.5185  0.1498  0.2785
   87SAPS  H18X 8409   4.463   2.801   8.498 -0.4877  0.1606  0.5516
   87SAPS  H18Y 8410   4.431   2.624   8.532  1.0985 -1.9691 -0.5284
   87SAPS  H18Z 8411   4.527   2.653   8.398 -0.1228 -1.2301  0.9700
   88SAPS     N 8412   1.790   6.693  10.956 -0.5967 -0.2337 -0.5845
   88SAPS   HN1 8413   1.842   6.603  10.957  2.4011  1.3507 -1.2866
   88SAPS   HN2 8414   1.687   6.684  10.962 -0.6534  0.7054  0.2262
   88SAPS   HN3 8415   1.806   6.752  10.872 -0.8343  2.1345  0.9284
   88SAPS   C12 8416   1.844   6.790  11.064 -0.1150 -0.4833  0.6927
   88SAPS  H12A 8417   1.789   6.765  11.154 -1.4538  0.8437  0.2838
   88SAPS   C13 8418   1.984   6.789  11.100 -0.0296 -0.1936  0.1748
   88SAPS  O13A 8419   2.064   6.719  11.033  0.0638  0.0131 -0.4928
   88SAPS  O13B 8420   2.004   6.825  11.217 -0.3486 -0.0756 -0.4776
   88SAPS   C11 8421   1.808   6.932  11.008  0.5425 -0.1735  0.0655
   88SAPS  H11A 8422   1.860   6.950  10.911  0.7222  0.7659  0.3274
   88SAPS  H11B 8423   1.851   7.001  11.084 -0.3680  1.1608 -0.5777
   88SAPS     P 8424   1.600   7.090  10.991 -0.0198  0.2777  0.4371
   88SAPS   O13 8425   1.452   7.072  10.967 -0.5588  0.2780  0.4162
   88SAPS   O14 8426   1.639   7.172  11.107  0.5546  0.5497 -0.0213
   88SAPS   O12 8427   1.669   6.946  10.990  0.1295 -0.2693 -0.6488
   88SAPS   O11 8428   1.658   7.159  10.862  0.2097  0.6400  0.2964
   88SAPS    C1 8429   1.628   7.091  10.737  0.6877 -0.1571  0.3877
   88SAPS    HA 8430   1.679   6.992  10.738  2.3800  0.6780  0.7377
   88SAPS    HB 8431   1.519   7.073  10.724  0.3287 -2.7578  4.9110
   88SAPS    C2 8432   1.701   7.167  10.615 -0.2173 -0.1841 -0.1379
   88SAPS    HS 8433   1.808   7.185  10.641  0.1651  1.6160 -2.6266
   88SAPS   O21 8434   1.631   7.295  10.598 -0.0547 -0.1420  0.0991
   88SAPS   C21 8435   1.709   7.397  10.548  0.7317  0.1828 -0.1976
   88SAPS   O22 8436   1.832   7.387  10.541  0.0860  0.1689 -0.5670
   88SAPS   C22 8437   1.625   7.501  10.494  0.2874  0.2088  0.6404
   88SAPS   H2R 8438   1.544   7.517  10.569 -0.1044 -0.6932  0.4242
   88SAPS   H2S 8439   1.683   7.595  10.484  0.4014  0.4601  3.0741
   88SAPS    C3 8440   1.692   7.075  10.490  0.3670  0.3636  0.8590
   88SAPS    HX 8441   1.586   7.042  10.497 -0.3698  2.4366  0.2382
   88SAPS    HY 8442   1.769   6.995  10.494 -1.9455 -2.0688 -0.1913
   88SAPS   O31 8443   1.705   7.150  10.362 -0.3191 -0.5675  0.2021
   88SAPS   C31 8444   1.677   7.074  10.258 -0.2285  0.1132 -0.1848
   88SAPS   O32 8445   1.638   6.957  10.262 -0.3958 -0.3443 -0.0759
   88SAPS   C32 8446   1.689   7.155  10.127  0.8774 -0.4430 -0.0690
   88SAPS   H2X 8447   1.680   7.262  10.158  1.5495  0.1404 -1.7370
   88SAPS   H2Y 8448   1.594   7.134  10.072  0.1988 -2.0401  1.6217
   88SAPS   C23 8449   1.585   7.462  10.348  0.1556 -0.1375 -0.0457
   88SAPS   H3R 8450   1.538   7.362  10.342 -2.7104  1.1059  0.0194
   88SAPS   H3S 8451   1.683   7.460  10.295 -0.4862 -0.4321 -1.2765
   88SAPS   C24 8452   1.499   7.561  10.272  0.3965  0.4166  0.2230
   88SAPS   H4R 8453   1.558   7.654  10.288  0.4263  0.4110  0.1480
   88SAPS   H4S 8454   1.399   7.575  10.318  0.0397 -0.5905 -0.2075
   88SAPS   C25 8455   1.491   7.515  10.128 -0.0245  0.3645 -0.1648
   88SAPS   H5R 8456   1.441   7.417  10.130  0.1741  0.1849 -2.1015
   88SAPS   C26 8457   1.524   7.583  10.016  0.2147  0.3163 -0.2104
   88SAPS   H6R 8458   1.507   7.537   9.918 -1.9523  2.3512 -0.8893
   88SAPS   C27 8459   1.577   7.724  10.020 -0.8268  0.0447  0.6182
   88SAPS   H7R 8460   1.548   7.760  10.121  1.2511 -1.2412  1.7251
   88SAPS   H7S 8461   1.520   7.784   9.946 -2.0540 -2.7626 -0.8828
   88SAPS   C28 8462   1.721   7.731   9.987  0.6700 -0.0124 -0.8116
   88SAPS   H8R 8463   1.788   7.736  10.074  1.5865 -0.4129 -1.4801
   88SAPS   C29 8464   1.762   7.743   9.861  0.6676 -0.8795 -0.4525
   88SAPS   H9R 8465   1.869   7.759   9.843  0.7082  0.0899  0.5671
   88SAPS  C210 8466   1.683   7.742   9.725 -0.8057 -0.0538 -0.6423
   88SAPS  H10R 8467   1.602   7.667   9.711  0.2056 -1.4650  0.7326
   88SAPS  H10S 8468   1.752   7.718   9.641 -2.1738  0.9299 -2.0953
   88SAPS  C211 8469   1.627   7.883   9.709  0.0462 -0.5955  0.7987
   88SAPS  H11R 8470   1.596   7.928   9.804 -2.3579 -1.3150  0.4366
   88SAPS  C212 8471   1.627   7.952   9.590 -0.6152 -0.1258 -0.4111
   88SAPS  H12R 8472   1.569   8.045   9.579 -1.5604 -0.6527  0.0105
   88SAPS  C213 8473   1.672   7.910   9.451  0.6863 -0.1997 -0.9692
   88SAPS  H13R 8474   1.701   7.803   9.449 -0.0087 -0.4849  1.4603
   88SAPS  H13S 8475   1.765   7.971   9.441 -0.2005  0.8407 -3.6676
   88SAPS  C214 8476   1.569   7.924   9.347  0.0638  0.2320  0.0162
   88SAPS  H14R 8477   1.465   7.893   9.366 -0.4034 -0.0070 -2.5734
   88SAPS  C215 8478   1.578   7.986   9.232  0.2268 -0.6940  0.2525
   88SAPS  H15R 8479   1.490   7.977   9.166  1.0404 -1.6262 -0.7522
   88SAPS  C216 8480   1.695   8.066   9.186  0.2248  0.1599  0.6534
   88SAPS  H16R 8481   1.767   8.076   9.270 -0.9224  0.3739  1.6428
   88SAPS  H16S 8482   1.665   8.170   9.159 -3.1952 -1.3282 -2.0377
   88SAPS  C217 8483   1.752   8.009   9.055 -0.7606  0.2218 -1.2874
   88SAPS  H17R 8484   1.675   7.968   8.987 -0.1504 -0.9882 -1.2648
   88SAPS  H17S 8485   1.827   7.933   9.086  0.9465  2.3072 -0.0310
   88SAPS  C218 8486   1.834   8.132   8.988 -0.4262 -0.2524  0.7282
   88SAPS  H18R 8487   1.764   8.215   8.962 -0.0601  0.4983  2.0265
   88SAPS  H18S 8488   1.871   8.083   8.895 -1.6779 -1.1849  0.6888
   88SAPS  C219 8489   1.943   8.197   9.084  0.1746 -0.3410  0.7459
   88SAPS  H19R 8490   2.031   8.129   9.079 -0.8299 -1.6342  0.0823
   88SAPS  H19S 8491   1.913   8.212   9.190  0.1066 -1.2447  0.8579
   88SAPS  C220 8492   1.982   8.337   9.042 -0.0760  0.8785  0.1900
   88SAPS  H20R 8493   1.906   8.413   9.069 -0.8526 -0.9990  4.0013
   88SAPS  H20S 8494   2.004   8.362   8.936 -0.2730 -0.5300 -0.2178
   88SAPS  H20T 8495   2.076   8.362   9.095 -0.3731  1.5832  0.3870
   88SAPS   C33 8496   1.817   7.132  10.055  0.8257 -0.5039  0.1950
   88SAPS   H3X 8497   1.843   7.025  10.039 -2.1758 -1.6706  2.3620
   88SAPS   H3Y 8498   1.898   7.180  10.115  0.4710 -1.1985  1.2580
   88SAPS   C34 8499   1.799   7.197   9.912 -0.3084 -0.7943 -0.6965
   88SAPS   H4X 8500   1.900   7.216   9.870 -0.0559  0.2191  0.3270
   88SAPS   H4Y 8501   1.762   7.300   9.931 -0.3993 -0.9983  0.2872
   88SAPS   C35 8502   1.702   7.122   9.817  0.4933 -0.1079 -0.1082
   88SAPS   H5X 8503   1.610   7.084   9.867  1.1144  0.1938  1.3087
   88SAPS   H5Y 8504   1.748   7.033   9.769  0.3233 -2.2776  3.3782
   88SAPS   C36 8505   1.655   7.216   9.703  0.1310 -1.1227  0.1811
   88SAPS   H6X 8506   1.619   7.314   9.742  2.5897 -0.2620  0.4621
   88SAPS   H6Y 8507   1.577   7.164   9.644  0.7036  0.4936 -2.1323
   88SAPS   C37 8508   1.776   7.233   9.600 -0.0035  0.1287 -0.1170
   88SAPS   H7X 8509   1.833   7.138   9.588 -1.1004 -0.6013  0.3178
   88SAPS   H7Y 8510   1.846   7.304   9.650 -0.4117  1.6637 -1.6614
   88SAPS   C38 8511   1.722   7.288   9.471 -0.0659 -0.4820 -0.2071
   88SAPS   H8X 8512   1.651   7.212   9.432  1.1521 -1.4645 -0.5512
   88SAPS   H8Y 8513   1.806   7.284   9.398  0.6231 -0.7850  0.5928
   88SAPS   C39 8514   1.670   7.422   9.485 -0.5787 -0.0623 -0.3200
   88SAPS   H9X 8515   1.748   7.495   9.518 -1.1127  0.7850 -0.9056
   88SAPS   H9Y 8516   1.592   7.424   9.564  1.9758  1.8423  2.3890
   88SAPS  C310 8517   1.608   7.483   9.360  0.0697 -0.8507  0.5145
   88SAPS  H10X 8518   1.564   7.578   9.397  0.7803 -1.3908  2.9406
   88SAPS  H10Y 8519   1.529   7.411   9.331 -0.9897  0.2627  0.5500
   88SAPS  C311 8520   1.697   7.505   9.237 -0.3830  0.0286 -0.2455
   88SAPS  H11X 8521   1.717   7.410   9.184  0.2753  0.1259 -0.1791
   88SAPS  H11Y 8522   1.797   7.541   9.270  0.6688 -1.8362 -1.2297
   88SAPS  C312 8523   1.659   7.611   9.132  0.4388  0.0252  0.2595
   88SAPS  H12X 8524   1.726   7.594   9.045  1.2047 -0.0977  0.8674
   88SAPS  H12Y 8525   1.679   7.715   9.165 -0.2941  0.9229 -1.8813
   88SAPS  C313 8526   1.518   7.602   9.088  0.1566  0.3685  0.2798
   88SAPS  H13X 8527   1.463   7.663   9.163  1.0469  2.6321 -0.8004
   88SAPS  H13Y 8528   1.484   7.497   9.100  0.3563  0.2060 -0.4918
   88SAPS  C314 8529   1.483   7.665   8.959 -0.0221 -0.6677  0.6541
   88SAPS  H14X 8530   1.515   7.771   8.964 -1.3873 -0.1068 -1.3847
   88SAPS  H14Y 8531   1.372   7.660   8.958 -0.0382 -0.8216  1.8835
   88SAPS  C315 8532   1.538   7.598   8.829 -0.0739 -0.0921  0.3051
   88SAPS  H15X 8533   1.483   7.501   8.834  0.1518 -0.1726  1.8486
   88SAPS  H15Y 8534   1.643   7.567   8.850 -0.1391  0.0991  0.9603
   88SAPS  C316 8535   1.529   7.693   8.701  0.0305  1.6044  0.3183
   88SAPS  H16X 8536   1.426   7.731   8.685 -0.0645  2.0308  1.7496
   88SAPS  H16Y 8537   1.546   7.638   8.606  0.1316 -0.1181  1.3001
   88SAPS  C317 8538   1.615   7.824   8.701  0.2034  0.2578  0.0613
   88SAPS  H17X 8539   1.618   7.866   8.803 -4.1291 -0.3834  0.6294
   88SAPS  H17Y 8540   1.579   7.895   8.624 -0.9691 -1.3830 -0.9905
   88SAPS  C318 8541   1.767   7.816   8.652  0.2664 -0.0367 -0.5464
   88SAPS  H18X 8542   1.824   7.762   8.731  0.6756  1.7557  0.4202
   88SAPS  H18Y 8543   1.819   7.914   8.656  1.4394 -0.5917  4.1329
   88SAPS  H18Z 8544   1.775   7.752   8.561  0.8861 -2.8723  1.3581
   89SAPS     N 8545   5.434   3.568  10.745 -0.8155  0.0950 -0.0989
   89SAPS   HN1 8546   5.476   3.479  10.779  0.0680  0.4689 -0.1963
   89SAPS   HN2 8547   5.331   3.565  10.761 -0.8630  0.1111 -0.3885
   89SAPS   HN3 8548   5.458   3.566  10.644  0.3287  0.9812  0.1423
   89SAPS   C12 8549   5.489   3.690  10.809 -0.6034 -0.1347  0.5168
   89SAPS  H12A 8550   5.415   3.765  10.783 -0.2409  0.0312 -0.0486
   89SAPS   C13 8551   5.492   3.698  10.964 -0.3007  0.2066  0.0604
   89SAPS  O13A 8552   5.440   3.613  11.038  0.0065 -0.4725  0.3195
   89SAPS  O13B 8553   5.531   3.807  11.013  0.0439  0.4141 -0.2811
   89SAPS   C11 8554   5.627   3.708  10.741 -0.5157  0.3789 -0.1469
   89SAPS  H11A 8555   5.670   3.801  10.782 -1.3643  1.1374 -0.9373
   89SAPS  H11B 8556   5.612   3.725  10.632 -1.2506  2.0159  0.1766
   89SAPS     P 8557   5.805   3.516  10.699 -0.0540 -0.2565 -0.1227
   89SAPS   O13 8558   5.950   3.522  10.743  0.4236  1.2603  0.1483
   89SAPS   O14 8559   5.746   3.378  10.707 -0.5529  0.1593 -0.3512
   89SAPS   O12 8560   5.718   3.611  10.780  0.1196  0.1014  0.1900
   89SAPS   O11 8561   5.786   3.555  10.553  0.1942 -0.5621 -0.5342
   89SAPS    C1 8562   5.848   3.673  10.498 -0.6381  0.0039  0.2407
   89SAPS    HA 8563   5.784   3.763  10.500 -0.7318 -0.0223 -0.9227
   89SAPS    HB 8564   5.945   3.704  10.543 -0.5469  1.9343 -1.1869
   89SAPS    C2 8565   5.891   3.658  10.348 -0.3987 -0.1386 -0.1452
   89SAPS    HS 8566   5.802   3.687  10.288 -1.3819 -0.1424  1.2659
   89SAPS   O21 8567   5.946   3.526  10.320 -0.2918 -0.6918  0.2967
   89SAPS   C21 8568   5.850   3.434  10.292  0.2889  0.4153  0.1302
   89SAPS   O22 8569   5.733   3.465  10.285 -0.0881 -0.0026  0.1016
   89SAPS   C22 8570   5.907   3.298  10.280  0.6858  0.2101  0.8120
   89SAPS   H2R 8571   6.015   3.300  10.255  0.3615 -2.2226 -1.2612
   89SAPS   H2S 8572   5.904   3.246  10.378  2.1388 -2.0323 -0.2497
   89SAPS    C3 8573   6.008   3.755  10.306  0.7415 -0.7736 -0.5860
   89SAPS    HX 8574   6.098   3.706  10.348  0.9710  0.1565  0.0410
   89SAPS    HY 8575   5.974   3.845  10.362  1.7430 -0.4450 -0.4979
   89SAPS   O31 8576   6.020   3.780  10.165 -0.1316  0.1284  0.2962
   89SAPS   C31 8577   6.084   3.687  10.095  0.3162 -0.2798  0.7265
   89SAPS   O32 8578   6.134   3.582  10.131 -0.1365 -0.4480 -0.0663
   89SAPS   C32 8579   6.104   3.736   9.954  0.2905 -0.2270  0.3770
   89SAPS   H2X 8580   6.212   3.734   9.929  0.3349 -0.1725  0.5601
   89SAPS   H2Y 8581   6.049   3.831   9.937  1.1226  0.1748 -0.1509
   89SAPS   C23 8582   5.822   3.222  10.164  0.0465 -0.4867  0.3379
   89SAPS   H3R 8583   5.714   3.235  10.184  0.0652  0.8182 -0.3201
   89SAPS   H3S 8584   5.838   3.112  10.164  0.1082 -0.4815  0.7093
   89SAPS   C24 8585   5.847   3.278  10.020  0.2356 -0.6350  0.3967
   89SAPS   H4R 8586   5.856   3.389  10.022  1.4981 -0.7100 -0.1403
   89SAPS   H4S 8587   5.759   3.250   9.957  0.0166 -0.3255  0.5622
   89SAPS   C25 8588   5.967   3.232   9.952  0.7994 -0.0990  0.9169
   89SAPS   H5R 8589   6.052   3.266  10.013  1.1945 -0.7613  0.7353
   89SAPS   C26 8590   5.983   3.166   9.833 -0.1673  0.8620 -0.0031
   89SAPS   H6R 8591   6.086   3.136   9.807  0.0218 -2.4909  3.5971
   89SAPS   C27 8592   5.872   3.124   9.733 -0.2719 -0.2300  0.0200
   89SAPS   H7R 8593   5.779   3.180   9.757  1.3034  2.9216 -0.6504
   89SAPS   H7S 8594   5.854   3.015   9.746 -2.5104 -0.3003 -2.8373
   89SAPS   C28 8595   5.903   3.178   9.594 -0.9112  0.1899  0.2925
   89SAPS   H8R 8596   5.987   3.249   9.583 -1.5789  0.9119 -0.2205
   89SAPS   C29 8597   5.842   3.141   9.481  0.0239 -0.2778 -0.2530
   89SAPS   H9R 8598   5.873   3.192   9.388  2.2568 -2.2817 -0.7365
   89SAPS  C210 8599   5.723   3.061   9.473 -0.7357  0.8891  0.1173
   89SAPS  H10R 8600   5.634   3.126   9.458 -1.4354 -0.3709 -1.5020
   89SAPS  H10S 8601   5.694   3.009   9.567  2.0289  0.3585  0.7501
   89SAPS  C211 8602   5.727   2.962   9.365 -0.2185  0.3817  0.0877
   89SAPS  H11R 8603   5.747   2.865   9.414  0.0082 -0.1096 -0.9599
   89SAPS  C212 8604   5.688   2.974   9.235 -0.1793  0.2299 -0.3869
   89SAPS  H12R 8605   5.707   2.885   9.173 -0.7214 -0.1638  0.0045
   89SAPS  C213 8606   5.637   3.093   9.149  0.0013 -0.0456 -0.1485
   89SAPS  H13R 8607   5.722   3.139   9.094  0.5946 -3.1414 -2.0451
   89SAPS  H13S 8608   5.598   3.175   9.213 -0.1247 -1.8913  2.2849
   89SAPS  C214 8609   5.517   3.069   9.055 -0.6996 -0.4164 -0.0023
   89SAPS  H14R 8610   5.418   3.065   9.103 -0.2753 -1.1975  0.8298
   89SAPS  C215 8611   5.517   3.046   8.922 -0.6092  0.0629 -0.2385
   89SAPS  H15R 8612   5.424   3.014   8.873 -0.1133 -0.0011 -1.1496
   89SAPS  C216 8613   5.643   3.039   8.839 -0.8938 -0.7109  0.0104
   89SAPS  H16R 8614   5.719   3.114   8.870 -1.5458  0.3649 -0.8669
   89SAPS  H16S 8615   5.627   3.067   8.732  3.6762  0.9962 -0.4330
   89SAPS  C217 8616   5.718   2.902   8.831 -0.0029 -0.2585  0.1729
   89SAPS  H17R 8617   5.666   2.835   8.759  1.4769 -0.8094 -0.4423
   89SAPS  H17S 8618   5.715   2.851   8.929 -1.6245 -3.4322 -1.3828
   89SAPS  C218 8619   5.871   2.914   8.787  0.2488  0.0440  0.7303
   89SAPS  H18R 8620   5.904   2.808   8.789 -1.1102 -0.4209  0.0959
   89SAPS  H18S 8621   5.922   2.964   8.871  0.1382  0.7656  0.3730
   89SAPS  C219 8622   5.901   2.987   8.654  0.9103  0.0997  0.1877
   89SAPS  H19R 8623   5.840   3.079   8.668 -1.6806 -1.1913 -1.5752
   89SAPS  H19S 8624   5.857   2.933   8.567  0.2108 -0.7943  1.0641
   89SAPS  C220 8625   6.043   3.009   8.628 -0.2139 -0.0811 -0.3232
   89SAPS  H20R 8626   6.092   3.047   8.720  2.6645  0.0698 -1.8086
   89SAPS  H20S 8627   6.050   3.067   8.534 -0.8058 -0.7144 -0.7677
   89SAPS  H20T 8628   6.096   2.912   8.613  0.3209 -0.2885  2.3617
   89SAPS   C33 8629   6.042   3.640   9.849  0.4072  0.1803  0.2492
   89SAPS   H3X 8630   5.935   3.620   9.871  0.2926  0.0080 -0.4459
   89SAPS   H3Y 8631   6.096   3.544   9.859  1.2027  0.8192  2.8636
   89SAPS   C34 8632   6.052   3.695   9.710 -0.0494 -0.4622  0.5890
   89SAPS   H4X 8633   6.146   3.749   9.688 -1.3477  1.8368  0.3651
   89SAPS   H4Y 8634   5.976   3.774   9.694 -0.1415 -0.9788 -2.0419
   89SAPS   C35 8635   6.027   3.586   9.605 -0.4720 -0.7794  0.3298
   89SAPS   H5X 8636   5.928   3.541   9.622 -0.2235 -2.4609 -2.1886
   89SAPS   H5Y 8637   6.101   3.505   9.621 -1.0885 -1.4174 -0.0084
   89SAPS   C36 8638   6.027   3.621   9.452  0.2537 -0.6956  0.3839
   89SAPS   H6X 8639   6.129   3.650   9.420  0.5758 -2.4417 -0.2462
   89SAPS   H6Y 8640   5.962   3.709   9.429  0.0599 -1.4228 -2.1356
   89SAPS   C37 8641   5.969   3.510   9.359  0.2313  0.0032  0.4461
   89SAPS   H7X 8642   5.860   3.488   9.370  0.2360 -0.1103  0.2650
   89SAPS   H7Y 8643   6.037   3.423   9.366 -1.4492 -1.2227  3.5328
   89SAPS   C38 8644   5.965   3.547   9.203 -0.2291  0.0633 -1.0306
   89SAPS   H8X 8645   6.074   3.543   9.183  0.4545 -1.8274  2.2818
   89SAPS   H8Y 8646   5.936   3.651   9.181 -3.7317 -0.4808  0.4213
   89SAPS   C39 8647   5.888   3.446   9.118 -0.2868  0.9878  0.0410
   89SAPS   H9X 8648   5.788   3.428   9.164  0.1626 -2.5634 -0.1561
   89SAPS   H9Y 8649   5.950   3.355   9.109 -2.4874 -0.4257 -1.6250
   89SAPS  C310 8650   5.880   3.494   8.978  0.5156 -0.3156  0.5574
   89SAPS  H10X 8651   5.979   3.534   8.945  0.1661  0.2104  0.1224
   89SAPS  H10Y 8652   5.803   3.574   8.977  0.8028 -0.0325 -0.2600
   89SAPS  C311 8653   5.849   3.381   8.872 -0.5067 -0.0709 -0.3364
   89SAPS  H11X 8654   5.783   3.305   8.919  2.3584 -3.1533 -0.9317
   89SAPS  H11Y 8655   5.944   3.336   8.834 -1.2191 -1.3107 -0.7047
   89SAPS  C312 8656   5.795   3.452   8.740 -0.5728  0.4744  0.0536
   89SAPS  H12X 8657   5.814   3.562   8.746  0.4365  0.5863 -3.0909
   89SAPS  H12Y 8658   5.685   3.435   8.735 -0.5755  0.2208  0.8603
   89SAPS  C313 8659   5.859   3.407   8.606 -0.2638  0.2267 -0.6448
   89SAPS  H13X 8660   5.804   3.474   8.536  1.0252  1.3019 -0.6503
   89SAPS  H13Y 8661   5.832   3.302   8.580  3.0220 -1.6567  2.6118
   89SAPS  C314 8662   6.004   3.438   8.584  0.3346  0.2826  0.9376
   89SAPS  H14X 8663   6.068   3.379   8.652 -0.2617  0.3231  1.5454
   89SAPS  H14Y 8664   6.029   3.541   8.620 -0.0640  0.1612  1.5617
   89SAPS  C315 8665   6.049   3.418   8.437  0.2424  0.1313 -0.3395
   89SAPS  H15X 8666   6.009   3.324   8.395 -0.5036  0.6293 -0.7498
   89SAPS  H15Y 8667   6.160   3.413   8.430  0.4261  1.0599  1.3919
   89SAPS  C316 8668   6.006   3.527   8.348 -0.5248  1.1134  0.0874
   89SAPS  H16X 8669   6.006   3.629   8.391 -0.2897  0.7404  0.9819
   89SAPS  H16Y 8670   5.896   3.513   8.333 -0.4389  0.4368  0.0562
   89SAPS  C317 8671   6.073   3.517   8.209 -0.1756 -0.2959 -0.0362
   89SAPS  H17X 8672   6.045   3.418   8.166  1.8695 -0.3211 -1.4221
   89SAPS  H17Y 8673   6.183   3.514   8.220  0.2643  3.1618 -2.0722
   89SAPS  C318 8674   6.036   3.640   8.124 -0.5908 -0.3708  0.0570
   89SAPS  H18X 8675   5.925   3.641   8.118 -0.5926  0.0437  0.1360
   89SAPS  H18Y 8676   6.088   3.634   8.026  1.4663 -0.7525  1.1004
   89SAPS  H18Z 8677   6.076   3.731   8.175  0.2065 -0.1238 -0.9633
   90SAPS     N 8678   0.749   3.317  10.561  0.4687  0.4655  0.5483
   90SAPS   HN1 8679   0.830   3.330  10.496 -0.0555 -0.1904 -0.2682
   90SAPS   HN2 8680   0.700   3.227  10.544 -1.3977  1.8763 -2.5040
   90SAPS   HN3 8681   0.675   3.390  10.548 -1.6280 -1.7754 -1.0444
   90SAPS   C12 8682   0.799   3.319  10.703  0.2137  0.0210 -0.0314
   90SAPS  H12A 8683   0.711   3.306  10.764 -0.7056  2.0702 -0.8290
   90SAPS   C13 8684   0.895   3.205  10.744 -0.2026 -0.3377  0.4985
   90SAPS  O13A 8685   0.930   3.119  10.653 -0.4652 -0.0342  0.2374
   90SAPS  O13B 8686   0.923   3.189  10.866  0.4930 -0.0291 -0.1781
   90SAPS   C11 8687   0.876   3.451  10.713  0.7588 -0.1231 -0.6730
   90SAPS  H11A 8688   0.969   3.448  10.653 -0.1376 -2.8194 -2.0745
   90SAPS  H11B 8689   0.926   3.452  10.813  0.1687 -1.5612 -0.3352
   90SAPS     P 8690   0.853   3.709  10.657  0.1196 -0.0724 -0.0127
   90SAPS   O13 8691   0.740   3.805  10.631  0.4514  0.4190 -0.3931
   90SAPS   O14 8692   0.942   3.747  10.770 -0.2330  0.0716 -0.1756
   90SAPS   O12 8693   0.786   3.567  10.689  0.1823 -0.5783 -0.1291
   90SAPS   O11 8694   0.931   3.681  10.517  0.1762  0.1305 -0.0952
   90SAPS    C1 8695   1.071   3.687  10.499  0.7026 -0.3155  0.1446
   90SAPS    HA 8696   1.118   3.639  10.588 -1.6789 -1.2046  0.9946
   90SAPS    HB 8697   1.093   3.627  10.409 -1.5201 -0.7743 -0.1524
   90SAPS    C2 8698   1.127   3.828  10.484  0.2681 -0.1970  0.9162
   90SAPS    HS 8699   1.085   3.897  10.560  0.7735 -0.3126  1.3079
   90SAPS   O21 8700   1.101   3.884  10.353 -0.9360  0.3590 -0.2525
   90SAPS   C21 8701   1.116   4.016  10.341 -0.5896 -0.4638  0.7251
   90SAPS   O22 8702   1.150   4.084  10.436  0.1570  0.3935  0.7638
   90SAPS   C22 8703   1.060   4.068  10.212 -0.1936 -0.1080 -0.4552
   90SAPS   H2R 8704   1.080   3.997  10.129  0.8743 -0.8964  0.4559
   90SAPS   H2S 8705   0.950   4.066  10.228  0.0628 -3.9111  2.2095
   90SAPS    C3 8706   1.283   3.816  10.522  0.5225 -0.4011  0.3051
   90SAPS    HX 8707   1.275   3.801  10.632 -1.4474  2.3892  0.6387
   90SAPS    HY 8708   1.339   3.910  10.505  0.0641 -0.4182 -1.4590
   90SAPS   O31 8709   1.350   3.702  10.461 -0.4688  0.0614 -0.6445
   90SAPS   C31 8710   1.466   3.717  10.408 -1.0300 -0.2064 -0.1328
   90SAPS   O32 8711   1.544   3.813  10.421  0.3450  0.4996 -0.4581
   90SAPS   C32 8712   1.503   3.600  10.311 -0.3488 -0.5888 -0.3082
   90SAPS   H2X 8713   1.423   3.601  10.234 -0.7876  0.2565  0.1433
   90SAPS   H2Y 8714   1.501   3.510  10.376 -2.1360 -0.6532 -0.4270
   90SAPS   C23 8715   1.124   4.203  10.173 -0.4694  0.5595 -0.2162
   90SAPS   H3R 8716   1.138   4.273  10.257  0.7819  0.1437 -0.0450
   90SAPS   H3S 8717   1.055   4.255  10.104 -0.2749 -1.3697 -1.9961
   90SAPS   C24 8718   1.249   4.181  10.088 -0.4846 -0.7043  0.1317
   90SAPS   H4R 8719   1.310   4.110  10.148 -0.7447  0.0740  1.3503
   90SAPS   H4S 8720   1.307   4.276  10.085 -0.0756 -0.9045  1.1585
   90SAPS   C25 8721   1.234   4.128   9.947 -0.4105  0.2828 -0.1987
   90SAPS   H5R 8722   1.190   4.195   9.872 -0.5360 -0.4183 -0.7675
   90SAPS   C26 8723   1.287   4.015   9.903  0.5798 -0.8211 -0.1909
   90SAPS   H6R 8724   1.267   3.983   9.799 -1.2960  1.1194 -0.4944
   90SAPS   C27 8725   1.370   3.908   9.970 -0.4753  0.3233  0.0101
   90SAPS   H7R 8726   1.457   3.959  10.017 -1.4401  0.5005  1.7083
   90SAPS   H7S 8727   1.407   3.833   9.896 -0.1254  0.7150 -0.2132
   90SAPS   C28 8728   1.297   3.829  10.075 -0.1929 -0.1970 -0.1172
   90SAPS   H8R 8729   1.321   3.829  10.183 -1.2845  0.6074  0.1515
   90SAPS   C29 8730   1.184   3.752  10.044 -0.2133 -0.9996 -0.2777
   90SAPS   H9R 8731   1.117   3.714  10.123 -0.6053 -0.5055 -0.3711
   90SAPS  C210 8732   1.135   3.727   9.903  0.6850  0.0961  0.4941
   90SAPS  H10R 8733   1.199   3.774   9.825 -0.5791  2.8595  0.9861
   90SAPS  H10S 8734   1.036   3.776   9.901  0.1656 -0.9686 -0.3226
   90SAPS  C211 8735   1.134   3.574   9.881  1.2469 -0.0098  0.2367
   90SAPS  H11R 8736   1.209   3.512   9.932 -1.8545 -2.4025  2.2463
   90SAPS  C212 8737   1.039   3.511   9.803  0.2809 -0.4951 -0.2527
   90SAPS  H12R 8738   1.045   3.402   9.800  1.6837 -0.5429  2.0091
   90SAPS  C213 8739   0.922   3.573   9.718 -0.0796  0.5385  0.0061
   90SAPS  H13R 8740   0.950   3.679   9.700 -2.2198  1.3416  1.1710
   90SAPS  H13S 8741   0.824   3.573   9.769 -0.7201 -1.8539 -1.0866
   90SAPS  C214 8742   0.905   3.505   9.579  1.5614 -0.1575  0.0275
   90SAPS  H14R 8743   0.997   3.472   9.527  1.9975 -1.0651  1.3247
   90SAPS  C215 8744   0.792   3.499   9.507  0.1997  0.5796 -0.1209
   90SAPS  H15R 8745   0.799   3.459   9.405 -0.5363 -0.0860  0.0804
   90SAPS  C216 8746   0.650   3.555   9.548  0.0211  0.3517  0.0719
   90SAPS  H16R 8747   0.658   3.595   9.651  3.3765  1.8570 -0.6391
   90SAPS  H16S 8748   0.578   3.471   9.555  0.3296 -0.1192 -1.8543
   90SAPS  C217 8749   0.587   3.661   9.445  0.0960  0.5846  0.5012
   90SAPS  H17R 8750   0.481   3.672   9.478 -0.0482 -1.1278  0.7124
   90SAPS  H17S 8751   0.569   3.609   9.349 -3.2244  0.9456  0.7843
   90SAPS  C218 8752   0.650   3.803   9.447  0.4883 -0.4022  0.7920
   90SAPS  H18R 8753   0.761   3.794   9.441  0.4478 -0.5756  0.1735
   90SAPS  H18S 8754   0.635   3.860   9.541  1.5052  3.4320 -1.1847
   90SAPS  C219 8755   0.569   3.884   9.337  0.3701  0.2664  0.0076
   90SAPS  H19R 8756   0.461   3.873   9.358 -0.4934  1.0320 -3.4403
   90SAPS  H19S 8757   0.599   3.839   9.240  1.0477  0.1538  0.2647
   90SAPS  C220 8758   0.597   4.036   9.333  0.2633  0.4204  0.3072
   90SAPS  H20R 8759   0.528   4.080   9.258  0.2411 -1.8663 -1.1237
   90SAPS  H20S 8760   0.697   4.059   9.290 -0.2285 -0.5577 -1.4578
   90SAPS  H20T 8761   0.586   4.096   9.426  1.3367  0.0947  0.6613
   90SAPS   C33 8762   1.632   3.626  10.232 -0.4532 -1.0933 -0.5870
   90SAPS   H3X 8763   1.717   3.585  10.290 -0.2073  0.8480  0.4927
   90SAPS   H3Y 8764   1.655   3.734  10.234 -0.5443 -1.0814 -0.2073
   90SAPS   C34 8765   1.640   3.581  10.083 -0.4314 -0.1353 -0.7424
   90SAPS   H4X 8766   1.538   3.599  10.045 -0.9466 -2.3755 -0.5701
   90SAPS   H4Y 8767   1.660   3.472  10.077 -2.4958 -0.7133  1.2198
   90SAPS   C35 8768   1.742   3.675  10.009  1.0971 -0.4898  0.3019
   90SAPS   H5X 8769   1.848   3.668  10.043  1.3775 -0.9183 -0.6460
   90SAPS   H5Y 8770   1.705   3.776  10.038  0.4666 -0.3691 -0.8698
   90SAPS   C36 8771   1.725   3.654   9.862 -0.6842 -1.0911 -0.0882
   90SAPS   H6X 8772   1.616   3.662   9.842 -0.4862 -1.4896 -1.4592
   90SAPS   H6Y 8773   1.767   3.556   9.830 -1.6099 -2.0750  1.5835
   90SAPS   C37 8774   1.797   3.768   9.779  0.0140  0.2453  0.3389
   90SAPS   H7X 8775   1.903   3.734   9.770 -0.0597 -0.2175  1.1571
   90SAPS   H7Y 8776   1.779   3.857   9.844 -1.2334  0.2588 -0.0038
   90SAPS   C38 8777   1.739   3.781   9.632  0.1199  0.6087 -0.6403
   90SAPS   H8X 8778   1.699   3.679   9.612 -3.4207  1.4395  1.3125
   90SAPS   H8Y 8779   1.821   3.806   9.561 -0.6274 -2.8535 -3.0065
   90SAPS   C39 8780   1.623   3.876   9.637  0.2892 -0.6674  0.0888
   90SAPS   H9X 8781   1.648   3.964   9.700  2.2662 -0.6428 -0.6506
   90SAPS   H9Y 8782   1.539   3.826   9.690  0.4064  0.8584  1.7997
   90SAPS  C310 8783   1.573   3.911   9.495 -0.5124  0.2269  0.3297
   90SAPS  H10X 8784   1.639   3.982   9.441 -1.3840 -1.0261 -2.5962
   90SAPS  H10Y 8785   1.475   3.963   9.494 -0.5188  0.4165 -3.4701
   90SAPS  C311 8786   1.570   3.788   9.402  0.2818  0.6945  0.2345
   90SAPS  H11X 8787   1.517   3.706   9.454  1.8746 -1.0186 -0.7192
   90SAPS  H11Y 8788   1.670   3.743   9.384 -0.9174 -2.9139  1.7598
   90SAPS  C312 8789   1.497   3.812   9.270 -0.1319 -0.1900  0.2730
   90SAPS  H12X 8790   1.398   3.848   9.305  0.5682  2.3167 -0.1210
   90SAPS  H12Y 8791   1.489   3.711   9.224  0.0268 -0.1564  0.1720
   90SAPS  C313 8792   1.561   3.920   9.177 -0.2569  0.3482 -0.3934
   90SAPS  H13X 8793   1.652   3.873   9.134 -0.4709  1.8463 -2.6765
   90SAPS  H13Y 8794   1.587   4.015   9.227  1.4014  0.3661 -1.2188
   90SAPS  C314 8795   1.460   3.950   9.062  0.1413  0.9238  0.1718
   90SAPS  H14X 8796   1.388   4.024   9.103  1.3886  0.7565  2.8045
   90SAPS  H14Y 8797   1.390   3.865   9.051  0.4756  0.6957 -0.2201
   90SAPS  C315 8798   1.513   4.001   8.928  0.6809  0.0625  0.4176
   90SAPS  H15X 8799   1.584   3.926   8.885  0.6880  0.8278 -0.9733
   90SAPS  H15Y 8800   1.562   4.098   8.950  2.0586 -0.2530 -1.0737
   90SAPS  C316 8801   1.393   4.022   8.827  0.0503  0.3302 -0.7636
   90SAPS  H16X 8802   1.439   4.095   8.756 -0.9439  0.0715 -1.6930
   90SAPS  H16Y 8803   1.322   4.080   8.890  0.1124  0.5615 -0.9051
   90SAPS  C317 8804   1.351   3.898   8.748  0.3254  0.6845  0.4466
   90SAPS  H17X 8805   1.302   3.824   8.814  1.4180 -0.0243  0.4858
   90SAPS  H17Y 8806   1.435   3.846   8.697  0.2944 -1.9592  2.8835
   90SAPS  C318 8807   1.250   3.939   8.637 -0.1060  0.4506  0.4028
   90SAPS  H18X 8808   1.144   3.960   8.664 -0.6328 -2.2939  0.7646
   90SAPS  H18Y 8809   1.257   3.860   8.559  0.5935  1.4198 -0.5308
   90SAPS  H18Z 8810   1.284   4.021   8.571 -1.4099  0.1336 -0.7079
   91SAPS     N 8811   0.526   0.938   5.975  0.1915  0.3733 -0.3329
   91SAPS   HN1 8812   0.586   0.902   6.052 -0.1001  1.0708  0.2193
   91SAPS   HN2 8813   0.449   0.997   6.012  0.5555  0.6671 -0.0409
   91SAPS   HN3 8814   0.480   0.850   5.943  1.6805 -1.5370  2.3156
   91SAPS   C12 8815   0.612   0.999   5.867  0.8730 -0.1275 -0.0363
   91SAPS  H12A 8816   0.698   0.938   5.847  0.4051 -1.0045  0.5502
   91SAPS   C13 8817   0.550   1.011   5.736 -0.1161 -0.0124  0.5618
   91SAPS  O13A 8818   0.449   0.949   5.700 -0.3244  0.5040 -0.2287
   91SAPS  O13B 8819   0.616   1.081   5.651  0.6513  0.1222  0.5276
   91SAPS   C11 8820   0.663   1.137   5.922 -0.5111  0.8417  0.5018
   91SAPS  H11A 8821   0.584   1.209   5.890 -0.5207  0.8396  0.5208
   91SAPS  H11B 8822   0.752   1.164   5.861 -0.0009 -1.8285 -0.0463
   91SAPS     P 8823   0.775   1.259   6.127 -0.3631 -0.3759 -0.6935
   91SAPS   O13 8824   0.918   1.242   6.089  0.4308  0.4613 -0.1895
   91SAPS   O14 8825   0.723   1.393   6.086 -1.0775  0.0865 -0.3016
   91SAPS   O12 8826   0.701   1.133   6.057  0.1562 -0.1200 -0.2743
   91SAPS   O11 8827   0.756   1.236   6.280  0.2242 -0.3819 -0.0153
   91SAPS    C1 8828   0.640   1.169   6.329  0.2446 -0.1797 -0.7883
   91SAPS    HA 8829   0.541   1.190   6.284  0.2237 -0.3044 -0.8007
   91SAPS    HB 8830   0.648   1.060   6.310 -1.0305  0.1924 -4.1281
   91SAPS    C2 8831   0.642   1.182   6.482 -0.9031  0.1611 -0.0614
   91SAPS    HS 8832   0.610   1.285   6.509  0.2774  0.6035 -0.2891
   91SAPS   O21 8833   0.776   1.154   6.535 -0.2445 -0.1143 -0.0073
   91SAPS   C21 8834   0.806   1.215   6.648  0.1484  0.4222 -0.3784
   91SAPS   O22 8835   0.738   1.301   6.699  0.4850 -0.1434 -0.0862
   91SAPS   C22 8836   0.929   1.154   6.707  0.0178  0.0074 -0.5847
   91SAPS   H2R 8837   0.922   1.043   6.703  1.8667 -0.1154 -1.5053
   91SAPS   H2S 8838   1.009   1.183   6.635 -1.2921  1.5677 -1.5018
   91SAPS    C3 8839   0.544   1.072   6.544  0.4056 -0.2489 -0.9350
   91SAPS    HX 8840   0.564   0.977   6.490  1.1392 -0.6576  0.0212
   91SAPS    HY 8841   0.440   1.105   6.524 -0.3378 -0.1865  2.3987
   91SAPS   O31 8842   0.573   1.047   6.684 -0.7850  0.4786 -0.0234
   91SAPS   C31 8843   0.484   1.090   6.762 -0.0920 -0.3153  0.3490
   91SAPS   O32 8844   0.372   1.131   6.728  0.3323 -0.2778 -0.0214
   91SAPS   C32 8845   0.543   1.098   6.907  0.0551 -0.1528  0.4552
   91SAPS   H2X 8846   0.653   1.095   6.891 -0.0103 -1.6173  0.1804
   91SAPS   H2Y 8847   0.522   1.000   6.956 -0.5512  0.5018  1.5637
   91SAPS   C23 8848   0.967   1.199   6.851 -0.0478 -0.5775 -0.5202
   91SAPS   H3R 8849   0.899   1.142   6.918 -1.2476 -0.2631 -1.4280
   91SAPS   H3S 8850   0.939   1.304   6.871 -1.5488 -0.8984 -0.8094
   91SAPS   C24 8851   1.114   1.173   6.890 -0.5046  0.0364  0.5015
   91SAPS   H4R 8852   1.138   1.244   6.972 -1.2620  1.9807 -0.8864
   91SAPS   H4S 8853   1.174   1.200   6.801  0.4424  1.1692  1.4482
   91SAPS   C25 8854   1.147   1.027   6.900  0.0671 -0.1232 -0.1495
   91SAPS   H5R 8855   1.106   0.966   6.818  0.0329 -1.1158  0.5924
   91SAPS   C26 8856   1.205   0.966   7.001 -0.6743  0.0729  0.0042
   91SAPS   H6R 8857   1.228   0.858   6.996 -0.0841  0.1368  1.0643
   91SAPS   C27 8858   1.270   1.040   7.128  0.2990 -0.1774  0.8786
   91SAPS   H7R 8859   1.312   1.137   7.095 -2.0725  0.2331 -1.2086
   91SAPS   H7S 8860   1.354   0.986   7.178  1.8002  1.2292 -0.0332
   91SAPS   C28 8861   1.157   1.069   7.224  0.0202  0.5234 -0.2474
   91SAPS   H8R 8862   1.052   1.050   7.196 -1.1022  1.0772  3.1410
   91SAPS   C29 8863   1.175   1.081   7.353  0.4813  0.2711 -0.8746
   91SAPS   H9R 8864   1.084   1.104   7.412 -0.2857 -4.1479  0.0367
   91SAPS  C210 8865   1.306   1.071   7.429 -0.2924 -0.2494 -0.5262
   91SAPS  H10R 8866   1.338   1.177   7.439 -0.5325  0.0823 -2.8042
   91SAPS  H10S 8867   1.392   1.025   7.374  1.1500  1.3131  0.3321
   91SAPS  C211 8868   1.291   1.000   7.567  0.2687 -0.4916  0.0615
   91SAPS  H11R 8869   1.322   0.895   7.557  1.1612 -0.1764 -0.5929
   91SAPS  C212 8870   1.250   1.058   7.683 -0.0285  0.2552  0.3428
   91SAPS  H12R 8871   1.243   0.991   7.769  0.2509 -0.8711 -0.4837
   91SAPS  C213 8872   1.207   1.202   7.701 -0.3921  0.7144  1.0865
   91SAPS  H13R 8873   1.128   1.199   7.779  0.6767 -0.5274  2.1571
   91SAPS  H13S 8874   1.182   1.240   7.599  0.1857 -1.0050  0.2583
   91SAPS  C214 8875   1.327   1.279   7.756 -0.6783  0.3199  0.7736
   91SAPS  H14R 8876   1.417   1.292   7.694 -2.8652  0.5673 -2.6064
   91SAPS  C215 8877   1.330   1.340   7.875 -0.6225 -0.1836 -0.0263
   91SAPS  H15R 8878   1.426   1.381   7.908 -1.0066  1.3096 -0.6956
   91SAPS  C216 8879   1.224   1.352   7.981 -0.2723 -0.2804 -0.1130
   91SAPS  H16R 8880   1.122   1.327   7.945 -0.4782  0.2094  0.1199
   91SAPS  H16S 8881   1.207   1.459   8.004  0.5683 -0.1996  0.1686
   91SAPS  C217 8882   1.248   1.259   8.101  0.2968 -0.0142  0.1258
   91SAPS  H17R 8883   1.240   1.154   8.066 -0.0250 -0.3041  1.0447
   91SAPS  H17S 8884   1.168   1.278   8.176 -1.0719 -0.4553 -1.1635
   91SAPS  C218 8885   1.383   1.282   8.174  0.4500 -0.4090 -0.1990
   91SAPS  H18R 8886   1.405   1.391   8.173 -0.0731 -0.3100 -1.1137
   91SAPS  H18S 8887   1.455   1.219   8.116 -1.6127 -0.9457 -2.3117
   91SAPS  C219 8888   1.374   1.225   8.313  0.3637  0.2002 -0.4259
   91SAPS  H19R 8889   1.283   1.254   8.369  1.6296 -2.6764  3.5349
   91SAPS  H19S 8890   1.465   1.253   8.369  0.5591  2.1267 -1.6191
   91SAPS  C220 8891   1.360   1.070   8.320  0.2241 -0.0997 -0.1855
   91SAPS  H20R 8892   1.254   1.050   8.293  1.1545 -0.4726 -4.2620
   91SAPS  H20S 8893   1.379   1.034   8.423  1.2699  2.3328  0.5504
   91SAPS  H20T 8894   1.423   1.012   8.249 -1.6073  0.0255 -2.0116
   91SAPS   C33 8895   0.502   1.213   6.998 -0.3227 -0.4497 -0.2617
   91SAPS   H3X 8896   0.394   1.224   7.019 -0.1001  1.9936 -0.1123
   91SAPS   H3Y 8897   0.540   1.310   6.959 -3.7226  1.4905  0.8886
   91SAPS   C34 8898   0.573   1.198   7.129  0.0282 -0.0416  0.4479
   91SAPS   H4X 8899   0.555   1.096   7.169  3.0469 -0.6636  0.4059
   91SAPS   H4Y 8900   0.515   1.264   7.198 -1.9323 -1.6989  0.4945
   91SAPS   C35 8901   0.724   1.234   7.131 -1.0744  0.5077 -0.0922
   91SAPS   H5X 8902   0.737   1.323   7.066 -1.7086  1.2250  0.7184
   91SAPS   H5Y 8903   0.778   1.142   7.100  0.0328  0.7845  0.9277
   91SAPS   C36 8904   0.789   1.272   7.262  0.3557  1.1252  0.2487
   91SAPS   H6X 8905   0.748   1.369   7.298 -0.6308  0.3872  1.2090
   91SAPS   H6Y 8906   0.898   1.275   7.243  0.5149 -0.1378  0.8503
   91SAPS   C37 8907   0.768   1.160   7.362  0.1097  0.1732 -0.1841
   91SAPS   H7X 8908   0.827   1.075   7.322  0.2524 -0.6234  1.6292
   91SAPS   H7Y 8909   0.659   1.141   7.369  0.1482  0.6485  3.2843
   91SAPS   C38 8910   0.817   1.188   7.506 -0.5859 -0.5189 -0.5935
   91SAPS   H8X 8911   0.919   1.225   7.482 -1.2051  1.9496  0.3380
   91SAPS   H8Y 8912   0.808   1.101   7.574  1.4888  0.1196  0.5936
   91SAPS   C39 8913   0.745   1.301   7.579 -0.0263 -0.3868 -0.1985
   91SAPS   H9X 8914   0.636   1.279   7.587 -0.4547  1.8925  0.8706
   91SAPS   H9Y 8915   0.755   1.390   7.514 -1.4644  0.2491  0.4261
   91SAPS  C310 8916   0.812   1.319   7.716 -0.2143  0.9138 -0.0435
   91SAPS  H10X 8917   0.780   1.418   7.756  2.4588  0.9404  2.3186
   91SAPS  H10Y 8918   0.922   1.325   7.710 -0.1501 -0.1513 -0.0567
   91SAPS  C311 8919   0.757   1.226   7.822  0.0079 -0.0925  0.4217
   91SAPS  H11X 8920   0.764   1.116   7.808  2.8504 -0.2449  2.3715
   91SAPS  H11Y 8921   0.648   1.242   7.837  0.3648  3.3984  0.1880
   91SAPS  C312 8922   0.842   1.251   7.947 -0.6690 -0.2095 -0.2347
   91SAPS  H12X 8923   0.828   1.354   7.986  0.0983 -0.2123  0.0590
   91SAPS  H12Y 8924   0.946   1.230   7.913 -0.0909 -1.3523  2.0443
   91SAPS  C313 8925   0.806   1.155   8.064  0.1663  0.2538 -0.1347
   91SAPS  H13X 8926   0.793   1.051   8.028  1.5928 -0.0354  0.1411
   91SAPS  H13Y 8927   0.707   1.184   8.106  0.1426 -0.8325  0.5991
   91SAPS  C314 8928   0.901   1.162   8.185  0.6404 -0.5003  0.5974
   91SAPS  H14X 8929   0.904   1.264   8.229 -1.5735 -0.9107  1.8186
   91SAPS  H14Y 8930   1.004   1.131   8.157  0.4389 -1.9437  1.3436
   91SAPS  C315 8931   0.859   1.051   8.284  0.2506  0.3272 -0.4177
   91SAPS  H15X 8932   0.852   0.958   8.224 -1.0099 -0.4846  0.8998
   91SAPS  H15Y 8933   0.753   1.073   8.310 -0.3173 -0.1538 -2.1605
   91SAPS  C316 8934   0.957   1.023   8.405  0.1574  0.0924 -0.7114
   91SAPS  H16X 8935   0.953   1.108   8.477  2.5373 -0.8661  0.6386
   91SAPS  H16Y 8936   1.062   1.019   8.371 -0.1917 -0.7173 -1.7601
   91SAPS  C317 8937   0.917   0.893   8.469 -0.1299 -0.7205 -0.5152
   91SAPS  H17X 8938   0.911   0.820   8.385  0.8087 -1.3326 -0.0634
   91SAPS  H17Y 8939   0.818   0.904   8.520 -0.2186  1.9567 -1.1425
   91SAPS  C318 8940   1.016   0.864   8.587  0.1658 -0.6482 -0.6110
   91SAPS  H18X 8941   1.119   0.881   8.549  0.5684  0.6781  0.9558
   91SAPS  H18Y 8942   0.997   0.766   8.636 -2.7832  0.1699  0.0935
   91SAPS  H18Z 8943   0.998   0.942   8.665 -0.4853 -1.7826  0.4118
   92SAPS     N 8944   0.524   6.165   6.194  0.1912  0.6993  0.5008
   92SAPS   HN1 8945   0.450   6.119   6.137  1.8800  0.9611 -2.0631
   92SAPS   HN2 8946   0.489   6.194   6.288  1.2553 -0.7475  1.4031
   92SAPS   HN3 8947   0.534   6.254   6.142  0.8054 -0.7540 -2.0400
   92SAPS   C12 8948   0.652   6.084   6.209  0.3041 -0.1450 -0.1121
   92SAPS  H12A 8949   0.629   6.012   6.286 -0.4216  0.0058 -0.1821
   92SAPS   C13 8950   0.699   6.016   6.081 -0.0712 -0.0921  0.1996
   92SAPS  O13A 8951   0.634   6.018   5.971 -0.3508 -0.3915 -0.2351
   92SAPS  O13B 8952   0.804   5.949   6.085 -0.1436 -0.5018  0.1934
   92SAPS   C11 8953   0.763   6.181   6.259 -0.2711  0.5380 -0.0743
   92SAPS  H11A 8954   0.790   6.240   6.169 -0.0167 -0.0896 -0.4105
   92SAPS  H11B 8955   0.853   6.119   6.277  0.4103  1.2419 -0.9475
   92SAPS     P 8956   0.840   6.351   6.437  0.6198 -0.1179 -0.3566
   92SAPS   O13 8957   0.888   6.439   6.324  0.2717 -0.3016 -0.5619
   92SAPS   O14 8958   0.780   6.427   6.552 -0.2869  0.7573 -0.2872
   92SAPS   O12 8959   0.730   6.255   6.378  0.4579  0.2630 -0.2909
   92SAPS   O11 8960   0.960   6.248   6.481  0.1618  0.0885 -0.1971
   92SAPS    C1 8961   0.929   6.126   6.547 -0.1667 -0.8462  0.0601
   92SAPS    HA 8962   0.832   6.078   6.524 -0.3883 -0.5545  0.3892
   92SAPS    HB 8963   1.006   6.048   6.528 -0.5922 -1.6287  1.4110
   92SAPS    C2 8964   0.930   6.146   6.699  0.5504  0.3081  0.0489
   92SAPS    HS 8965   0.929   6.041   6.735  0.8033 -0.3653 -1.7948
   92SAPS   O21 8966   0.814   6.215   6.758  0.2877  0.2510  0.3630
   92SAPS   C21 8967   0.695   6.165   6.740  0.1186  0.7596 -0.2912
   92SAPS   O22 8968   0.675   6.049   6.707 -0.2039 -0.1969 -0.1374
   92SAPS   C22 8969   0.590   6.272   6.754 -0.1137  0.4406  0.1285
   92SAPS   H2R 8970   0.635   6.372   6.772 -1.3069  1.0832 -0.3525
   92SAPS   H2S 8971   0.542   6.283   6.655 -1.1227  0.3192  0.5934
   92SAPS    C3 8972   1.060   6.211   6.748 -0.1543  0.0458  0.1139
   92SAPS    HX 8973   1.074   6.317   6.718 -0.3090 -0.3045 -1.2660
   92SAPS    HY 8974   1.141   6.160   6.692 -0.0049  0.2092  0.1800
   92SAPS   O31 8975   1.081   6.199   6.892 -0.3011  0.5205 -0.0257
   92SAPS   C31 8976   1.026   6.291   6.965 -0.5254 -0.8843  0.5217
   92SAPS   O32 8977   0.964   6.394   6.929  0.7862  0.4028 -0.1714
   92SAPS   C32 8978   1.051   6.254   7.112 -1.0685  0.7710  0.4545
   92SAPS   H2X 8979   1.148   6.303   7.139 -0.6928  0.8427 -0.9238
   92SAPS   H2Y 8980   1.056   6.143   7.116 -3.9463  0.6282  3.2296
   92SAPS   C23 8981   0.481   6.242   6.866 -0.2697 -0.2206 -0.1576
   92SAPS   H3R 8982   0.456   6.134   6.858  0.4649 -0.5583  1.5552
   92SAPS   H3S 8983   0.390   6.306   6.867  0.3351  0.6774 -1.0879
   92SAPS   C24 8984   0.547   6.259   7.015 -0.3840  0.0472  1.0870
   92SAPS   H4R 8985   0.638   6.195   7.007 -0.3517  0.3015 -1.4898
   92SAPS   H4S 8986   0.472   6.222   7.088 -0.0217  1.6924  2.3508
   92SAPS   C25 8987   0.603   6.393   7.050  0.0865  0.5643 -0.4305
   92SAPS   H5R 8988   0.676   6.424   6.974 -0.4001 -0.1988 -1.2460
   92SAPS   C26 8989   0.584   6.466   7.162  0.8876  0.0084 -0.0156
   92SAPS   H6R 8990   0.627   6.567   7.168 -1.0250  1.0692 -2.1258
   92SAPS   C27 8991   0.493   6.424   7.278  0.4488  0.7392 -1.0336
   92SAPS   H7R 8992   0.404   6.381   7.228 -0.6312  1.1165  0.4783
   92SAPS   H7S 8993   0.458   6.513   7.335  0.3974 -0.1750  0.4290
   92SAPS   C28 8994   0.560   6.326   7.363  0.8425  0.0613  0.5707
   92SAPS   H8R 8995   0.655   6.291   7.321 -0.3940 -1.5082 -1.0853
   92SAPS   C29 8996   0.504   6.272   7.474  0.3196 -0.1535 -0.0837
   92SAPS   H9R 8997   0.555   6.188   7.522  1.7390  2.5771  3.6860
   92SAPS  C210 8998   0.373   6.295   7.537  0.0393 -0.5735 -0.7053
   92SAPS  H10R 8999   0.305   6.209   7.518 -0.7825 -0.5330  1.6651
   92SAPS  H10S 9000   0.318   6.374   7.482  0.7945  0.3641 -0.1469
   92SAPS  C211 9001   0.388   6.333   7.686 -0.2976 -0.3224 -0.1568
   92SAPS  H11R 9002   0.481   6.387   7.707 -1.8646  1.7919  1.9308
   92SAPS  C212 9003   0.309   6.308   7.788 -0.5487 -0.7726  0.5001
   92SAPS  H12R 9004   0.346   6.328   7.890 -1.9456 -0.8346  1.0402
   92SAPS  C213 9005   0.175   6.237   7.774  0.1854 -0.1048 -0.4085
   92SAPS  H13R 9006   0.140   6.231   7.669 -0.4206  1.3756 -0.3215
   92SAPS  H13S 9007   0.095   6.294   7.825 -0.6291 -0.9671 -0.6976
   92SAPS  C214 9008   0.174   6.097   7.830 -0.2060 -0.2945 -0.8838
   92SAPS  H14R 9009   0.260   6.042   7.788  0.5266  1.4353 -1.7486
   92SAPS  C215 9010   0.093   6.043   7.930 -0.3099 -0.6426  0.9094
   92SAPS  H15R 9011   0.115   5.938   7.954  2.3995 -0.3197  0.2310
   92SAPS  C216 9012  -0.023   6.111   7.998  0.2671 -0.9824  0.2112
   92SAPS  H16R 9013  -0.110   6.044   8.012 -0.0206 -0.4776  0.8993
   92SAPS  H16S 9014  -0.051   6.199   7.935  1.7983  0.0087  0.8569
   92SAPS  C217 9015   0.016   6.160   8.144  0.1366  0.3179  0.1348
   92SAPS  H17R 9016   0.098   6.235   8.141  1.6761 -1.3286 -1.1152
   92SAPS  H17S 9017   0.062   6.075   8.198 -1.1920  0.3052  1.3206
   92SAPS  C218 9018  -0.103   6.223   8.213  0.0906 -0.2009 -0.6340
   92SAPS  H18R 9019  -0.181   6.146   8.225  1.6510 -1.5849  1.3101
   92SAPS  H18S 9020  -0.141   6.307   8.150  1.0394  1.0026  0.3488
   92SAPS  C219 9021  -0.075   6.279   8.350 -0.5477 -0.2071  0.2330
   92SAPS  H19R 9022  -0.022   6.375   8.335 -2.5324  0.9719  0.4059
   92SAPS  H19S 9023  -0.014   6.206   8.407 -0.4583 -0.3397 -0.0295
   92SAPS  C220 9024  -0.200   6.305   8.432 -0.4951  0.0554  0.6042
   92SAPS  H20R 9025  -0.262   6.389   8.396 -0.1609 -0.3445 -0.9652
   92SAPS  H20S 9026  -0.183   6.323   8.541 -0.7548 -2.7721  1.1910
   92SAPS  H20T 9027  -0.270   6.219   8.433 -2.0957  1.3127  0.3684
   92SAPS   C33 9028   0.942   6.310   7.207 -0.8189  0.0426 -0.5842
   92SAPS   H3X 9029   0.841   6.292   7.164 -0.2691 -0.8224 -1.5737
   92SAPS   H3Y 9030   0.944   6.416   7.241 -0.4708 -0.0268 -0.3853
   92SAPS   C34 9031   0.953   6.222   7.332  0.8349  0.0934 -0.5995
   92SAPS   H4X 9032   1.057   6.186   7.344  0.2572 -1.7315 -0.7356
   92SAPS   H4Y 9033   0.882   6.136   7.321  0.6044  0.3014 -0.7514
   92SAPS   C35 9034   0.906   6.293   7.460 -0.1451 -0.3167 -0.3232
   92SAPS   H5X 9035   0.807   6.345   7.460 -0.3999 -0.6992  2.1110
   92SAPS   H5Y 9036   0.980   6.374   7.473  0.2526 -1.1023  3.0421
   92SAPS   C36 9037   0.910   6.206   7.586  0.0822  0.1070  0.1730
   92SAPS   H6X 9038   1.014   6.190   7.622  0.3933 -0.1461 -0.8149
   92SAPS   H6Y 9039   0.875   6.102   7.570 -1.0534  0.2790  1.3584
   92SAPS   C37 9040   0.842   6.266   7.703  0.7196  1.3159 -1.3500
   92SAPS   H7X 9041   0.734   6.274   7.681 -0.2831 -1.4339  1.7491
   92SAPS   H7Y 9042   0.883   6.366   7.728 -0.8249  1.6934 -0.1980
   92SAPS   C38 9043   0.860   6.169   7.825  0.1095 -1.4354  0.3375
   92SAPS   H8X 9044   0.968   6.155   7.847  1.3269  3.1851 -1.5066
   92SAPS   H8Y 9045   0.818   6.071   7.794 -0.3704 -1.1205 -0.0148
   92SAPS   C39 9046   0.799   6.215   7.962  0.8375  0.1392  0.1349
   92SAPS   H9X 9047   0.691   6.190   7.960  1.3928 -2.4791 -1.1861
   92SAPS   H9Y 9048   0.819   6.324   7.976 -0.8569  0.5085 -0.1187
   92SAPS  C310 9049   0.868   6.153   8.082 -0.1734  0.6645 -0.1513
   92SAPS  H10X 9050   0.961   6.212   8.088 -0.2253  0.6011  1.9633
   92SAPS  H10Y 9051   0.893   6.049   8.050  0.0388  0.2795  1.1832
   92SAPS  C311 9052   0.784   6.158   8.212 -0.1615  0.0766  0.3919
   92SAPS  H11X 9053   0.680   6.132   8.182 -0.1167  0.9398 -0.5963
   92SAPS  H11Y 9054   0.786   6.264   8.245 -3.1976  0.2667  0.2883
   92SAPS  C312 9055   0.835   6.057   8.311  0.2438  0.2839  0.2863
   92SAPS  H12X 9056   0.842   5.961   8.255  0.3255 -0.0495  0.8465
   92SAPS  H12Y 9057   0.760   6.039   8.391  2.0807 -4.2108  1.3190
   92SAPS  C313 9058   0.972   6.086   8.375  0.3126 -0.2929  0.3626
   92SAPS  H13X 9059   0.967   6.170   8.447 -0.4230  0.6980 -0.7981
   92SAPS  H13Y 9060   1.036   6.133   8.297 -2.3106  1.7868 -0.7063
   92SAPS  C314 9061   1.049   5.968   8.434  0.6859 -0.4406  0.3721
   92SAPS  H14X 9062   1.140   6.011   8.481  0.1123  0.4375  0.7099
   92SAPS  H14Y 9063   1.085   5.902   8.353 -2.2771 -1.9368  0.1503
   92SAPS  C315 9064   0.962   5.895   8.534  0.2241  1.0401  0.6913
   92SAPS  H15X 9065   0.886   5.844   8.471  1.0031  1.7401 -0.8615
   92SAPS  H15Y 9066   0.902   5.962   8.598  0.4675  0.4410  1.5738
   92SAPS  C316 9067   1.054   5.800   8.607  0.1725  0.0959  0.3302
   92SAPS  H16X 9068   1.135   5.835   8.674  0.6971 -1.5454  0.6126
   92SAPS  H16Y 9069   1.114   5.738   8.536 -1.7428 -1.7738  0.2270
   92SAPS  C317 9070   0.965   5.697   8.686 -0.2783 -0.5128 -0.3446
   92SAPS  H17X 9071   0.882   5.684   8.614  0.4364 -2.1806 -0.9287
   92SAPS  H17Y 9072   0.925   5.729   8.785  0.6791 -4.0869  1.3814
   92SAPS  C318 9073   1.046   5.574   8.717  0.4926  0.1303  0.0869
   92SAPS  H18X 9074   1.089   5.533   8.623  1.7905  1.2212  0.1723
   92SAPS  H18Y 9075   0.976   5.498   8.757  1.1929  0.1405  1.3507
   92SAPS  H18Z 9076   1.129   5.588   8.789  0.3135 -0.4725  0.4193
   93SAPS     N 9077   0.148   0.318   6.558  0.4721 -0.1529  0.0537
   93SAPS   HN1 9078   0.201   0.387   6.615  1.6074 -2.1568  1.5235
   93SAPS   HN2 9079   0.045   0.325   6.576  0.5835  0.3382  0.5221
   93SAPS   HN3 9080   0.183   0.227   6.594 -0.3978 -0.9080 -0.9464
   93SAPS   C12 9081   0.191   0.328   6.417 -0.3363 -0.1390 -0.1788
   93SAPS  H12A 9082   0.101   0.324   6.357 -0.4481  1.9361 -0.1966
   93SAPS   C13 9083   0.246   0.468   6.397  0.7719 -0.0772  0.5161
   93SAPS  O13A 9084   0.222   0.561   6.476 -0.1355  0.6888  0.2586
   93SAPS  O13B 9085   0.283   0.493   6.276 -0.5015 -0.3824  0.1157
   93SAPS   C11 9086   0.298   0.213   6.383  0.5084 -0.1513 -0.3035
   93SAPS  H11A 9087   0.373   0.194   6.463 -0.6051 -0.6817  0.6510
   93SAPS  H11B 9088   0.353   0.245   6.292  1.7274  2.3771  1.2156
   93SAPS     P 9089   0.157  -0.012   6.443 -0.6215  0.0292  0.2870
   93SAPS   O13 9090   0.016  -0.015   6.411  0.6790 -0.1096  0.1751
   93SAPS   O14 9091   0.221  -0.146   6.427 -0.6333  0.0647 -0.3733
   93SAPS   O12 9092   0.234   0.087   6.353 -0.5520  0.0165 -0.4525
   93SAPS   O11 9093   0.167   0.050   6.587  0.0577  0.0959 -0.4029
   93SAPS    C1 9094   0.267   0.010   6.680 -0.7105 -0.2890 -0.3017
   93SAPS    HA 9095   0.366   0.031   6.634 -1.2722  1.0585 -0.9586
   93SAPS    HB 9096   0.260   0.073   6.771 -1.5786 -0.6272 -0.1229
   93SAPS    C2 9097   0.254  -0.132   6.726  0.8049 -0.0534 -0.5742
   93SAPS    HS 9098   0.284  -0.206   6.648  3.8665  0.5257 -0.0798
   93SAPS   O21 9099   0.116  -0.151   6.761  0.7406 -0.4216  0.1838
   93SAPS   C21 9100   0.062  -0.275   6.777 -0.2627 -0.2401  0.1498
   93SAPS   O22 9101   0.126  -0.379   6.773  0.1122 -0.1819 -0.2590
   93SAPS   C22 9102  -0.088  -0.266   6.803  0.8341  0.5763  0.2385
   93SAPS   H2R 9103  -0.108  -0.166   6.846  4.1644  1.0625  0.8606
   93SAPS   H2S 9104  -0.147  -0.283   6.710 -1.0077 -0.4608  1.5290
   93SAPS    C3 9105   0.334  -0.172   6.853  0.2510  0.0193 -0.2305
   93SAPS    HX 9106   0.436  -0.190   6.812 -0.4124  1.5216 -2.7952
   93SAPS    HY 9107   0.302  -0.274   6.882  1.2692 -1.2005 -2.9832
   93SAPS   O31 9108   0.332  -0.070   6.959 -0.8138 -0.0234  0.3555
   93SAPS   C31 9109   0.428   0.026   6.955  0.0668 -0.4247  0.1751
   93SAPS   O32 9110   0.497   0.053   6.865  0.2615 -0.0733  0.0661
   93SAPS   C32 9111   0.429   0.103   7.088 -0.5186  0.8271  0.8620
   93SAPS   H2X 9112   0.335   0.162   7.093 -1.9489 -1.3152  0.5277
   93SAPS   H2Y 9113   0.522   0.163   7.083  0.2825 -0.4389 -0.0390
   93SAPS   C23 9114  -0.150  -0.369   6.907  0.3778 -0.2179 -0.8109
   93SAPS   H3R 9115  -0.119  -0.470   6.875  2.2224  0.0160  0.0962
   93SAPS   H3S 9116  -0.261  -0.355   6.907  0.0860 -2.2120 -0.3367
   93SAPS   C24 9117  -0.103  -0.341   7.051  0.1832 -0.1935  0.1076
   93SAPS   H4R 9118  -0.163  -0.389   7.131  0.0100  1.3986  0.9814
   93SAPS   H4S 9119  -0.121  -0.232   7.062  2.4309  0.3232 -0.8868
   93SAPS   C25 9120   0.033  -0.388   7.087  0.3180 -0.7772  0.9895
   93SAPS   H5R 9121   0.070  -0.466   7.018 -1.0345  0.0767 -0.7944
   93SAPS   C26 9122   0.109  -0.323   7.175 -0.6386 -0.2225 -0.7302
   93SAPS   H6R 9123   0.210  -0.364   7.187 -0.8742 -0.1380  2.2938
   93SAPS   C27 9124   0.076  -0.200   7.264  0.1768  0.4506  0.5014
   93SAPS   H7R 9125  -0.034  -0.182   7.263  0.2938  1.1831  0.3318
   93SAPS   H7S 9126   0.128  -0.110   7.226  0.4760  0.8042  1.7189
   93SAPS   C28 9127   0.108  -0.221   7.407 -0.5359 -0.6017 -0.7652
   93SAPS   H8R 9128   0.214  -0.200   7.429 -1.0132  0.7523  0.4120
   93SAPS   C29 9129   0.027  -0.248   7.512 -0.2195  0.3651  0.0626
   93SAPS   H9R 9130   0.076  -0.268   7.608 -2.2941  0.1450  1.1335
   93SAPS  C210 9131  -0.122  -0.270   7.507  0.2765  0.4153 -0.2249
   93SAPS  H10R 9132  -0.160  -0.183   7.449  2.0713  2.2860  1.2577
   93SAPS  H10S 9133  -0.154  -0.251   7.612 -1.2010 -0.3882 -0.5003
   93SAPS  C211 9134  -0.187  -0.394   7.448 -0.5773  0.4250 -0.4837
   93SAPS  H11R 9135  -0.178  -0.409   7.339 -0.3896  1.4204 -0.6145
   93SAPS  C212 9136  -0.223  -0.507   7.520 -0.7762  0.8055  0.2237
   93SAPS  H12R 9137  -0.272  -0.584   7.458 -0.6208  0.7704  0.1433
   93SAPS  C213 9138  -0.222  -0.534   7.668  0.4872  0.0668  0.0945
   93SAPS  H13R 9139  -0.165  -0.456   7.724  0.1154  1.6342 -1.6512
   93SAPS  H13S 9140  -0.157  -0.624   7.682  0.6115  0.1500  0.0518
   93SAPS  C214 9141  -0.360  -0.553   7.722  0.1003 -0.3918  0.4504
   93SAPS  H14R 9142  -0.419  -0.621   7.658  0.9046 -0.7709  0.0927
   93SAPS  C215 9143  -0.420  -0.500   7.829  0.7391  0.1694 -0.4758
   93SAPS  H15R 9144  -0.517  -0.538   7.864 -0.1511  3.4251  0.9349
   93SAPS  C216 9145  -0.357  -0.399   7.919  0.1940 -0.1010 -0.6806
   93SAPS  H16R 9146  -0.323  -0.312   7.859 -1.0930  0.4637 -0.6230
   93SAPS  H16S 9147  -0.263  -0.428   7.971 -0.0851 -0.5476 -0.4191
   93SAPS  C217 9148  -0.456  -0.335   8.021  0.0393 -0.6701 -0.4002
   93SAPS  H17R 9149  -0.487  -0.413   8.093  1.5463  0.3030  1.3903
   93SAPS  H17S 9150  -0.543  -0.294   7.966  1.8037  3.2024 -0.6698
   93SAPS  C218 9151  -0.394  -0.217   8.111 -0.6155 -0.0654  0.3478
   93SAPS  H18R 9152  -0.361  -0.133   8.045  1.6384 -1.3606 -0.2940
   93SAPS  H18S 9153  -0.296  -0.244   8.156  1.0744  1.6043 -2.0394
   93SAPS  C219 9154  -0.484  -0.175   8.226  0.4021 -0.1787  0.3901
   93SAPS  H19R 9155  -0.527  -0.265   8.274  0.3646 -2.0574 -2.8869
   93SAPS  H19S 9156  -0.564  -0.112   8.180  1.1591 -1.5823 -3.1527
   93SAPS  C220 9157  -0.412  -0.105   8.338  0.0064 -0.7673 -0.4774
   93SAPS  H20R 9158  -0.331  -0.165   8.385 -0.6502 -0.8393  0.6159
   93SAPS  H20S 9159  -0.482  -0.088   8.423 -1.1758  2.5414 -1.9592
   93SAPS  H20T 9160  -0.376  -0.003   8.313 -0.5469  0.5741  3.4944
   93SAPS   C33 9161   0.436   0.006   7.216 -0.8542 -0.7029 -0.1793
   93SAPS   H3X 9162   0.539  -0.036   7.220  0.1491  1.7357  1.3305
   93SAPS   H3Y 9163   0.372  -0.085   7.208 -0.6081 -1.0563  1.5659
   93SAPS   C34 9164   0.401   0.076   7.348  0.0774 -0.1116  0.0357
   93SAPS   H4X 9165   0.291   0.087   7.348 -0.0396 -1.1378  1.2446
   93SAPS   H4Y 9166   0.446   0.174   7.376  1.5439 -1.0876  1.2388
   93SAPS   C35 9167   0.448  -0.015   7.452  0.0755  0.2638 -0.8065
   93SAPS   H5X 9168   0.557  -0.003   7.466  0.3903 -0.3157 -2.4872
   93SAPS   H5Y 9169   0.429  -0.122   7.426 -2.4003  0.7743 -1.4010
   93SAPS   C36 9170   0.376   0.021   7.588 -1.0151  0.1186  0.1604
   93SAPS   H6X 9171   0.265   0.019   7.581 -0.9467  0.0253 -1.1128
   93SAPS   H6Y 9172   0.404   0.128   7.587 -0.1169 -0.0800 -2.2052
   93SAPS   C37 9173   0.444  -0.052   7.709  0.1547 -0.4398  0.4187
   93SAPS   H7X 9174   0.552  -0.064   7.687 -0.2482 -2.7816 -0.4897
   93SAPS   H7Y 9175   0.412  -0.157   7.699 -2.5353  0.2978  0.4546
   93SAPS   C38 9176   0.423   0.000   7.847  0.1578  0.7839 -0.5714
   93SAPS   H8X 9177   0.316   0.019   7.867  0.3202 -0.4269  1.8058
   93SAPS   H8Y 9178   0.470   0.099   7.865  1.6488 -0.3490  2.6946
   93SAPS   C39 9179   0.466  -0.099   7.955  0.0684  0.3477  0.5826
   93SAPS   H9X 9180   0.435  -0.204   7.934 -2.3923  0.6486  2.3664
   93SAPS   H9Y 9181   0.410  -0.068   8.045 -0.8299  0.8142 -0.1216
   93SAPS  C310 9182   0.613  -0.077   7.993 -0.5186 -0.3258 -0.4114
   93SAPS  H10X 9183   0.621   0.033   8.007 -1.1453 -0.5429  2.1883
   93SAPS  H10Y 9184   0.683  -0.102   7.910 -2.8923 -1.4084 -2.2120
   93SAPS  C311 9185   0.641  -0.161   8.119 -0.3189  0.5052 -0.0353
   93SAPS  H11X 9186   0.655  -0.266   8.086  1.5038  1.0034 -0.9797
   93SAPS  H11Y 9187   0.549  -0.163   8.181 -1.3935  0.3332 -1.5776
   93SAPS  C312 9188   0.763  -0.105   8.192  0.1303  0.3215  0.6564
   93SAPS  H12X 9189   0.746  -0.000   8.225 -0.6383 -0.0731  1.5603
   93SAPS  H12Y 9190   0.842  -0.098   8.113 -2.1312 -0.6027 -1.8375
   93SAPS  C313 9191   0.807  -0.190   8.319 -0.0423  0.6109  0.2857
   93SAPS  H13X 9192   0.859  -0.277   8.275  2.0932  1.8097  0.2840
   93SAPS  H13Y 9193   0.720  -0.222   8.380 -0.8279  0.6542 -0.7940
   93SAPS  C314 9194   0.914  -0.115   8.405  0.5687 -0.1012 -0.0362
   93SAPS  H14X 9195   0.944  -0.185   8.486 -1.9207 -2.1674 -0.7356
   93SAPS  H14Y 9196   0.868  -0.027   8.455 -1.0825 -1.0272  0.1532
   93SAPS  C315 9197   1.048  -0.073   8.333  0.5312 -0.1162 -0.2465
   93SAPS  H15X 9198   1.020   0.006   8.260 -1.9213 -1.6466 -1.1055
   93SAPS  H15Y 9199   1.078  -0.159   8.269  1.4655  0.3692 -0.4791
   93SAPS  C316 9200   1.163  -0.037   8.433  0.2815  0.5196  0.1428
   93SAPS  H16X 9201   1.164  -0.117   8.510  1.0495 -0.8195 -1.2166
   93SAPS  H16Y 9202   1.130   0.060   8.477  0.0564  0.1660  0.7607
   93SAPS  C317 9203   1.302   0.003   8.377 -0.3984  0.7010  0.1528
   93SAPS  H17X 9204   1.336  -0.096   8.339  0.0280  1.6771 -2.1551
   93SAPS  H17Y 9205   1.383   0.035   8.446  2.7141 -2.4772 -1.6639
   93SAPS  C318 9206   1.286   0.102   8.260  0.3390  0.3546 -0.2241
   93SAPS  H18X 9207   1.219   0.178   8.303  0.5427  0.1651  0.4368
   93SAPS  H18Y 9208   1.234   0.058   8.172 -1.0963  0.1526  0.7103
   93SAPS  H18Z 9209   1.390   0.137   8.239  2.2321 -4.3596 -0.1089
   94SAPS     N 9210   0.187   0.906   5.713 -0.0990 -0.0346 -0.8912
   94SAPS   HN1 9211   0.283   0.945   5.725 -0.7973  1.2287  1.0222
   94SAPS   HN2 9212   0.203   0.810   5.678  2.0299 -0.1893  0.3402
   94SAPS   HN3 9213   0.131   0.968   5.652  0.6985  2.3261  0.6466
   94SAPS   C12 9214   0.119   0.912   5.840 -0.1081 -0.0762 -0.5959
   94SAPS  H12A 9215   0.024   0.862   5.833  0.1415 -0.7235  0.5105
   94SAPS   C13 9216   0.192   0.845   5.954  0.8530  0.3208 -0.6551
   94SAPS  O13A 9217   0.298   0.780   5.944 -0.5467 -0.1240 -0.4964
   94SAPS  O13B 9218   0.131   0.853   6.064  0.1796  0.5547 -0.4193
   94SAPS   C11 9219   0.079   1.057   5.874 -0.8845 -0.4590 -0.8781
   94SAPS  H11A 9220   0.032   1.063   5.974 -0.4780  0.7869 -0.7426
   94SAPS  H11B 9221   0.008   1.089   5.794 -2.2242  0.6103  0.6705
   94SAPS     P 9222   0.257   1.206   6.018 -0.6467  0.0137  0.2919
   94SAPS   O13 9223   0.350   1.108   6.071 -0.3388 -0.0569 -1.1161
   94SAPS   O14 9224   0.313   1.340   5.982  0.8934 -0.2556  0.2226
   94SAPS   O12 9225   0.188   1.152   5.881  0.5982  0.0586  0.0238
   94SAPS   O11 9226   0.133   1.230   6.109  0.4579 -0.2700 -0.3123
   94SAPS    C1 9227   0.086   1.360   6.138  0.6089 -0.2830  0.3594
   94SAPS    HA 9228   0.123   1.443   6.074 -0.1829 -0.6821 -0.6489
   94SAPS    HB 9229  -0.023   1.363   6.117  0.7070  2.9679 -0.1896
   94SAPS    C2 9230   0.099   1.389   6.292 -0.4249  0.8575 -0.3868
   94SAPS    HS 9231   0.009   1.343   6.337  1.7984 -1.1671  2.4069
   94SAPS   O21 9232   0.105   1.535   6.318 -0.0822 -0.0609  0.7101
   94SAPS   C21 9233  -0.011   1.596   6.302 -0.4104 -0.0254 -0.2233
   94SAPS   O22 9234  -0.118   1.543   6.278 -0.2230  0.2687  0.1476
   94SAPS   C22 9235   0.010   1.747   6.315 -0.0434 -0.8234  0.1206
   94SAPS   H2R 9236   0.118   1.763   6.293 -0.9556  0.8723 -4.2547
   94SAPS   H2S 9237  -0.043   1.786   6.225 -1.7562  0.5391  1.6291
   94SAPS    C3 9238   0.212   1.310   6.363 -0.2245 -0.0730  0.4845
   94SAPS    HX 9239   0.309   1.310   6.308 -0.1559 -0.3408  0.6052
   94SAPS    HY 9240   0.177   1.205   6.357 -1.2107  0.2708 -0.0927
   94SAPS   O31 9241   0.238   1.343   6.503 -0.0378 -0.4719 -0.4844
   94SAPS   C31 9242   0.306   1.447   6.533  0.0389  0.4558 -0.2207
   94SAPS   O32 9243   0.374   1.504   6.450  0.4653 -0.6093  0.1623
   94SAPS   C32 9244   0.274   1.477   6.680 -0.0390 -0.0634 -0.5630
   94SAPS   H2X 9245   0.245   1.381   6.727 -1.8280  0.2138 -1.0376
   94SAPS   H2Y 9246   0.196   1.556   6.680  0.1927  0.1787  0.8986
   94SAPS   C23 9247  -0.040   1.816   6.447 -0.5050 -0.1493  0.4897
   94SAPS   H3R 9248  -0.028   1.743   6.529 -1.8079  0.0908  0.9198
   94SAPS   H3S 9249  -0.150   1.818   6.434 -0.6015  2.2320  1.1070
   94SAPS   C24 9250   0.021   1.962   6.484  0.3481 -0.0552 -0.0301
   94SAPS   H4R 9251  -0.039   1.991   6.572  1.6501  0.2854  0.7706
   94SAPS   H4S 9252  -0.011   2.024   6.398  4.1581 -1.1095 -2.4797
   94SAPS   C25 9253   0.172   1.968   6.502 -0.3207 -0.5933 -0.0142
   94SAPS   H5R 9254   0.226   1.955   6.407 -0.4634  0.9230 -0.3169
   94SAPS   C26 9255   0.245   1.968   6.616 -0.3259 -0.4537 -0.4116
   94SAPS   H6R 9256   0.354   1.977   6.602 -0.2271  0.7463  0.8453
   94SAPS   C27 9257   0.195   1.964   6.757  0.4186 -1.0157 -0.3558
   94SAPS   H7R 9258   0.097   1.912   6.749  1.1603 -2.1299 -3.7443
   94SAPS   H7S 9259   0.174   2.066   6.797  2.4632 -1.2469  1.4442
   94SAPS   C28 9260   0.292   1.903   6.855 -0.5353 -0.4264 -0.0792
   94SAPS   H8R 9261   0.392   1.867   6.827 -0.0515 -0.0699  1.1105
   94SAPS   C29 9262   0.282   1.903   6.990  0.3426 -0.3902  0.1535
   94SAPS   H9R 9263   0.361   1.861   7.053 -0.2753 -0.2327  1.0518
   94SAPS  C210 9264   0.182   1.970   7.079 -0.0885  0.7336 -0.8096
   94SAPS  H10R 9265   0.122   1.882   7.112  0.3119  0.8194  0.1582
   94SAPS  H10S 9266   0.104   2.036   7.035 -0.8815  1.2855  1.3141
   94SAPS  C211 9267   0.232   2.039   7.206 -0.5753 -0.2879 -0.5535
   94SAPS  H11R 9268   0.342   2.048   7.214 -0.6124 -1.1467  2.2495
   94SAPS  C212 9269   0.168   2.091   7.312  0.0032 -0.3063 -0.2235
   94SAPS  H12R 9270   0.226   2.142   7.390  2.5486 -0.8246 -1.6686
   94SAPS  C213 9271   0.022   2.091   7.326 -0.5041  0.6941  0.9979
   94SAPS  H13R 9272  -0.009   1.999   7.381 -2.5420  0.1153 -0.9395
   94SAPS  H13S 9273  -0.036   2.069   7.234 -1.0056  0.3474  1.3911
   94SAPS  C214 9274  -0.034   2.216   7.387 -0.0379 -0.4681 -0.1126
   94SAPS  H14R 9275  -0.039   2.308   7.326 -0.2636 -0.9734 -0.8628
   94SAPS  C215 9276  -0.081   2.225   7.511  0.2861  0.4529  0.6055
   94SAPS  H15R 9277  -0.102   2.324   7.554 -3.3049  0.4973 -0.9140
   94SAPS  C216 9278  -0.086   2.116   7.615  0.8414 -0.5996  0.2218
   94SAPS  H16R 9279  -0.041   2.024   7.572  0.9521  0.0648 -1.1421
   94SAPS  H16S 9280  -0.195   2.102   7.633  0.7994  1.9559  2.6325
   94SAPS  C217 9281  -0.013   2.160   7.745  0.4517 -0.0166  0.0415
   94SAPS  H17R 9282   0.094   2.191   7.740  1.2943 -2.6926  0.0804
   94SAPS  H17S 9283  -0.008   2.071   7.811 -1.8754 -0.2743 -0.0582
   94SAPS  C218 9284  -0.092   2.276   7.815 -0.5497  0.0094 -0.1111
   94SAPS  H18R 9285  -0.199   2.265   7.787 -1.0041  4.0733 -0.5324
   94SAPS  H18S 9286  -0.073   2.371   7.762 -0.5872 -0.5074 -1.0752
   94SAPS  C219 9287  -0.059   2.292   7.960 -0.0436  1.1809  0.2278
   94SAPS  H19R 9288  -0.129   2.370   7.996 -1.9612 -1.1616  1.8641
   94SAPS  H19S 9289   0.041   2.337   7.980  0.2788  1.1698 -1.2117
   94SAPS  C220 9290  -0.075   2.169   8.046 -0.0789 -0.6231 -0.0920
   94SAPS  H20R 9291  -0.164   2.106   8.028 -0.7313 -0.6936  2.9515
   94SAPS  H20S 9292  -0.084   2.196   8.153 -1.4231 -1.3820  0.0050
   94SAPS  H20T 9293   0.016   2.105   8.037  0.1324 -0.4696  0.8984
   94SAPS   C33 9294   0.406   1.529   6.740  0.6777  0.0861  0.0994
   94SAPS   H3X 9295   0.447   1.625   6.701  2.2665  0.6385  2.8678
   94SAPS   H3Y 9296   0.490   1.456   6.735  1.1886  0.6318  0.5524
   94SAPS   C34 9297   0.385   1.548   6.894 -0.7061 -0.0942 -0.1537
   94SAPS   H4X 9298   0.349   1.454   6.941  1.8298 -0.3462  1.5075
   94SAPS   H4Y 9299   0.310   1.628   6.909  0.8415  1.3525  0.2018
   94SAPS   C35 9300   0.514   1.597   6.965 -0.1962 -0.1896 -0.4967
   94SAPS   H5X 9301   0.555   1.688   6.915  1.4711 -1.1342 -0.9266
   94SAPS   H5Y 9302   0.589   1.520   6.936  1.8295  1.3936  0.3111
   94SAPS   C36 9303   0.507   1.619   7.122  0.1381 -0.1611 -0.2610
   94SAPS   H6X 9304   0.475   1.519   7.160 -1.6921 -0.2311 -1.8233
   94SAPS   H6Y 9305   0.431   1.689   7.163 -0.7076 -2.3636  2.2578
   94SAPS   C37 9306   0.648   1.653   7.186  0.2124 -0.3869  0.2808
   94SAPS   H7X 9307   0.678   1.757   7.161 -0.4916 -0.1715  0.3279
   94SAPS   H7Y 9308   0.722   1.585   7.137  0.5675  0.2315 -0.0535
   94SAPS   C38 9309   0.666   1.633   7.342 -0.5507 -0.5232  0.0349
   94SAPS   H8X 9310   0.775   1.628   7.363 -0.6666  1.4618  1.4297
   94SAPS   H8Y 9311   0.616   1.537   7.365 -0.9408 -0.4772 -0.6168
   94SAPS   C39 9312   0.605   1.745   7.428 -0.5027 -0.1759  0.0027
   94SAPS   H9X 9313   0.516   1.783   7.373 -0.3926  1.6996  1.0590
   94SAPS   H9Y 9314   0.672   1.830   7.448 -0.6796 -0.3441  1.4156
   94SAPS  C310 9315   0.547   1.707   7.560 -0.0720  0.5697  0.1346
   94SAPS  H10X 9316   0.490   1.614   7.543 -0.1135  0.8536 -1.4965
   94SAPS  H10Y 9317   0.486   1.795   7.590  0.3071  0.7600  0.3551
   94SAPS  C311 9318   0.652   1.678   7.663 -0.1879 -0.1504  0.1105
   94SAPS  H11X 9319   0.691   1.780   7.682  2.2285 -1.0178  0.1370
   94SAPS  H11Y 9320   0.733   1.610   7.630 -0.4987 -0.8070  0.6790
   94SAPS  C312 9321   0.597   1.636   7.799  0.1275  0.1474 -0.2348
   94SAPS  H12X 9322   0.583   1.526   7.795  0.8173  0.0945 -2.2498
   94SAPS  H12Y 9323   0.503   1.691   7.822  0.1340 -0.0172  0.1796
   94SAPS  C313 9324   0.698   1.682   7.908  0.1643  0.3559  1.2381
   94SAPS  H13X 9325   0.679   1.791   7.920 -2.3536  0.0872  0.3126
   94SAPS  H13Y 9326   0.798   1.653   7.870 -1.0563 -1.9411 -0.4271
   94SAPS  C314 9327   0.676   1.607   8.041 -0.6889  0.2382 -0.0299
   94SAPS  H14X 9328   0.667   1.501   8.011  2.3965  0.3461 -1.6974
   94SAPS  H14Y 9329   0.584   1.650   8.087 -1.3766 -0.6557 -0.5419
   94SAPS  C315 9330   0.800   1.616   8.124 -0.3604  0.1207 -0.2060
   94SAPS  H15X 9331   0.841   1.715   8.152  2.0566 -0.9279  0.2290
   94SAPS  H15Y 9332   0.887   1.582   8.064  0.7043  3.1334 -0.5460
   94SAPS  C316 9333   0.787   1.527   8.249 -0.1635  0.3639 -0.1332
   94SAPS  H16X 9334   0.745   1.431   8.212  3.8004 -0.4436 -3.2969
   94SAPS  H16Y 9335   0.714   1.568   8.322 -0.1867 -0.3017  0.2228
   94SAPS  C317 9336   0.926   1.518   8.324  0.3477 -0.1225  0.0274
   94SAPS  H17X 9337   0.957   1.621   8.355  1.1065 -0.3001 -0.1284
   94SAPS  H17Y 9338   0.997   1.472   8.252 -0.7777 -0.8433 -0.6382
   94SAPS  C318 9339   0.907   1.446   8.463  0.2217  0.6737 -0.8558
   94SAPS  H18X 9340   0.863   1.348   8.434 -0.1628  0.9996 -1.3707
   94SAPS  H18Y 9341   0.834   1.504   8.523  1.6528  1.5291  0.1231
   94SAPS  H18Z 9342   1.004   1.440   8.518 -1.0138  0.7885  1.4801
   95SAPS     N 9343   4.355   0.231   6.047  0.1413  0.6665  0.0681
   95SAPS   HN1 9344   4.323   0.281   6.133  0.0695 -1.5551  1.4053
   95SAPS   HN2 9345   4.338   0.297   5.969 -2.0033  2.3979  1.8432
   95SAPS   HN3 9346   4.301   0.142   6.040 -0.4561  1.1590 -2.3008
   95SAPS   C12 9347   4.505   0.211   6.051  0.4561 -0.4260 -0.3659
   95SAPS  H12A 9348   4.531   0.156   5.962 -2.8132 -0.2682 -1.5138
   95SAPS   C13 9349   4.590   0.339   6.053  0.3164 -0.2101 -0.2825
   95SAPS  O13A 9350   4.533   0.452   6.049  0.5767 -0.0930  0.0582
   95SAPS  O13B 9351   4.716   0.328   6.049 -0.0851  0.6512 -0.9400
   95SAPS   C11 9352   4.538   0.133   6.181  0.0922 -0.1267 -0.1069
   95SAPS  H11A 9353   4.503   0.208   6.255 -2.3211 -0.9995 -0.2739
   95SAPS  H11B 9354   4.645   0.116   6.201 -0.2842  0.9818  3.6246
   95SAPS     P 9355   4.374  -0.036   6.306 -0.2199  0.4783  0.4731
   95SAPS   O13 9356   4.236   0.022   6.293 -0.0766  0.5505 -0.5090
   95SAPS   O14 9357   4.393  -0.188   6.310  0.2444 -0.2245 -0.1272
   95SAPS   O12 9358   4.467   0.012   6.190  0.0447 -0.4586 -0.3914
   95SAPS   O11 9359   4.449   0.018   6.432  0.2599  0.1326  0.4508
   95SAPS    C1 9360   4.579  -0.004   6.485 -0.2228  0.0641 -0.1028
   95SAPS    HA 9361   4.590  -0.113   6.505  1.2744  0.2013 -0.1212
   95SAPS    HB 9362   4.650   0.040   6.413 -0.6094  0.5585 -0.1825
   95SAPS    C2 9363   4.606   0.060   6.628  1.4968  0.7397 -0.7002
   95SAPS    HS 9364   4.700   0.016   6.667  1.1163  0.7865  0.3096
   95SAPS   O21 9365   4.494   0.034   6.714  0.5770 -0.4252 -0.1306
   95SAPS   C21 9366   4.481  -0.082   6.770  0.6048 -0.6805  0.7240
   95SAPS   O22 9367   4.565  -0.170   6.763  0.4882 -0.0250  0.0090
   95SAPS   C22 9368   4.363  -0.082   6.863 -0.5973 -0.8545  0.0883
   95SAPS   H2R 9369   4.387  -0.021   6.952  0.4328  0.0468 -0.7671
   95SAPS   H2S 9370   4.275  -0.030   6.818  0.3803  1.0543  0.2581
   95SAPS    C3 9371   4.625   0.210   6.617 -0.4053 -0.0401 -1.0995
   95SAPS    HX 9372   4.548   0.254   6.550 -1.7608 -0.5088  0.1073
   95SAPS    HY 9373   4.729   0.216   6.576  0.3301  0.6383  0.7607
   95SAPS   O31 9374   4.628   0.271   6.747  0.2393 -0.0047 -0.4318
   95SAPS   C31 9375   4.520   0.344   6.792  0.3086  0.2988  0.5626
   95SAPS   O32 9376   4.420   0.357   6.726  0.3110 -0.1616  0.4958
   95SAPS   C32 9377   4.556   0.401   6.928 -0.4945  0.3862  0.9727
   95SAPS   H2X 9378   4.633   0.482   6.921 -0.3591  0.1201 -1.1841
   95SAPS   H2Y 9379   4.600   0.311   6.976 -0.9433 -0.0269  0.6093
   95SAPS   C23 9380   4.324  -0.222   6.917 -0.1689 -0.7034  1.1963
   95SAPS   H3R 9381   4.421  -0.269   6.944  0.4236 -0.2066  0.0328
   95SAPS   H3S 9382   4.287  -0.280   6.830  1.1349 -1.4803  1.1343
   95SAPS   C24 9383   4.239  -0.220   7.045 -0.3809  0.0467 -0.5667
   95SAPS   H4R 9384   4.137  -0.177   7.030 -1.4027 -2.0557 -0.0294
   95SAPS   H4S 9385   4.292  -0.148   7.110 -3.7940  1.2536  1.1085
   95SAPS   C25 9386   4.238  -0.361   7.102 -0.4468  0.2601  0.0155
   95SAPS   H5R 9387   4.179  -0.433   7.043 -0.4008 -1.3910  1.8509
   95SAPS   C26 9388   4.293  -0.401   7.216  0.2689  0.9078  0.4389
   95SAPS   H6R 9389   4.259  -0.503   7.237  2.1833 -0.2672 -1.7018
   95SAPS   C27 9390   4.366  -0.327   7.322 -0.2479  0.2392 -0.2320
   95SAPS   H7R 9391   4.309  -0.238   7.355  0.4747 -0.3302  2.9089
   95SAPS   H7S 9392   4.463  -0.282   7.291 -0.1104  0.9268  1.1335
   95SAPS   C28 9393   4.400  -0.413   7.446 -0.8284  0.3085  0.6107
   95SAPS   H8R 9394   4.508  -0.429   7.455 -0.0792  3.9170 -0.5475
   95SAPS   C29 9395   4.314  -0.455   7.536 -0.0992 -0.0550 -0.2694
   95SAPS   H9R 9396   4.357  -0.515   7.618  0.4487  2.2781  1.2699
   95SAPS  C210 9397   4.170  -0.439   7.539 -0.3435  0.4565 -0.1139
   95SAPS  H10R 9398   4.125  -0.430   7.438 -0.8466  2.1666  0.2221
   95SAPS  H10S 9399   4.149  -0.338   7.582 -2.3234 -0.1930  0.5546
   95SAPS  C211 9400   4.102  -0.546   7.610 -0.4660  0.0586  0.1211
   95SAPS  H11R 9401   4.091  -0.644   7.562  0.5255  1.1253 -2.4638
   95SAPS  C212 9402   4.050  -0.528   7.731  0.4837 -0.0540  1.1294
   95SAPS  H12R 9403   3.998  -0.615   7.774 -2.8900  1.6796  0.9000
   95SAPS  C213 9404   4.055  -0.395   7.810 -0.7224  0.3029  0.4576
   95SAPS  H13R 9405   4.021  -0.319   7.737  1.2063  0.5225 -0.2740
   95SAPS  H13S 9406   4.158  -0.363   7.836 -1.0930  3.0292 -1.1044
   95SAPS  C214 9407   3.954  -0.399   7.922 -0.1991  0.2631  0.1067
   95SAPS  H14R 9408   3.848  -0.378   7.898 -1.0499 -2.2161  1.3262
   95SAPS  C215 9409   3.981  -0.414   8.049  0.1480 -0.2647  0.1037
   95SAPS  H15R 9410   3.903  -0.419   8.126  0.4458 -1.9562  0.3392
   95SAPS  C216 9411   4.117  -0.431   8.110 -0.0355  0.4142  0.2308
   95SAPS  H16R 9412   4.118  -0.367   8.201  0.2050 -0.0179  0.5355
   95SAPS  H16S 9413   4.203  -0.400   8.047  0.3611  1.0817  1.0677
   95SAPS  C217 9414   4.141  -0.581   8.147  0.0834  0.0071 -0.1362
   95SAPS  H17R 9415   4.244  -0.582   8.190  0.2590 -0.5691 -0.5637
   95SAPS  H17S 9416   4.131  -0.643   8.056 -0.3698  1.2923 -0.9865
   95SAPS  C218 9417   4.053  -0.638   8.250 -0.3612 -1.0718 -0.7566
   95SAPS  H18R 9418   3.946  -0.616   8.231  0.0826 -0.1892 -2.4750
   95SAPS  H18S 9419   4.081  -0.601   8.351  1.2584 -1.8346 -0.8924
   95SAPS  C219 9420   4.057  -0.794   8.278  0.1210 -0.1108 -0.2889
   95SAPS  H19R 9421   4.004  -0.835   8.190 -1.2121 -0.1354  0.4903
   95SAPS  H19S 9422   3.985  -0.819   8.359  1.0372 -0.9243  0.2975
   95SAPS  C220 9423   4.198  -0.849   8.305  0.4314  0.2475 -0.0672
   95SAPS  H20R 9424   4.222  -0.886   8.407  1.4907 -0.6609 -0.6372
   95SAPS  H20S 9425   4.283  -0.783   8.278  0.0108 -0.2944 -3.0671
   95SAPS  H20T 9426   4.214  -0.931   8.233 -0.8376  0.9799 -1.2323
   95SAPS   C33 9427   4.438   0.451   7.019 -0.4558 -0.0056  0.3567
   95SAPS   H3X 9428   4.360   0.372   7.013 -0.1107 -0.2300 -2.3505
   95SAPS   H3Y 9429   4.382   0.535   6.971 -0.9602  0.4270  1.6615
   95SAPS   C34 9430   4.490   0.484   7.157 -0.9622 -0.2440 -0.5174
   95SAPS   H4X 9431   4.536   0.585   7.157 -0.1565 -0.5327  2.2253
   95SAPS   H4Y 9432   4.578   0.424   7.188 -0.7239  0.5448  0.3936
   95SAPS   C35 9433   4.389   0.479   7.270  0.1248 -0.3995 -0.4711
   95SAPS   H5X 9434   4.312   0.401   7.254  0.0586 -0.1089 -1.6487
   95SAPS   H5Y 9435   4.341   0.577   7.292  1.4034  0.1677 -0.0834
   95SAPS   C36 9436   4.459   0.428   7.404  0.3847 -0.0224 -0.4854
   95SAPS   H6X 9437   4.545   0.498   7.414 -1.0843  1.8551 -0.3987
   95SAPS   H6Y 9438   4.502   0.326   7.395  1.3918  0.3628 -0.2670
   95SAPS   C37 9439   4.382   0.456   7.533 -0.4614 -0.3387 -0.8104
   95SAPS   H7X 9440   4.274   0.430   7.522 -0.6712  1.2377 -3.1888
   95SAPS   H7Y 9441   4.377   0.566   7.544 -1.4242 -0.5855  2.5896
   95SAPS   C38 9442   4.452   0.392   7.661 -0.2501 -0.3265 -0.0211
   95SAPS   H8X 9443   4.545   0.447   7.684  0.5048 -1.6336  0.1206
   95SAPS   H8Y 9444   4.478   0.285   7.642 -0.9797 -1.2302  3.4109
   95SAPS   C39 9445   4.360   0.387   7.786  0.0003  0.2130  0.4082
   95SAPS   H9X 9446   4.320   0.488   7.811  2.7229  2.0055 -1.8466
   95SAPS   H9Y 9447   4.432   0.371   7.870  1.3064 -1.9179 -1.0247
   95SAPS  C310 9448   4.249   0.289   7.765 -0.4873 -0.6312 -0.8302
   95SAPS  H10X 9449   4.295   0.205   7.708  2.8085  0.7612 -0.4837
   95SAPS  H10Y 9450   4.168   0.331   7.701 -1.2918  0.5282  0.8948
   95SAPS  C311 9451   4.189   0.229   7.888 -0.1621 -0.2830  0.4326
   95SAPS  H11X 9452   4.103   0.164   7.863 -1.5136  3.0396 -5.2449
   95SAPS  H11Y 9453   4.151   0.304   7.960 -1.3017  0.2569 -0.6915
   95SAPS  C312 9454   4.296   0.153   7.977 -0.7968  0.3271  0.3395
   95SAPS  H12X 9455   4.343   0.223   8.049 -0.2771  0.7323 -0.3899
   95SAPS  H12Y 9456   4.375   0.110   7.911  0.2209  3.6855 -0.8150
   95SAPS  C313 9457   4.232   0.052   8.074 -0.2251 -0.3635 -0.3574
   95SAPS  H13X 9458   4.321  -0.005   8.108 -0.7885 -1.2722 -0.3846
   95SAPS  H13Y 9459   4.160  -0.016   8.023  0.4879 -0.4736 -1.2506
   95SAPS  C314 9460   4.157   0.116   8.197  0.4027  0.4068  0.9850
   95SAPS  H14X 9461   4.088   0.193   8.158 -1.1306 -0.3757  2.0634
   95SAPS  H14Y 9462   4.238   0.164   8.256  3.0346 -3.2615  0.7418
   95SAPS  C315 9463   4.086   0.019   8.295 -0.5808  0.3105  0.0188
   95SAPS  H15X 9464   4.009  -0.045   8.246 -0.3717  0.8340 -1.0287
   95SAPS  H15Y 9465   4.039   0.074   8.379  0.3150 -1.5823  1.8500
   95SAPS  C316 9466   4.193  -0.056   8.374 -0.6192 -0.3562  0.1065
   95SAPS  H16X 9467   4.279   0.011   8.393 -1.2932  0.1827  1.3079
   95SAPS  H16Y 9468   4.226  -0.143   8.313  1.0867  1.8913 -2.4329
   95SAPS  C317 9469   4.130  -0.121   8.502  0.0418 -0.2579  0.3002
   95SAPS  H17X 9470   4.107  -0.031   8.563 -0.1095  0.3246 -0.6030
   95SAPS  H17Y 9471   4.209  -0.183   8.550  1.1532  0.0735 -1.0336
   95SAPS  C318 9472   4.003  -0.202   8.493  0.7370  0.0399  0.0853
   95SAPS  H18X 9473   4.010  -0.266   8.403 -0.9608  3.7710 -2.9758
   95SAPS  H18Y 9474   3.910  -0.141   8.497  1.2431  0.8580 -0.2599
   95SAPS  H18Z 9475   3.994  -0.263   8.586 -0.2610  0.3325  0.1903
   96SAPS     N 9476   5.621   2.264   6.098  0.0816 -0.7971 -0.1355
   96SAPS   HN1 9477   5.626   2.275   5.995  0.5334 -1.9092 -0.2548
   96SAPS   HN2 9478   5.716   2.261   6.140  0.6884  0.5906 -1.3559
   96SAPS   HN3 9479   5.579   2.171   6.119 -0.9742 -0.9104 -2.4027
   96SAPS   C12 9480   5.542   2.371   6.173  0.3479 -0.0179  0.2030
   96SAPS  H12A 9481   5.567   2.386   6.277  1.2708  1.8884 -0.2432
   96SAPS   C13 9482   5.566   2.515   6.116 -0.5982 -0.2996  0.4171
   96SAPS  O13A 9483   5.672   2.543   6.051 -0.0648  1.1705  0.0048
   96SAPS  O13B 9484   5.498   2.605   6.175 -0.4963  0.2535 -0.2313
   96SAPS   C11 9485   5.394   2.345   6.158 -0.0953  0.8226 -0.2605
   96SAPS  H11A 9486   5.361   2.357   6.052 -1.8123 -0.2941  0.1125
   96SAPS  H11B 9487   5.336   2.413   6.223 -0.5138 -0.3680  0.6380
   96SAPS     P 9488   5.229   2.169   6.277  0.2034 -0.0107 -0.5397
   96SAPS   O13 9489   5.109   2.228   6.218  0.0493 -0.2670 -1.0212
   96SAPS   O14 9490   5.235   2.020   6.294 -0.0682 -1.0425  0.0227
   96SAPS   O12 9491   5.361   2.210   6.194 -0.5802 -0.3850 -0.6058
   96SAPS   O11 9492   5.257   2.238   6.415 -0.6283  0.0781 -0.3122
   96SAPS    C1 9493   5.370   2.190   6.493  0.2245 -0.3058  0.4742
   96SAPS    HA 9494   5.380   2.079   6.491  3.1240 -0.1533  1.3625
   96SAPS    HB 9495   5.467   2.232   6.459 -0.4376 -0.0476 -1.1943
   96SAPS    C2 9496   5.352   2.237   6.639 -0.5117 -0.0080 -0.2316
   96SAPS    HS 9497   5.248   2.210   6.670 -0.6629 -1.1844 -1.6735
   96SAPS   O21 9498   5.378   2.381   6.647  0.2436 -0.3693 -0.1062
   96SAPS   C21 9499   5.337   2.448   6.756  0.6378 -0.3059 -0.3026
   96SAPS   O22 9500   5.261   2.395   6.844 -1.0388 -0.5204 -0.4558
   96SAPS   C22 9501   5.416   2.572   6.766 -0.4811 -0.1557  0.2109
   96SAPS   H2R 9502   5.524   2.549   6.774  0.0377  1.5654 -1.1120
   96SAPS   H2S 9503   5.407   2.634   6.674  2.2246  1.8715  1.1856
   96SAPS    C3 9504   5.460   2.151   6.724 -0.0574 -0.2479 -0.3323
   96SAPS    HX 9505   5.559   2.179   6.680  0.8098  0.4042  1.8710
   96SAPS    HY 9506   5.447   2.042   6.714  1.3408 -0.6899  1.9165
   96SAPS   O31 9507   5.464   2.182   6.866 -0.1195 -0.1138  0.4112
   96SAPS   C31 9508   5.366   2.131   6.941 -0.4199 -0.5382 -0.5197
   96SAPS   O32 9509   5.289   2.049   6.908 -0.5439 -0.0776 -0.6267
   96SAPS   C32 9510   5.388   2.184   7.089  0.7072 -0.9471 -0.2911
   96SAPS   H2X 9511   5.347   2.286   7.102 -1.0946 -1.7443  0.6259
   96SAPS   H2Y 9512   5.499   2.187   7.102  0.8237  0.0704 -1.3876
   96SAPS   C23 9513   5.364   2.668   6.877  0.3032 -0.1808 -0.2229
   96SAPS   H3R 9514   5.361   2.616   6.975 -2.1523 -0.2435 -0.2682
   96SAPS   H3S 9515   5.258   2.695   6.856  0.6540  0.4135 -1.2722
   96SAPS   C24 9516   5.448   2.794   6.901 -0.4954  0.3364 -0.1153
   96SAPS   H4R 9517   5.540   2.767   6.956 -0.3455  1.0948  0.0034
   96SAPS   H4S 9518   5.398   2.849   6.983 -1.5968 -2.3225  1.1400
   96SAPS   C25 9519   5.496   2.875   6.787 -0.5100  0.6896 -0.4858
   96SAPS   H5R 9520   5.470   2.838   6.687 -0.8130  1.0948 -0.5592
   96SAPS   C26 9521   5.580   2.978   6.803 -0.7018 -0.1164 -0.2507
   96SAPS   H6R 9522   5.626   3.027   6.715 -2.1415 -0.8265 -1.4344
   96SAPS   C27 9523   5.622   3.039   6.932  0.4754 -0.0345  0.5177
   96SAPS   H7R 9524   5.544   3.023   7.008  1.0041  0.6010  1.2113
   96SAPS   H7S 9525   5.624   3.150   6.924 -1.4069 -0.0791 -1.6337
   96SAPS   C28 9526   5.759   2.996   6.981 -0.2018  0.5578  0.0021
   96SAPS   H8R 9527   5.831   2.993   6.898  0.0735 -1.3381  0.2657
   96SAPS   C29 9528   5.803   2.963   7.105 -0.0693  0.3678 -0.5904
   96SAPS   H9R 9529   5.910   2.945   7.121  0.1684  1.3606 -1.0343
   96SAPS  C210 9530   5.715   2.952   7.223  0.2176  0.4595 -0.3337
   96SAPS  H10R 9531   5.643   3.036   7.216  2.6053  2.5603 -0.9072
   96SAPS  H10S 9532   5.772   2.970   7.317 -0.3631 -0.0383  0.1250
   96SAPS  C211 9533   5.623   2.835   7.239 -0.5303  0.8851 -0.3786
   96SAPS  H11R 9534   5.595   2.769   7.155 -0.1250 -0.1401  0.2680
   96SAPS  C212 9535   5.572   2.796   7.354 -0.2146  0.5453 -0.8412
   96SAPS  H12R 9536   5.492   2.720   7.352  1.9604 -1.9053 -0.6794
   96SAPS  C213 9537   5.588   2.868   7.490 -0.7068 -0.1781  0.5107
   96SAPS  H13R 9538   5.697   2.884   7.504 -0.2491 -0.8841 -1.6665
   96SAPS  H13S 9539   5.558   2.804   7.576  1.0321 -0.4378  0.9665
   96SAPS  C214 9540   5.532   3.005   7.501  0.6124  0.8761  0.1575
   96SAPS  H14R 9541   5.535   3.065   7.409  1.0185  0.2399 -0.2561
   96SAPS  C215 9542   5.499   3.065   7.618 -0.0474  0.2573  0.2066
   96SAPS  H15R 9543   5.453   3.165   7.620 -0.5632  0.1399 -2.3485
   96SAPS  C216 9544   5.508   3.006   7.756  0.5947 -0.0148  0.4845
   96SAPS  H16R 9545   5.481   3.085   7.830 -0.5258 -0.1773  0.2593
   96SAPS  H16S 9546   5.599   2.954   7.793 -1.1459 -2.1401  2.0202
   96SAPS  C217 9547   5.388   2.911   7.781 -0.1022  0.2501 -0.3050
   96SAPS  H17R 9548   5.397   2.815   7.726  1.7855 -1.2306  2.3758
   96SAPS  H17S 9549   5.289   2.946   7.743 -0.1876 -0.8104 -1.1050
   96SAPS  C218 9550   5.360   2.893   7.931 -0.8303 -0.1938  0.1174
   96SAPS  H18R 9551   5.252   2.866   7.935 -0.8386 -0.0696  0.7973
   96SAPS  H18S 9552   5.367   2.995   7.973  0.4540 -0.4707  0.6081
   96SAPS  C219 9553   5.466   2.800   8.000  0.0521 -0.5587  0.4720
   96SAPS  H19R 9554   5.566   2.849   8.004 -0.3423  0.2550  0.3528
   96SAPS  H19S 9555   5.469   2.711   7.933 -0.3817  0.5218 -1.0079
   96SAPS  C220 9556   5.429   2.765   8.142  0.0514 -0.6859  0.1049
   96SAPS  H20R 9557   5.329   2.719   8.155  0.0729 -0.3594  1.7136
   96SAPS  H20S 9558   5.412   2.853   8.208  0.0948  1.0845 -2.1491
   96SAPS  H20T 9559   5.496   2.691   8.190 -1.0684 -1.9205 -0.1696
   96SAPS   C33 9560   5.326   2.075   7.179  0.0793  0.4432  0.4474
   96SAPS   H3X 9561   5.375   1.975   7.173  0.9607  0.9022 -0.3597
   96SAPS   H3Y 9562   5.219   2.059   7.155  0.5288 -3.3430  0.4449
   96SAPS   C34 9563   5.311   2.113   7.324 -0.1961 -0.4469  0.0870
   96SAPS   H4X 9564   5.222   2.064   7.368 -1.3970 -0.4676 -2.2030
   96SAPS   H4Y 9565   5.286   2.222   7.321  1.6629  0.0049 -0.6026
   96SAPS   C35 9566   5.442   2.097   7.405  0.4254 -0.1217 -0.2750
   96SAPS   H5X 9567   5.521   2.171   7.381  1.3384 -1.0606 -0.2529
   96SAPS   H5Y 9568   5.477   1.993   7.390  1.5281  0.0494  0.9255
   96SAPS   C36 9569   5.428   2.112   7.554  0.2225 -0.0590 -0.6255
   96SAPS   H6X 9570   5.358   2.036   7.595  0.6154 -0.9233 -1.5293
   96SAPS   H6Y 9571   5.375   2.207   7.576  1.4557  0.3476  0.7997
   96SAPS   C37 9572   5.567   2.105   7.616 -0.5649  0.2313 -0.8698
   96SAPS   H7X 9573   5.626   2.188   7.569  0.3488  2.1868  3.2719
   96SAPS   H7Y 9574   5.618   2.012   7.583  1.1562  0.9114 -0.2449
   96SAPS   C38 9575   5.571   2.127   7.771 -0.7167 -0.2831  0.6802
   96SAPS   H8X 9576   5.500   2.065   7.830  0.6241 -1.6878  0.8762
   96SAPS   H8Y 9577   5.538   2.232   7.785 -0.1543  0.4536 -2.7156
   96SAPS   C39 9578   5.709   2.128   7.831 -0.2136  0.3611  0.0754
   96SAPS   H9X 9579   5.773   2.209   7.790  1.4905 -0.8779  0.1585
   96SAPS   H9Y 9580   5.758   2.030   7.810  0.5348  0.4343  1.3858
   96SAPS  C310 9581   5.710   2.144   7.987  0.5471 -0.7109  0.1393
   96SAPS  H10X 9582   5.676   2.050   8.034 -1.6033 -0.1174 -0.1139
   96SAPS  H10Y 9583   5.626   2.215   8.006  0.2125 -1.0037 -0.2132
   96SAPS  C311 9584   5.834   2.202   8.058 -0.7927  1.0175 -0.1492
   96SAPS  H11X 9585   5.796   2.262   8.143  0.9470  2.2752 -0.1920
   96SAPS  H11Y 9586   5.898   2.258   7.986  0.2344 -0.0989 -0.1536
   96SAPS  C312 9587   5.926   2.094   8.118  0.1171 -0.6288  0.4057
   96SAPS  H12X 9588   5.974   2.032   8.040  0.1498  1.4227 -1.2913
   96SAPS  H12Y 9589   5.854   2.029   8.173 -0.6480  0.8600  1.2446
   96SAPS  C313 9590   6.027   2.149   8.222 -0.5730 -0.2189  0.0080
   96SAPS  H13X 9591   6.077   2.076   8.288  1.1868 -0.1645 -1.1807
   96SAPS  H13Y 9592   5.969   2.218   8.287 -1.1550 -1.1638  0.5068
   96SAPS  C314 9593   6.138   2.237   8.167 -0.4686 -0.8256 -0.1852
   96SAPS  H14X 9594   6.110   2.344   8.160 -1.3575 -1.0713 -0.5015
   96SAPS  H14Y 9595   6.168   2.193   8.070  1.3917 -1.5062  0.6616
   96SAPS  C315 9596   6.264   2.219   8.252 -0.3788 -0.1923 -0.0035
   96SAPS  H15X 9597   6.351   2.239   8.187  0.2741 -1.9027  0.2970
   96SAPS  H15Y 9598   6.271   2.115   8.290 -0.7891  0.2116  1.2327
   96SAPS  C316 9599   6.267   2.318   8.366 -0.0283  0.3534  0.0563
   96SAPS  H16X 9600   6.179   2.309   8.434 -1.3046 -0.6388 -1.6585
   96SAPS  H16Y 9601   6.281   2.422   8.331  3.1984  0.1703  0.4298
   96SAPS  C317 9602   6.394   2.291   8.448 -0.3757 -0.5035  0.0303
   96SAPS  H17X 9603   6.487   2.282   8.387 -0.2119 -0.0693  0.2050
   96SAPS  H17Y 9604   6.393   2.204   8.517 -0.5307  0.7859  1.7343
   96SAPS  C318 9605   6.404   2.408   8.549 -0.1854 -0.1033  0.2683
   96SAPS  H18X 9606   6.369   2.501   8.501 -3.1270  0.7644  3.6634
   96SAPS  H18Y 9607   6.505   2.424   8.593 -0.8989 -1.3308  2.5206
   96SAPS  H18Z 9608   6.339   2.377   8.634 -1.2844 -1.8003 -1.1141
   97SAPS     N 9609   5.797   0.167   6.334  0.0842 -0.1111  0.3615
   97SAPS   HN1 9610   5.858   0.233   6.386  3.5980 -1.6575 -1.4310
   97SAPS   HN2 9611   5.784   0.201   6.236 -1.0610 -2.6858 -0.4823
   97SAPS   HN3 9612   5.711   0.138   6.385  0.4083 -1.3259  0.2621
   97SAPS   C12 9613   5.880   0.043   6.333 -0.0445 -0.6973  0.6880
   97SAPS  H12A 9614   5.837  -0.027   6.262  0.2117 -1.7219  1.5284
   97SAPS   C13 9615   6.024   0.072   6.297 -0.6709  0.2555  0.0444
   97SAPS  O13A 9616   6.074   0.189   6.276  0.9364 -0.4424 -0.1277
   97SAPS  O13B 9617   6.103  -0.021   6.263 -0.5246  0.6251  0.7327
   97SAPS   C11 9618   5.884  -0.021   6.469 -0.1289  0.3921 -1.2229
   97SAPS  H11A 9619   5.936   0.048   6.538  1.4138 -0.6758 -1.2671
   97SAPS  H11B 9620   5.954  -0.106   6.481 -0.0571  0.6130  0.1211
   97SAPS     P 9621   5.676  -0.176   6.506 -0.2013 -0.0169  0.1225
   97SAPS   O13 9622   5.543  -0.166   6.573 -0.1203 -0.3924 -0.3065
   97SAPS   O14 9623   5.682  -0.213   6.356 -0.1034 -0.1061 -0.5463
   97SAPS   O12 9624   5.752  -0.046   6.512 -0.0601 -0.2191 -0.2956
   97SAPS   O11 9625   5.767  -0.278   6.586 -0.4092  0.4167  0.1553
   97SAPS    C1 9626   5.764  -0.276   6.731  0.6101  0.6401 -1.0295
   97SAPS    HA 9627   5.787  -0.173   6.764 -0.7735  0.0942  2.0244
   97SAPS    HB 9628   5.660  -0.304   6.761  1.4835 -2.0008 -0.1426
   97SAPS    C2 9629   5.865  -0.365   6.803 -0.5596 -0.4436 -0.3968
   97SAPS    HS 9630   5.842  -0.382   6.910  0.6588  1.0606  0.1407
   97SAPS   O21 9631   6.002  -0.308   6.783  0.5165  0.4555 -0.4159
   97SAPS   C21 9632   6.096  -0.338   6.875  0.1848  1.1122 -0.1404
   97SAPS   O22 9633   6.083  -0.419   6.965  0.0374 -0.6215  0.0666
   97SAPS   C22 9634   6.223  -0.277   6.843  0.4160  0.4839 -0.4676
   97SAPS   H2R 9635   6.290  -0.288   6.932 -1.5245  3.1307  1.4921
   97SAPS   H2S 9636   6.268  -0.339   6.763  0.2807 -1.7422  1.0741
   97SAPS    C3 9637   5.856  -0.509   6.739  0.1750  0.0574 -0.6288
   97SAPS    HX 9638   5.875  -0.487   6.631  0.9560  3.6847  0.1129
   97SAPS    HY 9639   5.755  -0.556   6.747  0.3666 -0.4549 -1.1439
   97SAPS   O31 9640   5.965  -0.589   6.783 -0.4254  0.1143  0.6662
   97SAPS   C31 9641   5.935  -0.664   6.888  0.8189 -0.1058 -0.0257
   97SAPS   O32 9642   5.826  -0.659   6.945 -0.3496  0.4132  0.2331
   97SAPS   C32 9643   6.034  -0.779   6.908 -0.4023 -1.3079 -0.3108
   97SAPS   H2X 9644   6.112  -0.759   6.984  0.9024 -3.2530 -1.0559
   97SAPS   H2Y 9645   6.091  -0.795   6.814 -1.6444 -0.3798 -1.2666
   97SAPS   C23 9646   6.211  -0.129   6.797 -0.1773  0.7445 -0.0030
   97SAPS   H3R 9647   6.119  -0.115   6.737 -0.5568  0.8326  0.5907
   97SAPS   H3S 9648   6.294  -0.095   6.732  0.5387  1.9854  1.4857
   97SAPS   C24 9649   6.201  -0.032   6.916 -0.4151 -0.4830  0.2517
   97SAPS   H4R 9650   6.123  -0.063   6.990 -0.8752  0.0370 -0.0058
   97SAPS   H4S 9651   6.162   0.064   6.878 -0.3609 -0.9662 -1.0842
   97SAPS   C25 9652   6.337  -0.009   6.988  0.0654  0.4628 -0.1341
   97SAPS   H5R 9653   6.417   0.039   6.931  1.0525 -0.2349  0.6373
   97SAPS   C26 9654   6.372  -0.040   7.116 -0.2310  0.2962 -0.3515
   97SAPS   H6R 9655   6.473  -0.023   7.154 -0.3355  1.2292 -0.4652
   97SAPS   C27 9656   6.276  -0.108   7.214  0.4440 -0.0487 -0.5926
   97SAPS   H7R 9657   6.334  -0.194   7.254  0.5419 -0.5991 -1.8649
   97SAPS   H7S 9658   6.191  -0.155   7.159  0.5905 -1.5400  0.3718
   97SAPS   C28 9659   6.207  -0.017   7.313 -0.3677 -0.5165  0.1303
   97SAPS   H8R 9660   6.161   0.074   7.272 -1.2428 -1.7161 -1.6949
   97SAPS   C29 9661   6.199  -0.034   7.444 -0.5535  0.0900  0.0287
   97SAPS   H9R 9662   6.144   0.040   7.504 -0.5113 -0.1668  0.3932
   97SAPS  C210 9663   6.249  -0.158   7.519  0.0474 -0.4803  0.1569
   97SAPS  H10R 9664   6.359  -0.172   7.521  0.1138 -0.4844  4.1548
   97SAPS  H10S 9665   6.222  -0.244   7.454  0.4635 -0.6849  0.2484
   97SAPS  C211 9666   6.193  -0.181   7.656  0.4308 -0.0496 -0.3125
   97SAPS  H11R 9667   6.182  -0.288   7.679  1.3270  0.3783  2.4017
   97SAPS  C212 9668   6.174  -0.093   7.759  0.0488  0.2289  0.8905
   97SAPS  H12R 9669   6.133  -0.137   7.851  0.7021 -1.3837  0.4472
   97SAPS  C213 9670   6.201   0.053   7.770 -0.5214  0.7966  1.0477
   97SAPS  H13R 9671   6.134   0.105   7.699  0.9439  0.8537 -0.3451
   97SAPS  H13S 9672   6.299   0.072   7.722 -1.0621 -0.0462 -0.4394
   97SAPS  C214 9673   6.201   0.094   7.914 -0.2650  0.1626 -0.9044
   97SAPS  H14R 9674   6.293   0.073   7.970 -1.8430 -3.2492  0.7252
   97SAPS  C215 9675   6.093   0.159   7.961  0.4483  0.5157 -0.3488
   97SAPS  H15R 9676   6.101   0.208   8.059 -0.4880  2.1382 -1.0527
   97SAPS  C216 9677   5.958   0.183   7.896 -0.8477 -0.2452  0.0966
   97SAPS  H16R 9678   5.902   0.088   7.891 -0.0156 -0.7235 -3.5364
   97SAPS  H16S 9679   5.978   0.217   7.792 -1.1264 -0.8422 -0.1535
   97SAPS  C217 9680   5.854   0.280   7.966 -0.0511  0.0402 -0.5741
   97SAPS  H17R 9681   5.781   0.269   7.882  1.5382 -0.3839 -1.9413
   97SAPS  H17S 9682   5.900   0.381   7.959  1.1992 -0.4323  0.5728
   97SAPS  C218 9683   5.806   0.241   8.105 -0.0564  0.2052 -0.8612
   97SAPS  H18R 9684   5.900   0.226   8.163 -0.5081  1.0468  0.1141
   97SAPS  H18S 9685   5.763   0.139   8.091 -0.7026  0.3863 -0.2820
   97SAPS  C219 9686   5.710   0.338   8.174 -0.1393  1.0120  0.1330
   97SAPS  H19R 9687   5.747   0.441   8.195 -0.5745  1.5740 -1.6543
   97SAPS  H19S 9688   5.687   0.292   8.272  1.0053 -0.6035 -0.3261
   97SAPS  C220 9689   5.574   0.358   8.111 -0.2594 -0.4343 -0.0070
   97SAPS  H20R 9690   5.592   0.396   8.008  0.8680 -1.0710 -0.0546
   97SAPS  H20S 9691   5.520   0.436   8.169 -1.3419 -1.4527  0.3954
   97SAPS  H20T 9692   5.501   0.275   8.108  0.0752 -0.7638 -3.4821
   97SAPS   C33 9693   5.969  -0.922   6.930  0.3131 -1.2557  0.3514
   97SAPS   H3X 9694   5.928  -0.944   6.829  1.6925 -0.5809 -0.3800
   97SAPS   H3Y 9695   5.891  -0.923   7.009  1.0709 -0.9443  1.1209
   97SAPS   C34 9696   6.076  -1.006   6.973 -0.2617  0.4524  0.0678
   97SAPS   H4X 9697   6.174  -0.970   6.935  0.4338  0.6041  1.9107
   97SAPS   H4Y 9698   6.049  -1.110   6.944  0.7332  0.8391 -2.5136
   97SAPS   C35 9699   6.082  -1.009   7.132 -0.3881  0.1662  0.6392
   97SAPS   H5X 9700   5.976  -1.030   7.155 -0.6531  0.1659 -0.4935
   97SAPS   H5Y 9701   6.114  -0.908   7.166 -0.5377  0.7021 -0.7485
   97SAPS   C36 9702   6.171  -1.121   7.180 -0.1175  0.1365 -0.4131
   97SAPS   H6X 9703   6.270  -1.122   7.130  1.0637 -0.0408  1.7904
   97SAPS   H6Y 9704   6.118  -1.215   7.156 -0.7604  1.0334 -2.7700
   97SAPS   C37 9705   6.198  -1.106   7.329 -0.4912  0.0464  0.3800
   97SAPS   H7X 9706   6.249  -1.199   7.361 -3.2980 -1.6420  0.1872
   97SAPS   H7Y 9707   6.096  -1.105   7.373 -0.6784  0.5839 -0.0434
   97SAPS   C38 9708   6.277  -0.984   7.376 -0.5423  0.0365  0.3481
   97SAPS   H8X 9709   6.231  -0.883   7.368  1.9249  1.2253  0.1253
   97SAPS   H8Y 9710   6.368  -0.969   7.313 -1.3543  0.7492 -0.6916
   97SAPS   C39 9711   6.313  -0.998   7.524 -0.0872 -0.3271  0.0154
   97SAPS   H9X 9712   6.402  -0.937   7.550 -1.6292  1.2844  1.7389
   97SAPS   H9Y 9713   6.323  -1.105   7.553  3.6046 -0.0418  0.2833
   97SAPS  C310 9714   6.204  -0.927   7.615 -0.4282  0.0717 -0.5507
   97SAPS  H10X 9715   6.113  -0.989   7.605  0.0347 -0.3521 -2.6070
   97SAPS  H10Y 9716   6.184  -0.825   7.575 -0.0689 -0.4498 -2.1058
   97SAPS  C311 9717   6.255  -0.919   7.762  0.2932  0.7337 -0.1018
   97SAPS  H11X 9718   6.347  -0.857   7.767  0.8374  0.3457 -3.2206
   97SAPS  H11Y 9719   6.282  -1.021   7.797  0.6630  1.0994  0.7041
   97SAPS  C312 9720   6.160  -0.859   7.864  0.4510 -0.1730 -0.6386
   97SAPS  H12X 9721   6.075  -0.927   7.886  0.9960 -0.5611  0.3119
   97SAPS  H12Y 9722   6.113  -0.762   7.837 -0.1572  0.4607  2.3938
   97SAPS  C313 9723   6.229  -0.830   7.995 -0.4478  0.2031 -0.0292
   97SAPS  H13X 9724   6.318  -0.763   7.987 -0.8877  0.5590 -3.1426
   97SAPS  H13Y 9725   6.266  -0.924   8.042  0.8628  0.2870 -0.8270
   97SAPS  C314 9726   6.130  -0.773   8.095  0.2391 -0.2877 -0.4953
   97SAPS  H14X 9727   6.045  -0.840   8.121 -1.0332  1.2926 -0.3696
   97SAPS  H14Y 9728   6.079  -0.696   8.034 -1.5067 -0.9612  0.0313
   97SAPS  C315 9729   6.191  -0.704   8.217  0.3953 -0.6319  0.0784
   97SAPS  H15X 9730   6.248  -0.610   8.202 -2.9150  1.4685 -0.2604
   97SAPS  H15Y 9731   6.244  -0.782   8.275 -3.2414 -1.9366  1.9145
   97SAPS  C316 9732   6.069  -0.664   8.295  0.1895  0.0623 -0.6189
   97SAPS  H16X 9733   5.992  -0.736   8.332 -0.0882  0.8664  0.4190
   97SAPS  H16Y 9734   6.002  -0.604   8.230  0.0968 -0.5391 -1.0853
   97SAPS  C317 9735   6.109  -0.568   8.411  0.6446 -0.5473 -0.1900
   97SAPS  H17X 9736   6.156  -0.479   8.364 -1.2962  1.1669  0.9100
   97SAPS  H17Y 9737   6.186  -0.617   8.473  0.6389 -0.2836  0.0278
   97SAPS  C318 9738   5.993  -0.517   8.503 -0.2968 -0.4022 -0.0834
   97SAPS  H18X 9739   5.976  -0.596   8.578 -0.5358  1.3498  1.7910
   97SAPS  H18Y 9740   5.899  -0.495   8.447 -1.5180 -1.2298  1.5541
   97SAPS  H18Z 9741   6.025  -0.425   8.557  1.1179 -1.6137  1.1959
   98SAPS     N 9742   3.997   6.701   6.170  0.5593  0.1457  0.6395
   98SAPS   HN1 9743   3.989   6.656   6.264  2.0104  1.2380  1.3216
   98SAPS   HN2 9744   4.067   6.777   6.182  2.4594 -1.8237  2.8829
   98SAPS   HN3 9745   3.903   6.744   6.160 -0.4228 -1.5395  1.9612
   98SAPS   C12 9746   4.039   6.612   6.054  0.6407  0.3358 -0.2593
   98SAPS  H12A 9747   3.950   6.589   5.996  0.4798 -0.6618  0.3519
   98SAPS   C13 9748   4.143   6.658   5.949 -0.2835 -0.4825  1.0111
   98SAPS  O13A 9749   4.184   6.774   5.968  0.5548 -0.1711  0.0194
   98SAPS  O13B 9750   4.187   6.584   5.861  0.1486  0.0775 -0.6411
   98SAPS   C11 9751   4.096   6.473   6.122  0.2924 -0.2189  0.2336
   98SAPS  H11A 9752   4.182   6.495   6.189 -0.1501  2.8978 -0.0810
   98SAPS  H11B 9753   4.144   6.418   6.038 -0.0248 -0.5596  0.2719
   98SAPS     P 9754   4.005   6.249   6.189 -0.0688  0.2144  0.2008
   98SAPS   O13 9755   3.952   6.199   6.060 -0.2041  0.3882 -0.1558
   98SAPS   O14 9756   4.140   6.218   6.227 -0.1298  0.1286 -0.4073
   98SAPS   O12 9757   3.997   6.403   6.193 -0.5519 -0.7765 -0.3018
   98SAPS   O11 9758   3.910   6.207   6.314 -0.4345 -0.0323  0.3308
   98SAPS    C1 9759   3.810   6.288   6.370  0.3299 -0.0234  0.0302
   98SAPS    HA 9760   3.752   6.337   6.288  0.3337 -0.4949 -0.2601
   98SAPS    HB 9761   3.745   6.222   6.431 -1.9159  3.2756  1.5358
   98SAPS    C2 9762   3.878   6.374   6.466  0.0022 -0.8932 -0.4004
   98SAPS    HS 9763   3.950   6.436   6.409 -0.0841 -1.1923 -0.8346
   98SAPS   O21 9764   3.940   6.294   6.563  0.1110 -0.2214 -0.2652
   98SAPS   C21 9765   4.051   6.338   6.613  0.1608  0.5908  0.0777
   98SAPS   O22 9766   4.112   6.441   6.589 -0.0504  0.0720  0.0849
   98SAPS   C22 9767   4.088   6.241   6.723  1.3243 -0.5717 -0.0275
   98SAPS   H2R 9768   4.123   6.153   6.666  2.3138  0.2936 -0.7857
   98SAPS   H2S 9769   4.167   6.290   6.784  0.0520  3.6902 -1.4460
   98SAPS    C3 9770   3.780   6.473   6.536 -0.2514  0.5938  0.2024
   98SAPS    HX 9771   3.706   6.419   6.600 -0.5932  0.2308 -0.4894
   98SAPS    HY 9772   3.715   6.525   6.463  0.9173  1.0337 -0.5370
   98SAPS   O31 9773   3.842   6.579   6.616 -0.4039  0.5995 -0.4292
   98SAPS   C31 9774   3.911   6.664   6.546 -0.1115  0.2030  0.2957
   98SAPS   O32 9775   3.929   6.662   6.424  0.1198  0.1153  0.0254
   98SAPS   C32 9776   3.975   6.764   6.642  0.3134 -0.5806 -0.1478
   98SAPS   H2X 9777   4.062   6.801   6.584 -0.2995 -0.4815 -1.0128
   98SAPS   H2Y 9778   4.003   6.707   6.733  1.3206 -0.2334 -0.2208
   98SAPS   C23 9779   3.968   6.197   6.812 -0.2996 -0.0178  0.4417
   98SAPS   H3R 9780   4.006   6.131   6.893 -1.9368  0.0521  1.3185
   98SAPS   H3S 9781   3.905   6.129   6.752  2.5109 -2.5852  0.1536
   98SAPS   C24 9782   3.882   6.306   6.878  0.5273 -0.7577 -0.1221
   98SAPS   H4R 9783   3.846   6.376   6.800  0.9691 -0.8794 -0.4404
   98SAPS   H4S 9784   3.948   6.362   6.947 -0.2713 -2.7391  2.3964
   98SAPS   C25 9785   3.776   6.228   6.951  0.4682  0.3313 -0.1255
   98SAPS   H5R 9786   3.742   6.137   6.899  1.4330 -0.7933  1.1334
   98SAPS   C26 9787   3.736   6.250   7.082  0.3107  0.8362  0.8471
   98SAPS   H6R 9788   3.669   6.183   7.138 -0.6640  1.6267  0.6515
   98SAPS   C27 9789   3.794   6.358   7.169 -0.1950 -0.7870  0.9522
   98SAPS   H7R 9790   3.717   6.438   7.165  1.3033  0.6483 -1.0946
   98SAPS   H7S 9791   3.885   6.413   7.136 -0.9733 -1.7010 -3.2970
   98SAPS   C28 9792   3.805   6.304   7.303  0.0835  0.4429  0.5362
   98SAPS   H8R 9793   3.877   6.222   7.310 -0.1161  0.0550 -1.3325
   98SAPS   C29 9794   3.724   6.321   7.410 -0.0225 -0.1147 -0.9748
   98SAPS   H9R 9795   3.759   6.264   7.497 -0.4941 -2.1058 -2.0137
   98SAPS  C210 9796   3.600   6.408   7.422  0.4876 -0.0786  0.1006
   98SAPS  H10R 9797   3.519   6.333   7.430  1.6776 -1.4183  0.1135
   98SAPS  H10S 9798   3.584   6.459   7.324 -4.2668 -2.6555 -0.7545
   98SAPS  C211 9799   3.601   6.498   7.543  0.1554  0.5130  0.8857
   98SAPS  H11R 9800   3.700   6.520   7.586 -0.8647 -1.3025  4.5761
   98SAPS  C212 9801   3.490   6.546   7.606 -0.1811 -0.5295 -0.2630
   98SAPS  H12R 9802   3.513   6.598   7.701 -0.8243 -0.0168 -0.3810
   98SAPS  C213 9803   3.341   6.532   7.573 -0.5435  0.3257  0.2656
   98SAPS  H13R 9804   3.318   6.424   7.562  0.7109 -0.0187  0.7695
   98SAPS  H13S 9805   3.317   6.595   7.484  0.7918 -2.0908 -1.9431
   98SAPS  C214 9806   3.255   6.588   7.685  0.1151  0.6670 -0.6270
   98SAPS  H14R 9807   3.229   6.692   7.661  2.8694  1.5017 -0.3509
   98SAPS  C215 9808   3.201   6.533   7.796 -0.7611  0.3845 -0.0767
   98SAPS  H15R 9809   3.133   6.602   7.848 -1.1432 -0.6803  0.8760
   98SAPS  C216 9810   3.208   6.384   7.833  0.0311 -0.2581 -0.1432
   98SAPS  H16R 9811   3.285   6.327   7.776  1.4955  1.4445  0.0526
   98SAPS  H16S 9812   3.108   6.337   7.820  1.4746 -3.2131 -1.6768
   98SAPS  C217 9813   3.245   6.362   7.982 -0.5673 -0.0230  0.6281
   98SAPS  H17R 9814   3.328   6.433   7.998 -0.5037 -0.5024  2.7527
   98SAPS  H17S 9815   3.289   6.262   8.006 -1.6657 -1.2158 -1.9280
   98SAPS  C218 9816   3.128   6.394   8.077 -0.0937 -0.2078 -0.4445
   98SAPS  H18R 9817   3.063   6.305   8.086 -0.4972  0.1017 -0.2428
   98SAPS  H18S 9818   3.077   6.486   8.040 -1.9995  0.8290  4.0273
   98SAPS  C219 9819   3.182   6.428   8.224 -0.2022 -0.0335  0.5589
   98SAPS  H19R 9820   3.261   6.357   8.255  0.9679  1.4573  1.0790
   98SAPS  H19S 9821   3.087   6.427   8.282 -0.8385 -2.5956 -0.3911
   98SAPS  C220 9822   3.250   6.562   8.222 -0.3835  0.5613  0.9222
   98SAPS  H20R 9823   3.336   6.568   8.152 -1.0245 -2.9942 -0.3652
   98SAPS  H20S 9824   3.287   6.599   8.320  1.1863 -1.8610  1.3223
   98SAPS  H20T 9825   3.171   6.625   8.176  0.7290 -0.1937 -2.3005
   98SAPS   C33 9826   3.882   6.888   6.677  0.0896  0.7477  0.4286
   98SAPS   H3X 9827   3.800   6.860   6.745 -0.1994  0.7333  0.0779
   98SAPS   H3Y 9828   3.830   6.921   6.584 -0.7658 -0.1843  0.5618
   98SAPS   C34 9829   3.969   7.003   6.720  0.0412  0.5221 -0.3538
   98SAPS   H4X 9830   3.908   7.095   6.729 -0.7337 -0.0526  0.4043
   98SAPS   H4Y 9831   4.049   7.022   6.645 -0.2945  2.8618 -0.1891
   98SAPS   C35 9832   4.044   6.979   6.849  0.1930 -0.3561 -0.5351
   98SAPS   H5X 9833   4.099   7.073   6.871 -0.1536  0.0587 -1.3805
   98SAPS   H5Y 9834   4.133   6.916   6.828  0.5978  0.7527 -2.4777
   98SAPS   C36 9835   3.974   6.919   6.970  0.6722 -0.2151 -0.0518
   98SAPS   H6X 9836   3.949   6.817   6.934  0.4212 -0.6315  1.2329
   98SAPS   H6Y 9837   3.881   6.975   6.994 -0.0206 -0.5867 -1.7405
   98SAPS   C37 9838   4.058   6.904   7.096 -0.2161  0.8114  0.6487
   98SAPS   H7X 9839   4.080   7.005   7.138  1.2231  0.7943 -0.0141
   98SAPS   H7Y 9840   4.149   6.856   7.054 -1.4145  0.0346 -1.1848
   98SAPS   C38 9841   3.995   6.815   7.200 -0.3984 -0.0068  0.4585
   98SAPS   H8X 9842   3.995   6.716   7.151 -0.9968  0.3952 -0.3691
   98SAPS   H8Y 9843   3.896   6.856   7.227 -0.5893  0.4754 -0.9202
   98SAPS   C39 9844   4.080   6.787   7.321 -0.2070 -0.3072 -0.9943
   98SAPS   H9X 9845   4.092   6.892   7.356  1.0805 -0.8485  0.3010
   98SAPS   H9Y 9846   4.179   6.746   7.292  1.0157  2.1948 -0.6677
   98SAPS  C310 9847   4.011   6.715   7.440  0.2188  0.1850 -0.8164
   98SAPS  H10X 9848   4.019   6.604   7.439  0.0129  0.0932  1.3444
   98SAPS  H10Y 9849   3.902   6.740   7.442  0.4209  1.1347  1.0005
   98SAPS  C311 9850   4.063   6.769   7.577 -0.4081  1.0703 -0.5734
   98SAPS  H11X 9851   4.094   6.876   7.569 -1.1419  1.2026 -2.0850
   98SAPS  H11Y 9852   4.151   6.709   7.607 -1.7410 -0.4092  0.5558
   98SAPS  C312 9853   3.964   6.763   7.693  0.7680  0.6437 -0.8941
   98SAPS  H12X 9854   4.015   6.759   7.791 -1.1792 -2.5344  0.1225
   98SAPS  H12Y 9855   3.917   6.663   7.683  0.3125  0.6925  0.5764
   98SAPS  C313 9856   3.846   6.854   7.685 -0.1385 -0.3298  0.8182
   98SAPS  H13X 9857   3.793   6.829   7.591  1.2181  2.1773 -0.7327
   98SAPS  H13Y 9858   3.891   6.955   7.680 -0.7403 -0.0868  0.1760
   98SAPS  C314 9859   3.756   6.852   7.803  0.2292 -0.3226  0.0500
   98SAPS  H14X 9860   3.665   6.914   7.790  1.0009  0.6153 -1.0136
   98SAPS  H14Y 9861   3.805   6.892   7.895  0.2647 -0.2995  0.0209
   98SAPS  C315 9862   3.714   6.714   7.853 -0.0716 -0.0721  0.1282
   98SAPS  H15X 9863   3.801   6.652   7.882 -0.4866 -0.5554  0.3702
   98SAPS  H15Y 9864   3.689   6.658   7.760  1.1564  2.9163 -2.1429
   98SAPS  C316 9865   3.609   6.703   7.959 -0.1988 -0.2313 -0.5787
   98SAPS  H16X 9866   3.568   6.600   7.963  0.6296 -0.5620 -0.2050
   98SAPS  H16Y 9867   3.521   6.764   7.929 -0.5751 -1.0023 -1.0634
   98SAPS  C317 9868   3.656   6.736   8.101 -0.3257  0.2234  0.3180
   98SAPS  H17X 9869   3.581   6.734   8.183  0.2128  0.3894  0.8198
   98SAPS  H17Y 9870   3.686   6.842   8.084  0.8043 -0.1096  0.1129
   98SAPS  C318 9871   3.788   6.667   8.143  0.2985 -0.0937  0.8009
   98SAPS  H18X 9872   3.805   6.690   8.250  1.5073  0.3976  0.5238
   98SAPS  H18Y 9873   3.873   6.691   8.075 -1.5618 -2.3120 -2.5800
   98SAPS  H18Z 9874   3.757   6.560   8.152  0.9648 -0.3899 -0.2423
   99SAPS     N 9875   2.673   2.694   6.091  0.0005  0.0139  0.0504
   99SAPS   HN1 9876   2.572   2.690   6.112  0.2294 -0.5433  1.1323
   99SAPS   HN2 9877   2.721   2.609   6.127 -0.9064 -1.8348 -2.8296
   99SAPS   HN3 9878   2.707   2.776   6.146 -0.2196  0.0654  0.1095
   99SAPS   C12 9879   2.715   2.731   5.953  0.0493  0.4169 -0.7838
   99SAPS  H12A 9880   2.651   2.680   5.883  1.6359 -0.2546 -1.7958
   99SAPS   C13 9881   2.715   2.876   5.920 -0.0943  0.0063 -0.2708
   99SAPS  O13A 9882   2.699   2.964   6.013 -0.0843  0.2610  0.3272
   99SAPS  O13B 9883   2.751   2.914   5.806 -0.0342 -0.0857  0.0519
   99SAPS   C11 9884   2.864   2.682   5.931 -0.1043  0.1165 -0.3721
   99SAPS  H11A 9885   2.906   2.717   5.834  0.3558 -0.2611 -0.3152
   99SAPS  H11B 9886   2.865   2.572   5.920 -0.5311  0.2785 -2.3897
   99SAPS     P 9887   3.074   2.789   6.066  0.3527  0.1278 -0.5180
   99SAPS   O13 9888   3.153   2.793   5.942 -0.2684 -0.0171 -0.3411
   99SAPS   O14 9889   3.026   2.918   6.116 -0.6423 -0.0245  0.3497
   99SAPS   O12 9890   2.941   2.695   6.049 -0.0575  0.6160 -0.0947
   99SAPS   O11 9891   3.164   2.720   6.181  0.0614 -0.2768  0.7214
   99SAPS    C1 9892   3.170   2.576   6.179 -0.2335  0.1187 -0.1295
   99SAPS    HA 9893   3.075   2.532   6.143 -0.3805  1.4695 -1.4856
   99SAPS    HB 9894   3.246   2.542   6.105  1.9507  0.5685  1.7863
   99SAPS    C2 9895   3.212   2.516   6.320 -0.6382 -0.6680  0.0501
   99SAPS    HS 9896   3.217   2.406   6.301 -1.4251 -0.4944 -1.2958
   99SAPS   O21 9897   3.119   2.551   6.425  0.5210 -0.1512  0.3693
   99SAPS   C21 9898   3.013   2.469   6.438 -0.4654 -0.5570  0.3422
   99SAPS   O22 9899   3.002   2.363   6.375 -0.1675 -0.4079  0.5161
   99SAPS   C22 9900   2.915   2.522   6.541  0.3332  0.0296  0.0321
   99SAPS   H2R 9901   2.923   2.633   6.548  0.8121  0.2605 -2.7937
   99SAPS   H2S 9902   2.814   2.499   6.501  0.8086 -1.0572 -0.5673
   99SAPS    C3 9903   3.347   2.573   6.368 -1.0446 -0.5750 -0.4225
   99SAPS    HX 9904   3.351   2.684   6.375  2.3871 -0.5785 -0.8927
   99SAPS    HY 9905   3.418   2.553   6.285 -3.1423 -3.3885 -1.7278
   99SAPS   O31 9906   3.397   2.510   6.490 -0.1771 -0.1745 -0.1142
   99SAPS   C31 9907   3.466   2.396   6.482 -0.3993 -0.4785  0.3334
   99SAPS   O32 9908   3.488   2.339   6.375 -0.3860  0.2569 -0.1794
   99SAPS   C32 9909   3.504   2.348   6.621 -0.3191 -0.6989 -0.2110
   99SAPS   H2X 9910   3.507   2.438   6.687 -2.5489 -1.3193  0.8170
   99SAPS   H2Y 9911   3.609   2.312   6.615  1.1418  2.7735  1.1668
   99SAPS   C23 9912   2.930   2.453   6.685  0.0129 -0.5211  0.1510
   99SAPS   H3R 9913   2.969   2.349   6.685  0.0830 -0.5098 -1.0556
   99SAPS   H3S 9914   2.831   2.449   6.735 -0.4016  0.0406 -0.6140
   99SAPS   C24 9915   3.027   2.540   6.774 -0.3132 -0.0159 -0.7669
   99SAPS   H4R 9916   3.123   2.560   6.721 -0.4880 -1.6602 -1.7764
   99SAPS   H4S 9917   3.059   2.477   6.859 -0.1575 -1.7603 -2.0557
   99SAPS   C25 9918   2.974   2.676   6.820 -0.1688  0.3351 -0.7289
   99SAPS   H5R 9919   2.961   2.749   6.738  0.5231 -1.4839 -2.5384
   99SAPS   C26 9920   2.954   2.712   6.949 -0.0110  0.4143  0.3532
   99SAPS   H6R 9921   2.903   2.808   6.969  1.5025  0.9898  1.6215
   99SAPS   C27 9922   2.976   2.629   7.072  0.0690  0.2768  0.5710
   99SAPS   H7R 9923   3.081   2.595   7.084  0.3234  0.7245 -0.2763
   99SAPS   H7S 9924   2.927   2.533   7.048  1.1663  0.0334 -0.8352
   99SAPS   C28 9925   2.912   2.676   7.200 -0.0032 -0.5302  0.5319
   99SAPS   H8R 9926   2.809   2.713   7.189 -0.1402 -0.1906  2.5213
   99SAPS   C29 9927   2.963   2.665   7.327  0.1056 -0.8254  0.6158
   99SAPS   H9R 9928   2.909   2.712   7.410 -0.0158 -1.0092  0.6412
   99SAPS  C210 9929   3.099   2.605   7.345 -0.2306  0.1000  0.3851
   99SAPS  H10R 9930   3.170   2.607   7.259  2.0766 -0.3615  2.1719
   99SAPS  H10S 9931   3.092   2.497   7.369  1.3681  0.6085  3.7658
   99SAPS  C211 9932   3.180   2.677   7.455 -0.5233 -0.0091 -0.2327
   99SAPS  H11R 9933   3.262   2.742   7.420 -0.0197  0.0260  0.9417
   99SAPS  C212 9934   3.155   2.659   7.591  0.1266  0.6404  0.1791
   99SAPS  H12R 9935   3.201   2.727   7.663  0.4273  0.2966  0.3153
   99SAPS  C213 9936   3.046   2.567   7.648  0.4235  0.3562  0.1632
   99SAPS  H13R 9937   3.093   2.483   7.705  0.5292 -0.0165 -0.4626
   99SAPS  H13S 9938   2.985   2.503   7.581 -0.6612  0.4079  1.0694
   99SAPS  C214 9939   2.944   2.646   7.729 -0.2052 -0.5220 -0.3461
   99SAPS  H14R 9940   2.873   2.699   7.665 -0.0525 -0.5986 -0.5796
   99SAPS  C215 9941   2.933   2.657   7.859 -0.5173 -0.5322 -0.0763
   99SAPS  H15R 9942   2.852   2.710   7.912  0.5628 -0.0569  1.1356
   99SAPS  C216 9943   3.021   2.587   7.956  0.1459 -0.4721 -0.4945
   99SAPS  H16R 9944   3.104   2.531   7.909  1.8120  0.4569  1.1774
   99SAPS  H16S 9945   2.974   2.509   8.019  0.4877 -0.5439 -0.3236
   99SAPS  C217 9946   3.086   2.687   8.053  0.2665  0.0684  1.3746
   99SAPS  H17R 9947   3.021   2.751   8.116  0.7864  1.3083  0.6802
   99SAPS  H17S 9948   3.146   2.756   7.990 -1.1878 -1.1328 -1.5847
   99SAPS  C218 9949   3.177   2.625   8.158  0.4924 -0.5446  0.4808
   99SAPS  H18R 9950   3.258   2.558   8.124  1.6977  1.9973 -2.0448
   99SAPS  H18S 9951   3.114   2.562   8.225  0.4032  0.0850  0.9980
   99SAPS  C219 9952   3.257   2.733   8.242 -0.6671  0.5630 -0.0486
   99SAPS  H19R 9953   3.312   2.802   8.175 -0.4462  0.4593  0.0259
   99SAPS  H19S 9954   3.328   2.676   8.305 -2.2309  0.5295  1.7648
   99SAPS  C220 9955   3.157   2.804   8.331  0.2147 -0.0278  0.1811
   99SAPS  H20R 9956   3.098   2.730   8.388 -1.3845  0.4225 -0.8210
   99SAPS  H20S 9957   3.095   2.880   8.280  1.2207  0.0985 -0.8954
   99SAPS  H20T 9958   3.230   2.858   8.396  0.5787  1.2129 -1.2091
   99SAPS   C33 9959   3.415   2.237   6.674 -0.1118  0.0269 -0.5243
   99SAPS   H3X 9960   3.461   2.207   6.770  0.7556 -1.1407 -1.2762
   99SAPS   H3Y 9961   3.418   2.151   6.603  1.3367 -0.5157  0.1392
   99SAPS   C34 9962   3.270   2.289   6.696  0.5103  0.2883  0.2580
   99SAPS   H4X 9963   3.219   2.275   6.598 -0.3603 -1.5974  0.9305
   99SAPS   H4Y 9964   3.278   2.395   6.730  0.0183  0.8176 -1.2040
   99SAPS   C35 9965   3.196   2.211   6.813 -0.2711  0.6216  0.1864
   99SAPS   H5X 9966   3.184   2.105   6.781  1.5704  0.6603 -0.7886
   99SAPS   H5Y 9967   3.097   2.260   6.824 -0.8240 -0.3664 -0.2164
   99SAPS   C36 9968   3.254   2.221   6.954 -0.6375 -0.7973  0.2128
   99SAPS   H6X 9969   3.281   2.325   6.984  0.2271 -0.4466 -1.5953
   99SAPS   H6Y 9970   3.346   2.159   6.964  0.1372 -0.1689 -2.3271
   99SAPS   C37 9971   3.163   2.173   7.068 -0.0547  0.0619  0.0648
   99SAPS   H7X 9972   3.147   2.063   7.063  1.7453 -0.2617  0.7093
   99SAPS   H7Y 9973   3.067   2.228   7.056 -1.4506 -1.9540  1.2037
   99SAPS   C38 9974   3.212   2.208   7.214  0.5568 -0.2826  0.6472
   99SAPS   H8X 9975   3.215   2.319   7.216  0.0158 -0.2236 -0.7385
   99SAPS   H8Y 9976   3.314   2.169   7.234  0.7229 -0.3111 -0.1991
   99SAPS   C39 9977   3.103   2.173   7.326 -0.2040 -0.1765 -0.1318
   99SAPS   H9X 9978   3.082   2.064   7.335  0.1343 -0.0774  4.4741
   99SAPS   H9Y 9979   3.004   2.218   7.303 -1.4936 -2.4371  0.5815
   99SAPS  C310 9980   3.141   2.213   7.470  0.1990 -0.1823 -0.2950
   99SAPS  H10X 9981   3.142   2.324   7.476  1.2660 -0.1306 -1.1711
   99SAPS  H10Y 9982   3.237   2.172   7.508 -0.7983 -0.6717  1.8630
   99SAPS  C311 9983   3.037   2.147   7.566 -0.8277 -0.9010 -0.0215
   99SAPS  H11X 9984   3.062   2.039   7.557  1.0962 -0.3874 -2.1050
   99SAPS  H11Y 9985   2.933   2.157   7.528  0.2555  1.0203 -2.8848
   99SAPS  C312 9986   3.047   2.196   7.710 -0.4966 -0.0657 -0.5233
   99SAPS  H12X 9987   2.988   2.290   7.718 -1.2508 -0.4974 -0.8197
   99SAPS  H12Y 9988   3.154   2.221   7.726 -0.0162 -0.1518 -3.1423
   99SAPS  C313 9989   2.988   2.097   7.817 -0.4607 -0.1251 -0.6334
   99SAPS  H13X 9990   2.888   2.062   7.785 -0.7923 -0.1544  0.3777
   99SAPS  H13Y 9991   2.973   2.154   7.911  1.1305  0.3625 -0.6541
   99SAPS  C314 9992   3.090   1.991   7.858  0.0461 -0.9112 -0.2128
   99SAPS  H14X 9993   3.192   2.029   7.876 -0.0509 -1.5737  2.1013
   99SAPS  H14Y 9994   3.113   1.927   7.770 -1.9294  2.2624 -3.2858
   99SAPS  C315 9995   3.044   1.914   7.976 -0.5384 -0.1293 -0.2628
   99SAPS  H15X 9996   2.940   1.877   7.965 -0.4508 -0.6201  0.4875
   99SAPS  H15Y 9997   3.036   1.977   8.067 -3.4921  0.2142 -0.6730
   99SAPS  C316 9998   3.130   1.787   8.000 -0.7770  0.3889 -0.2680
   99SAPS  H16X 9999   3.175   1.744   7.908  0.5621 -0.1913  0.6284
   99SAPS  H16Y10000   3.072   1.700   8.039  1.1772 -1.2994 -0.9544
   99SAPS  C31710001   3.244   1.806   8.099  0.0359 -0.0207 -0.8816
   99SAPS  H17X10002   3.212   1.846   8.197 -0.4181  1.7257 -1.6963
   99SAPS  H17Y10003   3.320   1.873   8.053  0.9674  0.1443  0.8104
   99SAPS  C31810004   3.330   1.678   8.135  0.1602  0.7191 -0.4218
   99SAPS  H18X10005   3.382   1.646   8.042 -1.1113  1.8672 -1.5601
   99SAPS  H18Y10006   3.272   1.598   8.186 -0.2388  1.3548  0.1270
   99SAPS  H18Z10007   3.409   1.717   8.204  1.4505 -0.5338 -1.1241
  100SAPS     N10008   6.420   5.924   6.129 -0.2296  0.4430 -0.4745
  100SAPS   HN110009   6.471   5.962   6.211  1.2255 -2.1315 -0.0886
  100SAPS   HN210010   6.441   5.989   6.050  0.2597  1.4426  0.4598
  100SAPS   HN310011   6.319   5.931   6.149 -0.3021 -1.4385 -0.0453
  100SAPS   C1210012   6.455   5.772   6.121 -0.1414 -0.8167  0.1774
  100SAPS  H12A10013   6.420   5.725   6.212 -3.6974 -0.1290 -0.6900
  100SAPS   C1310014   6.368   5.695   6.020  0.7334  1.1352 -0.3847
  100SAPS  O13A10015   6.280   5.758   5.959 -0.0059 -0.2405  0.0185
  100SAPS  O13B10016   6.354   5.568   6.022  0.1246 -0.4281  0.3891
  100SAPS   C1110017   6.598   5.742   6.083 -0.0436  0.2577 -0.1897
  100SAPS  H11A10018   6.621   5.797   5.989  0.6302  1.8333  0.8532
  100SAPS  H11B10019   6.605   5.636   6.049  2.0300  0.3662 -0.2318
  100SAPS     P10020   6.832   5.737   6.184 -0.0171  0.1388  0.0394
  100SAPS   O1310021   6.840   5.594   6.138  0.4875  0.0359 -0.1448
  100SAPS   O1410022   6.901   5.839   6.097  0.9336  0.5185  0.0163
  100SAPS   O1210023   6.685   5.777   6.189 -0.3460  0.0294  0.2688
  100SAPS   O1110024   6.876   5.757   6.331  0.4584 -0.1695  0.1353
  100SAPS    C110025   6.839   5.649   6.419  0.3178  0.0924 -0.1466
  100SAPS    HA10026   6.863   5.550   6.376  0.0740 -1.5302  3.1596
  100SAPS    HB10027   6.902   5.658   6.510  1.3291 -1.9179 -0.5971
  100SAPS    C210028   6.690   5.643   6.468 -0.0658 -0.1868 -0.2279
  100SAPS    HS10029   6.631   5.619   6.376  1.1518 -0.4486 -0.9555
  100SAPS   O2110030   6.663   5.771   6.531  0.9651 -0.2618  0.1920
  100SAPS   C2110031   6.530   5.810   6.540 -0.5653  0.3144  0.2237
  100SAPS   O2210032   6.439   5.737   6.496 -0.8675  0.2883  0.5956
  100SAPS   C2210033   6.516   5.948   6.606  0.9458 -0.3538  0.9927
  100SAPS   H2R10034   6.598   6.005   6.559  0.7396 -0.8556 -0.0044
  100SAPS   H2S10035   6.413   5.985   6.585  0.4088 -1.8698  0.7867
  100SAPS    C310036   6.672   5.523   6.573  0.0239 -0.3679 -0.9473
  100SAPS    HX10037   6.717   5.437   6.519 -1.9796 -1.4952 -0.9273
  100SAPS    HY10038   6.564   5.508   6.596  0.2993 -1.3740 -0.2845
  100SAPS   O3110039   6.765   5.537   6.689  1.1536  0.3561  0.1559
  100SAPS   C3110040   6.709   5.592   6.795  0.1363 -0.8293  0.7435
  100SAPS   O3210041   6.592   5.634   6.810  0.3393 -0.8442 -0.4605
  100SAPS   C3210042   6.818   5.608   6.896  0.1954 -0.0377 -0.8682
  100SAPS   H2X10043   6.809   5.714   6.927 -0.1818 -0.2637 -0.1770
  100SAPS   H2Y10044   6.922   5.586   6.862 -0.0576  2.8876 -4.0154
  100SAPS   C2310045   6.547   5.947   6.760  0.5343 -0.1934  0.4518
  100SAPS   H3R10046   6.650   5.912   6.780  0.1394 -0.7200  1.7004
  100SAPS   H3S10047   6.480   5.869   6.802  2.3328 -2.3798 -0.5451
  100SAPS   C2410048   6.535   6.077   6.825 -0.3714  0.5266 -0.7267
  100SAPS   H4R10049   6.582   6.157   6.764 -1.6034  1.4479 -0.5009
  100SAPS   H4S10050   6.580   6.077   6.926 -2.1111  1.0343  0.0865
  100SAPS   C2510051   6.391   6.119   6.847 -0.0023  0.3761 -0.3351
  100SAPS   H5R10052   6.327   6.120   6.757 -0.8437  0.4904  0.2590
  100SAPS   C2610053   6.348   6.180   6.960  0.1313 -0.4036  0.2014
  100SAPS   H6R10054   6.241   6.206   6.959  0.0535 -0.7364  0.0269
  100SAPS   C2710055   6.426   6.228   7.082 -0.2035  0.1984 -0.0893
  100SAPS   H7R10056   6.391   6.333   7.095  1.2317  0.6127  0.6944
  100SAPS   H7S10057   6.535   6.227   7.059 -0.2056 -0.8491 -0.0713
  100SAPS   C2810058   6.405   6.146   7.212  0.3203 -0.1782  0.1613
  100SAPS   H8R10059   6.471   6.060   7.231 -0.0648 -0.3331  0.8323
  100SAPS   C2910060   6.308   6.162   7.299 -0.9201 -0.3819 -0.9130
  100SAPS   H9R10061   6.301   6.093   7.385 -1.2650  0.9874  0.1891
  100SAPS  C21010062   6.215   6.280   7.300  0.1662  0.0619  0.2734
  100SAPS  H10R10063   6.238   6.346   7.214  1.0646 -1.0787 -0.4011
  100SAPS  H10S10064   6.244   6.346   7.385 -0.1199 -0.2095  0.5860
  100SAPS  C21110065   6.070   6.251   7.295  0.1370  0.1186 -0.2173
  100SAPS  H11R10066   6.025   6.239   7.195 -2.0063 -3.0028  0.9706
  100SAPS  C21210067   5.982   6.261   7.399 -0.3094  0.2744  0.6092
  100SAPS  H12R10068   5.880   6.237   7.365  0.6070 -1.5490 -1.1036
  100SAPS  C21310069   6.018   6.302   7.544 -0.1012 -0.2920 -1.1197
  100SAPS  H13R10070   5.987   6.407   7.566  1.0965  0.1128 -1.2565
  100SAPS  H13S10071   6.129   6.315   7.551  0.0143 -1.8177  1.0225
  100SAPS  C21410072   5.977   6.210   7.655 -0.0336  0.8725  0.1827
  100SAPS  H14R10073   6.008   6.107   7.635 -2.6000  0.0969 -0.1409
  100SAPS  C21510074   5.920   6.252   7.771 -0.4197 -0.3691  0.2883
  100SAPS  H15R10075   5.905   6.175   7.847  1.7684 -0.7071  0.4489
  100SAPS  C21610076   5.904   6.399   7.811 -0.3533  1.1512 -0.0379
  100SAPS  H16R10077   5.808   6.430   7.764 -2.0632 -2.3200  0.7841
  100SAPS  H16S10078   5.980   6.468   7.768  0.4202 -0.6465 -1.7168
  100SAPS  C21710079   5.904   6.404   7.955  0.5253 -0.5927 -0.0104
  100SAPS  H17R10080   6.004   6.378   7.994  1.0831 -1.1953 -1.7511
  100SAPS  H17S10081   5.826   6.330   7.982 -0.2723  0.0303 -0.5524
  100SAPS  C21810082   5.861   6.543   8.013  0.2591 -1.1782  0.0214
  100SAPS  H18R10083   5.813   6.595   7.927  2.6172 -2.1428 -2.0238
  100SAPS  H18S10084   5.957   6.596   8.027 -1.2138  1.7122 -0.0365
  100SAPS  C21910085   5.771   6.553   8.134  0.1243  0.3268  0.4105
  100SAPS  H19R10086   5.665   6.543   8.105 -0.3749 -1.9719  2.6058
  100SAPS  H19S10087   5.780   6.657   8.171 -0.4753  0.1577  1.0471
  100SAPS  C22010088   5.801   6.458   8.244  0.1667 -0.0666 -0.2105
  100SAPS  H20R10089   5.900   6.474   8.292 -0.2685  0.6065  0.4869
  100SAPS  H20S10090   5.795   6.355   8.203 -1.5915 -0.0147 -0.1522
  100SAPS  H20T10091   5.731   6.472   8.330 -0.3923 -1.2011 -0.4584
  100SAPS   C3310092   6.778   5.528   7.020  0.3028 -0.4943 -0.4773
  100SAPS   H3X10093   6.762   5.419   7.006 -1.0097 -0.3841  0.0520
  100SAPS   H3Y10094   6.686   5.569   7.067  1.0256 -0.8605  1.3315
  100SAPS   C3410095   6.885   5.524   7.130  0.4902  0.2258 -0.3558
  100SAPS   H4X10096   6.888   5.625   7.177  3.0350 -0.0509  0.2311
  100SAPS   H4Y10097   6.984   5.489   7.092 -0.3246 -1.8730 -0.6611
  100SAPS   C3510098   6.830   5.440   7.250 -0.6991  0.2072  0.2874
  100SAPS   H5X10099   6.846   5.332   7.230  0.1995  0.5518 -0.9486
  100SAPS   H5Y10100   6.721   5.456   7.265 -0.4814  0.6663  1.5416
  100SAPS   C3610101   6.913   5.461   7.377 -0.0379 -0.2317  0.2222
  100SAPS   H6X10102   6.912   5.569   7.404  1.1935  0.3445 -1.7946
  100SAPS   H6Y10103   7.021   5.440   7.366  0.2165  1.2021 -0.3459
  100SAPS   C3710104   6.858   5.384   7.497 -0.9832 -0.1362  0.3129
  100SAPS   H7X10105   6.845   5.277   7.471  2.4006 -0.7323  0.6433
  100SAPS   H7Y10106   6.763   5.435   7.520 -0.2826  0.9004  0.9835
  100SAPS   C3810107   6.948   5.392   7.625  0.8379  0.3190  0.4222
  100SAPS   H8X10108   6.979   5.497   7.642  1.2928  0.3279 -0.3944
  100SAPS   H8Y10109   7.042   5.333   7.617  0.4264 -0.1410 -1.2393
  100SAPS   C3910110   6.875   5.347   7.753  0.3183  0.2487 -0.0361
  100SAPS   H9X10111   6.878   5.236   7.760 -1.0837  0.2583  1.4352
  100SAPS   H9Y10112   6.770   5.379   7.742 -0.1075 -1.7333 -2.9749
  100SAPS  C31010113   6.938   5.398   7.881  0.0714  0.2678 -0.3131
  100SAPS  H10X10114   6.969   5.504   7.869 -1.8385  0.8847 -0.2132
  100SAPS  H10Y10115   7.033   5.349   7.911  0.6312  0.1127 -2.2126
  100SAPS  C31110116   6.839   5.368   8.002 -0.2071  0.6144  0.0640
  100SAPS  H11X10117   6.828   5.257   8.010 -1.1581  0.7813  1.2157
  100SAPS  H11Y10118   6.739   5.402   7.969 -0.4729  0.6447  0.9048
  100SAPS  C31210119   6.886   5.457   8.117 -0.0384 -0.3614  0.1437
  100SAPS  H12X10120   6.892   5.559   8.074 -2.2274 -0.5112 -0.6523
  100SAPS  H12Y10121   6.985   5.426   8.157 -0.0660 -0.4049  0.1781
  100SAPS  C31310122   6.783   5.463   8.230 -0.2020  0.0477  0.3478
  100SAPS  H13X10123   6.770   5.361   8.272  2.2229 -0.5389 -0.1507
  100SAPS  H13Y10124   6.686   5.500   8.193  0.1434 -1.2163 -2.0280
  100SAPS  C31410125   6.827   5.552   8.351 -0.0012  0.5208 -0.0106
  100SAPS  H14X10126   6.851   5.656   8.320 -1.5771  0.7730 -0.4685
  100SAPS  H14Y10127   6.913   5.503   8.401  0.7201  1.9092  0.1430
  100SAPS  C31510128   6.719   5.562   8.456  0.0885  0.0898 -0.0835
  100SAPS  H15X10129   6.719   5.469   8.517 -1.5079 -0.5611 -1.0562
  100SAPS  H15Y10130   6.619   5.576   8.410 -1.2241 -0.0341  2.5358
  100SAPS  C31610131   6.735   5.688   8.554 -0.3678 -0.3999 -0.1747
  100SAPS  H16X10132   6.840   5.723   8.561 -0.5787  0.4011 -0.7590
  100SAPS  H16Y10133   6.694   5.653   8.651 -0.6165  1.8637  0.6009
  100SAPS  C31710134   6.658   5.816   8.520  0.2879  0.3737 -0.6672
  100SAPS  H17X10135   6.564   5.793   8.467  0.1626 -0.1633 -0.2271
  100SAPS  H17Y10136   6.720   5.866   8.442 -0.7947  0.6951 -1.3404
  100SAPS  C31810137   6.644   5.910   8.635 -0.4853  0.7074 -0.3590
  100SAPS  H18X10138   6.562   5.873   8.701 -1.6343  0.2831 -1.9689
  100SAPS  H18Y10139   6.623   6.011   8.594 -1.5688  0.2271 -1.0315
  100SAPS  H18Z10140   6.740   5.922   8.690 -0.6235  1.0489 -0.1873
  101OSM      N10141   5.157   5.785  10.701  0.3426 -0.5523 -0.0253
  101OSM    C1510142   5.270   5.790  10.600 -0.5355 -0.1819  0.0460
  101OSM   H15A10143   5.255   5.724  10.515  0.1271 -2.0395  1.2903
  101OSM   H15B10144   5.366   5.771  10.647 -1.3838  1.0506  2.3998
  101OSM   H15C10145   5.267   5.888  10.555 -2.5783 -0.0850  0.3194
  101OSM    C1410146   5.140   5.638  10.741 -0.9367  0.5441 -0.0380
  101OSM   H14A10147   5.112   5.572  10.660  0.3478  2.4793 -2.1891
  101OSM   H14B10148   5.060   5.628  10.813 -2.4577  1.5402 -1.4934
  101OSM   H14C10149   5.234   5.594  10.771 -1.8427 -0.0234  2.0999
  101OSM    C1310150   5.203   5.860  10.827 -0.3427 -0.3275 -0.3421
  101OSM   H13A10151   5.127   5.854  10.903  0.6757  0.0403  0.7281
  101OSM   H13B10152   5.215   5.966  10.814  2.0806 -0.4933 -0.0020
  101OSM   H13C10153   5.294   5.815  10.864  0.3096  0.8493 -0.4891
  101OSM    C1210154   5.027   5.843  10.649 -0.3058  0.2179 -0.4202
  101OSM   H12A10155   5.043   5.920  10.575 -1.3895  1.8136  0.9293
  101OSM   H12B10156   4.986   5.897  10.732 -0.3318 -0.5215  0.0578
  101OSM    C1110157   4.916   5.747  10.589 -0.5998 -0.6787 -0.4182
  101OSM   H11A10158   4.963   5.687  10.508  1.0819  0.4007 -0.2779
  101OSM   H11B10159   4.832   5.806  10.546 -0.5510 -0.6750 -0.5092
  101OSM      P10160   4.727   5.679  10.760  0.4333  0.3770 -0.1843
  101OSM    O1310161   4.734   5.621  10.896 -0.0284  0.4058 -0.0745
  101OSM    O1410162   4.679   5.817  10.752 -0.3414 -0.1063 -0.0350
  101OSM    O1110163   4.651   5.584  10.665  0.2169  0.1316 -0.6371
  101OSM    O1210164   4.868   5.660  10.694 -0.7308  0.1784 -0.3671
  101OSM    C1S10165   4.579   5.612  10.545  0.3975  0.4474 -0.8582
  101OSM    H1S10166   4.584   5.718  10.512  0.7648 -0.3757 -3.7097
  101OSM    H1T10167   4.471   5.588  10.545 -0.5049  3.8690 -1.6600
  101OSM     NF10168   4.567   5.602  10.297  0.7642  0.3214 -0.0577
  101OSM    HNF10169   4.508   5.542  10.243  1.7774 -0.6752 -0.0895
  101OSM    C2S10170   4.634   5.544  10.414  0.1478  0.0905  0.1622
  101OSM    H2S10171   4.742   5.568  10.421 -0.4513  3.1800  0.2856
  101OSM    C3S10172   4.619   5.388  10.437  0.2251  0.0974  0.7241
  101OSM    H3S10173   4.511   5.363  10.432  0.0037  1.0147  0.7616
  101OSM     O310174   4.668   5.339  10.559 -0.5285  0.2794 -0.6227
  101OSM    HO310175   4.706   5.417  10.600 -1.2385  0.6819 -0.7039
  101OSM    C4S10176   4.689   5.313  10.325  0.1019 -0.1294 -0.4596
  101OSM    H4S10177   4.609   5.258  10.272 -0.7283 -2.1527  2.5635
  101OSM    C5S10178   4.817   5.284  10.304 -0.7555 -0.1925  0.4434
  101OSM    H5S10179   4.892   5.318  10.377 -2.1627 -0.0361  1.8732
  101OSM    C6S10180   4.872   5.196  10.188  0.7919  0.9977  0.1079
  101OSM    H6S10181   4.908   5.098  10.227 -0.9086  1.0380  1.9160
  101OSM    H6T10182   4.954   5.250  10.136  0.3504  1.8155  0.2509
  101OSM    C7S10183   4.773   5.177  10.068  0.6322  0.6327  0.4619
  101OSM    H7S10184   4.753   5.272  10.015 -0.8443  0.2686  0.3319
  101OSM    H7T10185   4.676   5.136  10.103  0.9550 -1.1888 -0.6203
  101OSM    C8S10186   4.836   5.085   9.967 -0.0540 -0.4015  0.2711
  101OSM    H8S10187   4.836   4.981  10.006 -0.9158 -0.3822  0.3370
  101OSM    H8T10188   4.934   5.127   9.937 -0.8671  1.4328  0.0368
  101OSM    C9S10189   4.756   5.077   9.833  0.2576 -0.3928 -0.6351
  101OSM    H9S10190   4.649   5.057   9.856  0.5817 -1.1177  0.3044
  101OSM    H9T10191   4.797   4.989   9.779  0.6305  0.1212 -1.2007
  101OSM   C10S10192   4.783   5.191   9.738  0.5036  0.2292 -0.2225
  101OSM   H10S10193   4.893   5.197   9.734  0.4724  1.1747  0.0579
  101OSM   H10T10194   4.741   5.284   9.782 -0.0778 -0.7540  1.3793
  101OSM   C11S10195   4.719   5.181   9.596 -0.0773 -0.0599 -0.3947
  101OSM   H11S10196   4.608   5.172   9.591 -0.0288 -0.1908 -1.9091
  101OSM   H11T10197   4.757   5.095   9.537 -0.8074 -0.5136 -0.2214
  101OSM   C12S10198   4.758   5.300   9.508 -0.2777  0.0808 -0.3410
  101OSM   H12S10199   4.815   5.381   9.559 -0.9645  0.9598 -0.9400
  101OSM   H12T10200   4.661   5.337   9.469 -0.2781  0.6125  0.1440
  101OSM   C13S10201   4.848   5.261   9.388 -0.1835 -0.1058  0.3851
  101OSM   H13S10202   4.916   5.177   9.416  2.1360  1.5719  0.1308
  101OSM   H13T10203   4.907   5.352   9.363 -0.9941 -0.0518 -1.5053
  101OSM   C14S10204   4.775   5.252   9.261 -0.1715  0.7692  0.4065
  101OSM   H14S10205   4.695   5.326   9.238 -1.7718 -1.0609 -0.3031
  101OSM   H14T10206   4.726   5.152   9.273  2.1552 -0.3910  0.8652
  101OSM   C15S10207   4.871   5.237   9.132  0.3650  0.2628 -0.6134
  101OSM   H15S10208   4.944   5.155   9.150  1.1681  0.8086 -1.3044
  101OSM   H15T10209   4.932   5.329   9.116 -1.8576  1.9414  0.0597
  101OSM   C16S10210   4.790   5.201   9.004  0.5183 -0.4062  0.0815
  101OSM   H16S10211   4.750   5.098   9.018  0.3586 -0.5475 -1.2672
  101OSM   H16T10212   4.863   5.193   8.921  0.5143 -2.0653  0.1998
  101OSM   C17S10213   4.688   5.299   8.970  0.3422  0.0202 -0.5447
  101OSM   H17S10214   4.734   5.400   8.963 -0.1546  0.1753 -1.7575
  101OSM   H17T10215   4.608   5.307   9.046  1.3595 -1.4071  0.7353
  101OSM   C18S10216   4.629   5.280   8.829 -0.8473 -0.1763  0.4414
  101OSM   H18S10217   4.547   5.354   8.818 -0.4147  0.1668 -0.5698
  101OSM   H18T10218   4.609   5.172   8.815  2.5666 -0.9888  0.8748
  101OSM   H18U10219   4.709   5.306   8.757  0.5141 -1.1796  1.5434
  101OSM    C1F10220   4.615   5.709  10.239  0.4103  0.1687  0.0385
  101OSM     OF10221   4.681   5.786  10.310 -0.3373  0.1552  0.2659
  101OSM    C2F10222   4.592   5.725  10.092  0.2501  0.1648  0.1212
  101OSM    H2F10223   4.484   5.736  10.068  0.2555 -0.6583 -0.3252
  101OSM    H2G10224   4.620   5.626  10.049 -0.4217  0.1818 -0.3703
  101OSM    C3F10225   4.655   5.850  10.038 -0.0373  0.0655 -0.2848
  101OSM    H3F10226   4.765   5.843  10.047 -0.2224 -1.4280  1.2415
  101OSM    H3G10227   4.620   5.938  10.098 -0.8887  0.7311 -1.6918
  101OSM    C4F10228   4.603   5.882   9.891  0.3264  0.1046 -0.0942
  101OSM    H4F10229   4.659   5.969   9.852 -0.6317  1.0128  0.4976
  101OSM    H4G10230   4.494   5.903   9.892  0.2849 -0.0509 -0.7227
  101OSM    C5F10231   4.617   5.762   9.798 -0.2496  0.6192  0.2161
  101OSM    H5F10232   4.559   5.673   9.830 -1.9505  1.9324  0.9250
  101OSM    H5G10233   4.721   5.723   9.790 -0.4343 -0.1783  1.4677
  101OSM    C6F10234   4.583   5.791   9.651  0.3672 -0.2157  0.3175
  101OSM    H6F10235   4.661   5.858   9.609  0.1073  0.2600  0.5841
  101OSM    H6G10236   4.486   5.846   9.645 -0.1810 -1.1795  0.1785
  101OSM    C7F10237   4.577   5.666   9.564 -0.0913 -0.1327 -0.4469
  101OSM    H7F10238   4.519   5.580   9.604 -0.7224  1.0343  1.2671
  101OSM    H7G10239   4.680   5.624   9.560 -1.4702 -3.8833 -0.3875
  101OSM    C8F10240   4.518   5.702   9.425 -0.8029 -0.1947  0.1891
  101OSM    H8F10241   4.575   5.787   9.383 -3.1982  1.7983  0.7625
  101OSM    H8G10242   4.422   5.755   9.441 -0.6507  0.0500  0.3144
  101OSM    C9F10243   4.504   5.590   9.326 -0.7879  0.2381 -0.1545
  101OSM    H9F10244   4.504   5.493   9.378  0.4441  0.5764  0.5306
  101OSM   C10F10245   4.495   5.593   9.192 -0.7935  0.8742  0.0876
  101OSM   H10F10246   4.475   5.495   9.146 -0.1315  0.1439  1.2997
  101OSM   C11F10247   4.500   5.707   9.099 -1.2638  1.0453 -0.3395
  101OSM   H11F10248   4.563   5.692   9.009 -0.6431  4.7263 -0.6545
  101OSM   H11G10249   4.547   5.794   9.148  1.7552 -1.6902  2.0700
  101OSM   C12F10250   4.362   5.749   9.054 -0.4328 -0.5177  0.2859
  101OSM   H12F10251   4.311   5.788   9.145  1.2104  0.2571  0.9153
  101OSM   H12G10252   4.316   5.660   9.006  0.1326 -0.8108  0.2878
  101OSM   C13F10253   4.363   5.885   8.968 -0.1545 -0.0715 -0.0751
  101OSM   H13F10254   4.427   5.873   8.878 -0.8608  0.0849 -0.6071
  101OSM   H13G10255   4.409   5.964   9.030 -0.5556  0.4210 -0.3968
  101OSM   C14F10256   4.226   5.931   8.927  0.7410  0.2808  0.9093
  101OSM   H14F10257   4.156   5.913   9.012  0.7241 -2.3872  0.4253
  101OSM   H14G10258   4.200   5.867   8.841  1.2539  2.5797 -1.0526
  101OSM   C15F10259   4.228   6.081   8.882 -0.0829 -0.0779 -0.4165
  101OSM   H15F10260   4.275   6.131   8.969  1.0005 -2.3951  0.4306
  101OSM   H15G10261   4.124   6.115   8.862  0.6663  0.4491 -4.2316
  101OSM   C16F10262   4.309   6.101   8.760  0.3379 -0.2284 -0.3505
  101OSM   H16F10263   4.292   6.033   8.673 -1.6866 -0.3382  0.0688
  101OSM   H16G10264   4.417   6.091   8.785  0.0085 -2.3345  0.4792
  101OSM   C17F10265   4.289   6.240   8.699  0.1337 -1.1536 -0.1707
  101OSM   H17F10266   4.319   6.317   8.773  0.9052 -0.2174 -1.4039
  101OSM   H17G10267   4.184   6.264   8.673  0.9728  1.2065 -1.7528
  101OSM   C18F10268   4.373   6.252   8.575 -0.2831 -0.1159 -0.4411
  101OSM   H18F10269   4.470   6.197   8.585  0.1608  0.6061 -0.7138
  101OSM   H18G10270   4.391   6.359   8.555  2.0371 -0.6962 -1.8684
  101OSM   H18H10271   4.310   6.215   8.492 -2.2692 -0.3231  1.0846
  102OSM      N10272   3.524   5.134  11.008  0.4559  0.1794  0.8373
  102OSM    C1510273   3.598   5.245  11.070 -0.3259  0.4142  0.0094
  102OSM   H15A10274   3.561   5.276  11.166  1.1431 -0.3115  0.8413
  102OSM   H15B10275   3.610   5.327  11.000 -0.7944 -1.1577 -2.0223
  102OSM   H15C10276   3.697   5.212  11.100 -1.0462 -1.0916  0.8558
  102OSM    C1410277   3.523   5.026  11.111  0.6270  0.3334  0.5368
  102OSM   H14A10278   3.493   4.930  11.074  1.8560 -0.3445  1.2310
  102OSM   H14B10279   3.446   5.059  11.180  1.0576  4.0679 -0.5498
  102OSM   H14C10280   3.618   5.019  11.162  1.1497  0.4452 -0.4110
  102OSM    C1310281   3.390   5.183  10.977 -0.0078 -0.2181 -0.7103
  102OSM   H13A10282   3.341   5.222  11.064  0.4493  3.1624 -1.8145
  102OSM   H13B10283   3.332   5.101  10.937  0.0832 -1.5362  1.6874
  102OSM   H13C10284   3.396   5.263  10.905 -2.2299  1.1089  0.5041
  102OSM    C1210285   3.597   5.071  10.886 -0.0330  0.2857  0.7834
  102OSM   H12A10286   3.538   4.982  10.873  0.1290  0.2482  0.3161
  102OSM   H12B10287   3.695   5.037  10.917 -0.0585  0.9877  1.6993
  102OSM    C1110288   3.604   5.169  10.762  0.0317 -0.1830  0.5483
  102OSM   H11A10289   3.501   5.196  10.730  0.9651  0.7251 -1.9727
  102OSM   H11B10290   3.644   5.115  10.673 -1.5021 -0.2127 -0.1634
  102OSM      P10291   3.828   5.310  10.755 -0.0290 -0.0674 -0.1199
  102OSM    O1310292   3.873   5.452  10.771 -0.2949 -0.3356 -0.3635
  102OSM    O1410293   3.915   5.204  10.819  0.3578 -0.6467 -0.0279
  102OSM    O1110294   3.831   5.274  10.598  0.3597  0.2146  0.0803
  102OSM    O1210295   3.670   5.297  10.791 -0.1081  1.3328 -0.0275
  102OSM    C1S10296   3.737   5.357  10.521 -0.2154 -0.8166  0.0884
  102OSM    H1S10297   3.757   5.465  10.542  1.0280 -1.1371  0.6178
  102OSM    H1T10298   3.631   5.327  10.537 -0.0472 -1.1254  0.6588
  102OSM     NF10299   3.670   5.450  10.310 -0.4848 -0.5344 -0.2603
  102OSM    HNF10300   3.585   5.428  10.263 -0.1763  1.3876 -1.8769
  102OSM    C2S10301   3.760   5.349  10.361  0.0991 -0.5646  0.0542
  102OSM    H2S10302   3.864   5.379  10.335  0.3432 -1.2525  0.2089
  102OSM    C3S10303   3.727   5.203  10.317  1.0776 -0.5828  1.3861
  102OSM    H3S10304   3.621   5.187  10.345  0.2078  3.1180  0.7186
  102OSM     O310305   3.806   5.108  10.375  0.3081  0.0649  0.2354
  102OSM    HO310306   3.844   5.147  10.454 -0.1573 -0.2820  0.6424
  102OSM    C4S10307   3.719   5.189  10.161  0.3092 -0.0487  0.3683
  102OSM    H4S10308   3.615   5.189  10.125  0.0234 -0.4023  1.1544
  102OSM    C5S10309   3.814   5.191  10.063  0.3331  0.0349  0.1414
  102OSM    H5S10310   3.919   5.204  10.093  0.0682 -1.5526  1.9980
  102OSM    C6S10311   3.793   5.184   9.914 -0.4508  0.2321  0.1144
  102OSM    H6S10312   3.852   5.100   9.871  0.6767  1.6943 -1.3525
  102OSM    H6T10313   3.836   5.276   9.868  0.6163 -0.1800  0.2575
  102OSM    C7S10314   3.652   5.177   9.851 -0.0033  0.4922 -0.3431
  102OSM    H7S10315   3.595   5.271   9.866  0.1078  0.8234 -1.8294
  102OSM    H7T10316   3.601   5.086   9.889 -1.6032  1.5113  0.0537
  102OSM    C8S10317   3.647   5.184   9.697  0.0003  0.5742 -0.4153
  102OSM    H8S10318   3.717   5.121   9.638  2.5075  2.7406  0.0459
  102OSM    H8T10319   3.676   5.286   9.661 -0.1487  0.7118 -0.1489
  102OSM    C9S10320   3.513   5.134   9.649  0.6795  0.0980 -0.3208
  102OSM    H9S10321   3.430   5.192   9.695 -0.3105 -1.3266 -0.2378
  102OSM    H9T10322   3.498   5.028   9.675 -0.2824 -1.0734 -4.7755
  102OSM   C10S10323   3.487   5.152   9.493 -0.4183 -0.4293  0.9519
  102OSM   H10S10324   3.521   5.251   9.455 -0.5134  0.0222  2.0001
  102OSM   H10T10325   3.376   5.147   9.485 -0.5138  0.1428  1.7558
  102OSM   C11S10326   3.551   5.037   9.403 -0.0908  0.3672 -0.2341
  102OSM   H11S10327   3.511   4.935   9.422 -0.2119  0.2810 -0.9168
  102OSM   H11T10328   3.660   5.045   9.422  0.3560 -0.6562 -2.0705
  102OSM   C12S10329   3.533   5.054   9.245  0.0262 -0.4510 -0.4949
  102OSM   H12S10330   3.599   5.138   9.215  0.0602 -0.4060 -0.2947
  102OSM   H12T10331   3.428   5.088   9.234 -0.7975 -1.1973  3.4576
  102OSM   C13S10332   3.567   4.920   9.172 -0.2245  0.8828  0.1642
  102OSM   H13S10333   3.512   4.834   9.216 -0.7676  0.0516 -2.0110
  102OSM   H13T10334   3.678   4.908   9.172 -0.3433 -0.8441 -1.8325
  102OSM   C14S10335   3.534   4.908   9.020  0.1303  0.6128  0.6224
  102OSM   H14S10336   3.591   4.982   8.960  1.0306 -0.0022  0.6973
  102OSM   H14T10337   3.425   4.933   9.017 -0.5613 -1.1111  4.7637
  102OSM   C15S10338   3.548   4.763   8.957 -0.2559 -0.2701 -0.0489
  102OSM   H15S10339   3.499   4.708   9.041  2.1382  2.1097  3.2029
  102OSM   H15T10340   3.653   4.729   8.944 -0.5934 -0.8658 -1.3773
  102OSM   C16S10341   3.477   4.742   8.819 -0.2522  1.1287  0.3410
  102OSM   H16S10342   3.518   4.811   8.742 -1.8437 -1.2704 -2.8962
  102OSM   H16T10343   3.367   4.754   8.834 -0.2524  0.2532  1.1612
  102OSM   C17S10344   3.498   4.597   8.759 -0.0963 -0.7750 -0.2555
  102OSM   H17S10345   3.437   4.586   8.667 -2.0185  2.1404  0.5340
  102OSM   H17T10346   3.456   4.530   8.838  0.0991 -0.1870  0.3635
  102OSM   C18S10347   3.641   4.560   8.738 -0.3050 -0.4256  0.4849
  102OSM   H18S10348   3.649   4.475   8.667 -1.4914 -2.9998  3.1848
  102OSM   H18T10349   3.681   4.533   8.838 -1.7158 -1.7186  0.7344
  102OSM   H18U10350   3.701   4.641   8.692 -1.0543 -1.1792 -2.0043
  102OSM    C1F10351   3.703   5.578  10.304 -0.5580 -0.2647 -0.3012
  102OSM     OF10352   3.812   5.615  10.357  0.6612  0.2486  0.3451
  102OSM    C2F10353   3.603   5.666  10.228  0.0146  0.0236  0.0234
  102OSM    H2F10354   3.627   5.771  10.256 -0.3026  0.0488  0.2057
  102OSM    H2G10355   3.506   5.633  10.269 -0.4081  0.8873 -0.2629
  102OSM    C3F10356   3.615   5.651  10.076  0.1965  0.2831  0.1785
  102OSM    H3F10357   3.535   5.712  10.030  0.9714  0.6726 -0.6702
  102OSM    H3G10358   3.605   5.543  10.055 -2.5956  0.7420 -1.3291
  102OSM    C4F10359   3.743   5.699  10.000  0.4580  0.2558 -0.1288
  102OSM    H4F10360   3.837   5.639  10.002 -0.1585 -1.0327 -3.3760
  102OSM    H4G10361   3.756   5.803  10.036 -0.6884  0.4117 -0.1150
  102OSM    C5F10362   3.714   5.714   9.852  0.7270  0.1470 -0.2613
  102OSM    H5F10363   3.814   5.738   9.811  1.5925 -2.5194  0.0894
  102OSM    H5G10364   3.640   5.796   9.841  0.5014 -0.0710 -0.3970
  102OSM    C6F10365   3.679   5.581   9.785 -0.2995 -0.0116  0.4482
  102OSM    H6F10366   3.578   5.539   9.803 -0.3985 -0.6734 -1.3672
  102OSM    H6G10367   3.752   5.504   9.818  1.7279  1.3603 -0.5875
  102OSM    C7F10368   3.697   5.592   9.634  0.3702  0.1520  0.8177
  102OSM    H7F10369   3.697   5.488   9.592  1.2268  1.2421 -2.1686
  102OSM    H7G10370   3.795   5.643   9.625  1.3765 -1.7540  0.2494
  102OSM    C8F10371   3.577   5.665   9.575 -0.4553 -0.0509 -0.4094
  102OSM    H8F10372   3.572   5.747   9.650 -0.8136 -2.2055  2.0607
  102OSM    H8G10373   3.482   5.608   9.582 -0.2060 -0.4347 -0.0640
  102OSM    C9F10374   3.605   5.721   9.437 -0.5739  0.0615 -1.7150
  102OSM    H9F10375   3.639   5.825   9.451  2.3485 -0.9732 -0.1516
  102OSM   C10F10376   3.583   5.662   9.323  0.0907  0.0103  0.0048
  102OSM   H10F10377   3.592   5.725   9.233  0.3423 -0.5939 -0.4010
  102OSM   C11F10378   3.539   5.515   9.305  0.4016  0.1542 -0.2091
  102OSM   H11F10379   3.509   5.465   9.399  3.2916  0.8234  1.1665
  102OSM   H11G10380   3.620   5.450   9.265  0.3266  0.6155 -1.1446
  102OSM   C12F10381   3.425   5.514   9.199 -0.7103 -0.5248  0.7192
  102OSM   H12F10382   3.436   5.588   9.117 -0.1750 -1.3037  0.0706
  102OSM   H12G10383   3.326   5.529   9.247 -1.8314 -1.0166 -1.3175
  102OSM   C13F10384   3.408   5.376   9.139  0.1465  0.0501 -0.3158
  102OSM   H13F10385   3.385   5.298   9.214 -2.0429  1.2490  0.3226
  102OSM   H13G10386   3.505   5.341   9.095 -0.0549 -0.3247 -0.4710
  102OSM   C14F10387   3.292   5.369   9.041  0.1777  0.5695  0.3314
  102OSM   H14F10388   3.298   5.457   8.974  0.3644  2.4400  2.6975
  102OSM   H14G10389   3.205   5.360   9.109 -1.1564 -0.8611 -1.4534
  102OSM   C15F10390   3.309   5.230   8.966  0.8139  0.4279 -0.3079
  102OSM   H15F10391   3.316   5.138   9.027 -2.3025 -0.2256 -0.7889
  102OSM   H15G10392   3.403   5.249   8.909  2.6150  1.7627  2.8398
  102OSM   C16F10393   3.191   5.200   8.874  0.0422  0.5081 -0.2845
  102OSM   H16F10394   3.236   5.145   8.788 -1.1799 -1.8309  0.4767
  102OSM   H16G10395   3.159   5.300   8.839  1.6887  0.5717 -1.7805
  102OSM   C17F10396   3.072   5.124   8.933 -0.3593  0.6967  0.1355
  102OSM   H17F10397   2.994   5.122   8.854 -0.1683  2.3509 -0.1432
  102OSM   H17G10398   3.021   5.171   9.020  0.2092 -0.5810  1.1912
  102OSM   C18F10399   3.111   4.979   8.968 -0.2500 -0.5414  0.1837
  102OSM   H18F10400   3.167   4.984   9.064  1.7693 -2.4644 -0.8193
  102OSM   H18G10401   3.184   4.938   8.895  2.6055  1.4268  1.7223
  102OSM   H18H10402   3.021   4.918   8.991  0.3059 -1.3737  0.1903
  103OSM      N10403   5.398   2.086  11.261 -0.0625 -0.0097  0.3148
  103OSM    C1510404   5.455   2.160  11.380  0.1552  0.1630 -0.3661
  103OSM   H15A10405   5.385   2.170  11.462  1.8917  1.2646  1.0366
  103OSM   H15B10406   5.501   2.255  11.358  2.1857 -0.3303  1.4594
  103OSM   H15C10407   5.535   2.101  11.421 -1.2317 -1.4311  0.1707
  103OSM    C1410408   5.341   1.963  11.307  0.0880  0.3151 -0.4283
  103OSM   H14A10409   5.411   1.909  11.368 -0.0710  1.2674  0.6168
  103OSM   H14B10410   5.307   1.893  11.232 -1.9449 -1.7375  2.2226
  103OSM   H14C10411   5.254   1.989  11.366 -1.4334  0.8431 -2.7335
  103OSM    C1310412   5.302   2.180  11.193 -0.0570  0.6274  0.1917
  103OSM   H13A10413   5.214   2.178  11.256  0.1381 -2.6679  0.5731
  103OSM   H13B10414   5.277   2.158  11.091  1.3552 -0.7347  0.0985
  103OSM   H13C10415   5.334   2.283  11.203 -0.6884  0.9692 -1.1347
  103OSM    C1210416   5.512   2.073  11.163  0.2701  0.5852  0.0814
  103OSM   H12A10417   5.599   2.026  11.207  0.8974  0.5544 -1.1681
  103OSM   H12B10418   5.551   2.168  11.131  0.5160  0.2583 -0.5983
  103OSM    C1110419   5.481   2.001  11.031 -0.2643 -0.2735 -0.1197
  103OSM   H11A10420   5.424   1.908  11.050  0.9840 -0.6799  1.8967
  103OSM   H11B10421   5.579   1.978  10.984  1.0752 -0.1035  2.4104
  103OSM      P10422   5.449   2.201  10.864  0.1075  0.2371  0.7031
  103OSM    O1310423   5.326   2.266  10.804 -0.0660 -0.1269 -0.1996
  103OSM    O1410424   5.531   2.288  10.949 -0.3808 -0.0271  0.7308
  103OSM    O1110425   5.537   2.146  10.747  0.0480 -0.1570 -0.4894
  103OSM    O1210426   5.403   2.076  10.941 -0.1358 -0.0569 -0.0966
  103OSM    C1S10427   5.513   2.024  10.681 -0.2273  0.4280  0.3617
  103OSM    H1S10428   5.451   1.957  10.745 -0.7099  1.4510  0.9926
  103OSM    H1T10429   5.610   1.973  10.664  1.2292  1.0410  5.2632
  103OSM     NF10430   5.396   1.891  10.503  0.0849 -0.3222 -0.3947
  103OSM    HNF10431   5.459   1.855  10.435 -0.2818 -1.2717 -0.2462
  103OSM    C2S10432   5.430   2.025  10.549  0.3028 -0.1589  0.3236
  103OSM    H2S10433   5.336   2.071  10.585  0.0849 -1.9783  2.2966
  103OSM    C3S10434   5.519   2.105  10.444  0.3952  0.5925  0.4580
  103OSM    H3S10435   5.611   2.049  10.417  0.4644  1.5061 -1.3067
  103OSM     O310436   5.562   2.231  10.487  0.5004 -0.0109 -0.4005
  103OSM    HO310437   5.541   2.233  10.581  3.5129  1.7135  0.3530
  103OSM    C4S10438   5.431   2.131  10.322 -0.0382 -0.0132 -0.4733
  103OSM    H4S10439   5.325   2.147  10.344 -0.3858 -1.2558 -1.1610
  103OSM    C5S10440   5.466   2.101  10.192 -0.0837  0.4174 -0.4162
  103OSM    H5S10441   5.556   2.040  10.176  0.3167  1.1489 -1.0317
  103OSM    C6S10442   5.378   2.114  10.073  0.0390  0.6328 -0.3516
  103OSM    H6S10443   5.408   2.194  10.002  1.4976  0.0292 -0.4546
  103OSM    H6T10444   5.276   2.147  10.100 -0.5991 -1.3265 -0.1945
  103OSM    C7S10445   5.375   1.975   9.999  0.3674 -0.0676  0.8654
  103OSM    H7S10446   5.348   1.896  10.072 -2.4835  0.5391  0.5958
  103OSM    H7T10447   5.471   1.948   9.951  0.8108 -0.3536  1.8798
  103OSM    C8S10448   5.268   1.966   9.890 -0.4173  0.7887  0.0393
  103OSM    H8S10449   5.264   2.061   9.833 -1.2762  0.8418  0.1819
  103OSM    H8T10450   5.167   1.959   9.934 -0.7326 -1.4231 -0.9114
  103OSM    C9S10451   5.282   1.851   9.787  0.3623  0.5322 -0.0775
  103OSM    H9S10452   5.248   1.757   9.835  0.3775  0.0640 -0.9599
  103OSM    H9T10453   5.389   1.848   9.757 -0.0770  0.0372 -1.7223
  103OSM   C10S10454   5.210   1.883   9.649 -0.3713  0.7409  0.0992
  103OSM   H10S10455   5.265   1.969   9.605  0.6786 -0.4548 -0.9772
  103OSM   H10T10456   5.104   1.904   9.675 -0.3374 -0.4960  1.3552
  103OSM   C11S10457   5.198   1.761   9.560 -0.6717 -0.3071 -0.2442
  103OSM   H11S10458   5.159   1.669   9.607 -1.1408 -0.2231 -0.4543
  103OSM   H11T10459   5.304   1.741   9.533 -1.4258 -1.3921 -2.7195
  103OSM   C12S10460   5.097   1.787   9.443  0.0128 -0.4805  0.3467
  103OSM   H12S10461   4.996   1.815   9.479  0.4592  0.3654  0.9684
  103OSM   H12T10462   5.085   1.695   9.382  0.6121 -0.6989  0.5470
  103OSM   C13S10463   5.146   1.892   9.336 -0.4133  0.1622  0.3251
  103OSM   H13S10464   5.200   1.970   9.393 -0.4668 -0.5918  1.4321
  103OSM   H13T10465   5.061   1.927   9.273  0.0896 -0.3429 -0.6634
  103OSM   C14S10466   5.249   1.837   9.237 -0.0275  0.2217  0.9744
  103OSM   H14S10467   5.315   1.770   9.296 -0.7009  0.2679  1.8067
  103OSM   H14T10468   5.318   1.913   9.196  0.8606 -1.5273 -0.9178
  103OSM   C15S10469   5.196   1.759   9.116 -0.2983  0.3399  0.2550
  103OSM   H15S10470   5.118   1.812   9.057 -0.8292 -1.1397 -0.4326
  103OSM   H15T10471   5.141   1.676   9.166  0.0190  1.7347  3.1236
  103OSM   C16S10472   5.309   1.709   9.027  0.8630  0.4520  0.2731
  103OSM   H16S10473   5.358   1.623   9.077  0.0389  0.6452  1.4270
  103OSM   H16T10474   5.375   1.799   9.022  1.9992 -0.3273  0.7306
  103OSM   C17S10475   5.258   1.663   8.892 -0.5269 -0.4144 -0.4710
  103OSM   H17S10476   5.334   1.656   8.812 -0.7363  0.4018 -0.7551
  103OSM   H17T10477   5.183   1.740   8.863  0.6431  0.8507 -0.2781
  103OSM   C18S10478   5.190   1.520   8.894 -0.0602  1.4096 -0.2362
  103OSM   H18S10479   5.101   1.527   8.960 -0.6369  1.6230 -1.0098
  103OSM   H18T10480   5.260   1.445   8.935 -0.4846  2.3036  2.3436
  103OSM   H18U10481   5.171   1.510   8.785  0.2799 -0.8659 -0.1392
  103OSM    C1F10482   5.305   1.810  10.562 -0.3403  0.2106 -0.5555
  103OSM     OF10483   5.234   1.858  10.651  0.3448  0.3392 -0.5169
  103OSM    C2F10484   5.301   1.669  10.520 -0.3351 -0.3495  0.5528
  103OSM    H2F10485   5.262   1.615  10.608 -0.5133  0.1154  0.7636
  103OSM    H2G10486   5.400   1.622  10.501 -0.5230 -0.6264  0.2549
  103OSM    C3F10487   5.205   1.648  10.401  0.6356 -0.2626 -1.0835
  103OSM    H3F10488   5.103   1.683  10.429  0.2687 -1.2480 -1.1477
  103OSM    H3G10489   5.198   1.539  10.382 -0.3719 -0.7176  1.4692
  103OSM    C4F10490   5.243   1.708  10.276 -0.2330 -0.3694  0.5819
  103OSM    H4F10491   5.339   1.662  10.244 -0.8223 -0.9457 -0.4188
  103OSM    H4G10492   5.269   1.815  10.290  3.0023 -0.7116 -1.7982
  103OSM    C5F10493   5.143   1.702  10.152  0.2082  0.4210 -1.0212
  103OSM    H5F10494   5.193   1.735  10.058 -1.1589 -3.0477 -3.1648
  103OSM    H5G10495   5.074   1.785  10.177  1.7099  1.4707 -0.2037
  103OSM    C6F10496   5.074   1.568  10.121  0.4021  0.1823  0.0575
  103OSM    H6F10497   5.035   1.530  10.218  1.2075  0.5349  0.5322
  103OSM    H6G10498   5.144   1.494  10.077 -0.3290 -0.4801 -0.0078
  103OSM    C7F10499   4.969   1.585  10.008  0.4539  0.2980  0.2539
  103OSM    H7F10500   5.008   1.625   9.913 -1.1623 -0.2330 -0.6611
  103OSM    H7G10501   4.909   1.671  10.044 -0.1473 -0.0524  0.1082
  103OSM    C8F10502   4.882   1.463   9.986  0.4979  0.7233 -0.3003
  103OSM    H8F10503   4.852   1.435  10.090 -1.2120  0.4422 -0.8351
  103OSM    H8G10504   4.949   1.383   9.949 -0.2932  0.3736 -0.9894
  103OSM    C9F10505   4.766   1.490   9.899  0.3974 -0.0632  0.7427
  103OSM    H9F10506   4.709   1.581   9.925  1.6598  0.1018  3.2118
  103OSM   C10F10507   4.717   1.416   9.796 -0.5148 -0.1692 -0.1316
  103OSM   H10F10508   4.639   1.460   9.732  1.1338 -0.2505 -2.3065
  103OSM   C11F10509   4.778   1.287   9.766  0.1025  0.0133 -0.3607
  103OSM   H11F10510   4.782   1.217   9.852  0.5161 -0.1343 -0.4958
  103OSM   H11G10511   4.880   1.300   9.724 -0.6115  1.0051 -1.8803
  103OSM   C12F10512   4.688   1.214   9.669 -0.6799  0.5996  0.1379
  103OSM   H12F10513   4.582   1.218   9.701 -0.6432  2.6566  0.1182
  103OSM   H12G10514   4.713   1.106   9.670  0.1179  0.7768  0.8374
  103OSM   C13F10515   4.697   1.263   9.526 -0.0472 -0.4999  0.3184
  103OSM   H13F10516   4.657   1.366   9.519 -1.0225 -0.9398 -0.8632
  103OSM   H13G10517   4.803   1.263   9.492  0.3805 -1.3658  1.5825
  103OSM   C14F10518   4.619   1.165   9.442  0.1874 -0.2113  0.0955
  103OSM   H14F10519   4.510   1.175   9.459  0.3770 -0.3985  1.5273
  103OSM   H14G10520   4.652   1.061   9.463  0.1124 -0.3878 -0.6269
  103OSM   C15F10521   4.639   1.181   9.283  0.0566  0.1054  0.0820
  103OSM   H15F10522   4.629   1.286   9.247 -0.4201  0.2642  0.6544
  103OSM   H15G10523   4.553   1.123   9.241 -0.3172  1.4498 -1.1111
  103OSM   C16F10524   4.774   1.130   9.220 -0.2869  0.6447 -0.5856
  103OSM   H16F10525   4.774   1.020   9.238 -2.1535  0.7101 -0.0125
  103OSM   H16G10526   4.852   1.195   9.265 -0.4813  1.0571 -0.8365
  103OSM   C17F10527   4.788   1.141   9.070  0.0288  0.2431 -0.0913
  103OSM   H17F10528   4.813   1.244   9.035  0.6960  0.3050  0.5367
  103OSM   H17G10529   4.683   1.123   9.040 -0.2298  3.1638 -1.3193
  103OSM   C18F10530   4.868   1.033   9.003 -0.3120 -0.1299  0.2853
  103OSM   H18F10531   4.887   1.056   8.896 -0.4624 -0.0145  0.2825
  103OSM   H18G10532   4.813   0.937   9.010  0.4427 -0.5156  1.1078
  103OSM   H18H10533   4.966   1.024   9.055  1.0497 -1.2379 -2.2773
  104OSM      N10534   3.420   0.412  10.603 -0.5544  0.5666 -0.2580
  104OSM    C1510535   3.460   0.382  10.461  0.0188  0.1375 -0.7117
  104OSM   H15A10536   3.565   0.358  10.453  0.4601  0.7768  2.0970
  104OSM   H15B10537   3.437   0.472  10.407  1.4400  1.2244  0.4105
  104OSM   H15C10538   3.399   0.302  10.421 -0.0007  0.1338 -0.6741
  104OSM    C1410539   3.433   0.287  10.680 -0.5214  0.1367 -0.1719
  104OSM   H14A10540   3.514   0.225  10.647 -0.6894 -0.8913  1.2729
  104OSM   H14B10541   3.351   0.218  10.664  0.3791 -0.9728 -0.1136
  104OSM   H14C10542   3.435   0.307  10.786 -0.7437 -0.9286  0.0392
  104OSM    C1310543   3.518   0.516  10.647 -0.2301 -0.0035 -0.7476
  104OSM   H13A10544   3.490   0.616  10.619  1.2791  1.3012  2.0215
  104OSM   H13B10545   3.611   0.492  10.598 -0.4688 -1.4405 -0.5397
  104OSM   H13C10546   3.531   0.517  10.754  1.0977 -0.7344 -0.8849
  104OSM    C1210547   3.275   0.461  10.621  1.2542  0.0096  0.3061
  104OSM   H12A10548   3.257   0.477  10.727 -1.9449  2.5460 -0.4911
  104OSM   H12B10549   3.198   0.388  10.603 -0.9766  1.1072  4.1570
  104OSM    C1110550   3.225   0.583  10.540 -0.2513  0.3233  0.8049
  104OSM   H11A10551   3.115   0.591  10.547 -0.3887 -0.6961  0.0651
  104OSM   H11B10552   3.250   0.556  10.435  1.2861  0.1693  1.1798
  104OSM      P10553   3.245   0.775  10.707 -0.3012  0.0381  0.1263
  104OSM    O1310554   3.178   0.685  10.801 -0.1123 -0.0532  0.2009
  104OSM    O1410555   3.354   0.852  10.763  0.0473 -0.1668 -0.0997
  104OSM    O1110556   3.132   0.870  10.656 -0.1085  0.7527 -0.1202
  104OSM    O1210557   3.299   0.703  10.581 -0.3452  0.5377  0.2449
  104OSM    C1S10558   3.162   0.995  10.590 -0.2176 -0.3769  0.3867
  104OSM    H1S10559   3.246   1.048  10.641 -0.7623 -0.0641  0.9772
  104OSM    H1T10560   3.078   1.066  10.605  1.1255  1.2488  0.5280
  104OSM     NF10561   3.219   1.131  10.391  0.2996 -0.1044 -0.2917
  104OSM    HNF10562   3.140   1.180  10.355  0.3220  0.5095  0.4794
  104OSM    C2S10563   3.190   0.996  10.436  1.0119  0.3933  0.4895
  104OSM    H2S10564   3.277   0.929  10.420 -0.9228 -2.1757 -0.0017
  104OSM    C3S10565   3.072   0.928  10.359  1.1244 -0.1378  0.7097
  104OSM    H3S10566   2.978   0.987  10.370  1.9064  0.9355  2.0002
  104OSM     O310567   3.050   0.793  10.401 -0.2365  0.2217  0.1079
  104OSM    HO310568   3.094   0.785  10.486 -1.1510 -2.2960  0.4128
  104OSM    C4S10569   3.098   0.929  10.212 -0.0495 -0.2735  0.7176
  104OSM    H4S10570   3.056   1.022  10.172 -0.9352 -0.6195  0.8196
  104OSM    C5S10571   3.163   0.840  10.138  0.4059  0.0561  0.2314
  104OSM    H5S10572   3.220   0.757  10.182  0.3981 -0.2974 -0.4119
  104OSM    C6S10573   3.172   0.851   9.988 -0.1021  0.7417 -0.0436
  104OSM    H6S10574   3.112   0.771   9.939  2.3395 -0.9072 -0.5584
  104OSM    H6T10575   3.276   0.824   9.956 -0.2323  0.1668 -0.0005
  104OSM    C7S10576   3.152   0.993   9.920 -0.1521  0.5940  0.3143
  104OSM    H7S10577   3.228   1.067   9.953 -0.2761  0.8004  0.1378
  104OSM    H7T10578   3.050   1.030   9.943 -0.0857  0.3994  0.9458
  104OSM    C8S10579   3.150   0.993   9.765  0.8966  0.2965 -0.2028
  104OSM    H8S10580   3.082   0.913   9.730  1.2811 -0.2770  0.3436
  104OSM    H8T10581   3.251   0.967   9.728  0.9439  1.0256 -0.6149
  104OSM    C9S10582   3.099   1.124   9.705 -0.0348  0.6048  0.8027
  104OSM    H9S10583   3.170   1.210   9.710 -1.1323  1.6680 -0.9027
  104OSM    H9T10584   3.003   1.146   9.757 -0.3911 -1.8023  1.2591
  104OSM   C10S10585   3.064   1.088   9.554  0.5404 -0.1181  0.0787
  104OSM   H10S10586   2.986   1.010   9.560  0.6642 -0.2252  0.3176
  104OSM   H10T10587   3.166   1.058   9.523  1.3808  1.7528  0.8287
  104OSM   C11S10588   3.002   1.207   9.475  0.0050 -0.2126 -0.3721
  104OSM   H11S10589   3.067   1.297   9.478  0.5003 -0.5058 -1.6016
  104OSM   H11T10590   2.912   1.216   9.539  0.7849 -0.4374  0.7851
  104OSM   C12S10591   2.968   1.176   9.331  0.3180 -0.1797  0.4522
  104OSM   H12S10592   2.893   1.095   9.326 -0.6943  0.7252  0.7121
  104OSM   H12T10593   3.058   1.139   9.277  1.1452  1.5261  0.5814
  104OSM   C13S10594   2.909   1.296   9.258 -0.2729  0.0801 -0.2763
  104OSM   H13S10595   2.957   1.392   9.288 -3.1729  1.0980  1.5154
  104OSM   H13T10596   2.801   1.308   9.282 -0.5181 -0.4710 -1.0848
  104OSM   C14S10597   2.914   1.278   9.108 -0.7722  0.7121 -0.0180
  104OSM   H14S10598   2.874   1.180   9.073 -2.2751  1.9695 -2.0363
  104OSM   H14T10599   3.021   1.271   9.077  0.6365  0.5112  4.2571
  104OSM   C15S10600   2.862   1.405   9.036 -0.9896  0.1304 -0.2857
  104OSM   H15S10601   2.914   1.492   9.082  0.6064 -0.8821 -0.1148
  104OSM   H15T10602   2.752   1.414   9.052 -0.9227 -0.1519  0.3526
  104OSM   C16S10603   2.876   1.412   8.890  0.3423 -0.6876 -0.8443
  104OSM   H16S10604   2.802   1.339   8.851 -0.3662 -0.9571  0.9356
  104OSM   H16T10605   2.979   1.380   8.865  1.1970  1.9098 -1.0152
  104OSM   C17S10606   2.866   1.555   8.826  0.0754  0.1303 -0.2314
  104OSM   H17S10607   2.950   1.616   8.865 -0.3679  0.2636  0.5185
  104OSM   H17T10608   2.770   1.601   8.857 -0.1980 -0.3679 -0.3200
  104OSM   C18S10609   2.865   1.557   8.676 -0.0688  0.1785  0.5173
  104OSM   H18S10610   2.820   1.651   8.637 -1.7408 -1.0519 -0.6909
  104OSM   H18T10611   2.806   1.472   8.636  2.3994 -0.3685 -2.3732
  104OSM   H18U10612   2.971   1.546   8.642 -0.5934 -1.2252 -0.7893
  104OSM    C1F10613   3.321   1.200  10.433  0.4914  0.0258  0.5551
  104OSM     OF10614   3.415   1.139  10.483 -0.2994  0.3477  0.6328
  104OSM    C2F10615   3.313   1.349  10.439  0.5971  0.1198 -0.2317
  104OSM    H2F10616   3.346   1.388  10.538 -1.2954  3.1334 -0.6879
  104OSM    H2G10617   3.206   1.376  10.441  0.3166 -0.7692  3.0548
  104OSM    C3F10618   3.403   1.408  10.330  0.1249  0.1017  0.4189
  104OSM    H3F10619   3.506   1.369  10.343  0.5293  1.0496  0.1945
  104OSM    H3G10620   3.406   1.519  10.342  1.3031  0.1518 -0.2454
  104OSM    C4F10621   3.344   1.385  10.188 -0.4233  0.2836  0.5974
  104OSM    H4F10622   3.242   1.429  10.187 -1.0557 -0.9733 -2.2973
  104OSM    H4G10623   3.331   1.277  10.168 -1.5833  0.8068 -1.8124
  104OSM    C5F10624   3.428   1.447  10.076 -0.3610 -0.0169 -0.2137
  104OSM    H5F10625   3.528   1.400  10.075 -1.3184 -2.2573 -2.3073
  104OSM    H5G10626   3.432   1.557  10.094 -2.9340 -0.1758  2.0053
  104OSM    C6F10627   3.347   1.440   9.946 -0.5709 -0.5235  0.1358
  104OSM    H6F10628   3.252   1.497   9.961 -0.3049 -0.0508  0.0551
  104OSM    H6G10629   3.324   1.333   9.928 -1.5667 -0.0846 -1.4698
  104OSM    C7F10630   3.419   1.511   9.832 -0.4311  0.0686 -0.6446
  104OSM    H7F10631   3.527   1.483   9.839 -0.1882  0.5925 -1.9902
  104OSM    H7G10632   3.417   1.622   9.841 -1.0552 -0.0921  2.5940
  104OSM    C8F10633   3.370   1.463   9.689 -0.5959  0.4423 -0.3333
  104OSM    H8F10634   3.329   1.365   9.721  0.8989  0.3827  1.6002
  104OSM    H8G10635   3.455   1.438   9.622  0.5062  1.6889  0.5239
  104OSM    C9F10636   3.250   1.540   9.626 -0.5113  0.4367 -1.0528
  104OSM    H9F10637   3.169   1.553   9.699  1.6357  1.1990  1.3798
  104OSM   C10F10638   3.241   1.600   9.503 -0.1417 -0.0257  0.4618
  104OSM   H10F10639   3.143   1.649   9.485  0.3840  0.4371 -1.4254
  104OSM   C11F10640   3.341   1.595   9.393  0.1544  0.3709  0.8622
  104OSM   H11F10641   3.400   1.502   9.383 -0.4460  0.0027  0.6917
  104OSM   H11G10642   3.413   1.678   9.405  0.2068  0.6615 -1.0388
  104OSM   C12F10643   3.265   1.602   9.262  0.7956 -0.4386  0.2900
  104OSM   H12F10644   3.181   1.674   9.266 -0.3330 -1.7453  1.7434
  104OSM   H12G10645   3.216   1.502   9.257 -0.8952  0.3636  0.1094
  104OSM   C13F10646   3.358   1.622   9.146  0.1961  0.2970 -0.3474
  104OSM   H13F10647   3.446   1.555   9.140 -0.2000 -0.1827 -0.8424
  104OSM   H13G10648   3.401   1.724   9.149  1.4430 -0.2377  1.0928
  104OSM   C14F10649   3.281   1.616   9.002 -0.7240  0.0542  1.1203
  104OSM   H14F10650   3.237   1.712   8.966 -0.5961 -1.1226 -2.5181
  104OSM   H14G10651   3.199   1.542   9.017  0.2758 -1.1369  0.7848
  104OSM   C15F10652   3.384   1.569   8.892 -0.3850 -1.0210  0.0893
  104OSM   H15F10653   3.412   1.466   8.923 -1.4572 -1.1504  0.7096
  104OSM   H15G10654   3.472   1.636   8.886 -0.2402 -1.0514  1.5206
  104OSM   C16F10655   3.327   1.582   8.750 -0.4355  0.1480  0.2963
  104OSM   H16F10656   3.231   1.527   8.754 -1.3020  1.6929  2.5934
  104OSM   H16G10657   3.380   1.525   8.670 -0.8406  1.3179 -0.8340
  104OSM   C17F10658   3.290   1.725   8.703 -0.2740  0.5496  0.5050
  104OSM   H17F10659   3.353   1.800   8.755  0.4892  0.7058 -0.6004
  104OSM   H17G10660   3.185   1.735   8.738  0.7523  0.2318  4.0300
  104OSM   C18F10661   3.305   1.750   8.553 -0.2021  0.3334  0.0800
  104OSM   H18F10662   3.239   1.676   8.503 -1.7415  1.1417  0.8653
  104OSM   H18G10663   3.410   1.749   8.517  0.8133  2.3506  2.6807
  104OSM   H18H10664   3.265   1.851   8.533  2.4720  1.1704 -1.6080
  105OSM      N10665   2.778   0.778  10.795  0.5917  0.2600  0.8247
  105OSM    C1510666   2.653   0.814  10.866  0.6858  0.5922  0.0949
  105OSM   H15A10667   2.567   0.798  10.803  1.8970 -0.3020 -1.3873
  105OSM   H15B10668   2.652   0.918  10.894  0.8801  0.7612 -0.5156
  105OSM   H15C10669   2.635   0.750  10.951 -2.7087 -0.5470 -1.3152
  105OSM    C1410670   2.811   0.883  10.689 -0.5494 -0.1276  0.0288
  105OSM   H14A10671   2.896   0.854  10.629  0.3536  1.4926  0.4724
  105OSM   H14B10672   2.844   0.972  10.740 -0.3747 -1.1126  1.7413
  105OSM   H14C10673   2.726   0.913  10.630  0.1438 -0.0823 -0.9731
  105OSM    C1310674   2.897   0.780  10.889 -0.8952 -0.1902 -0.0145
  105OSM   H13A10675   2.911   0.878  10.931 -1.6560  1.0157 -2.3788
  105OSM   H13B10676   2.980   0.743  10.832 -3.1544 -3.4136 -1.5229
  105OSM   H13C10677   2.884   0.716  10.976  1.4713  1.8802  2.0140
  105OSM    C1210678   2.757   0.640  10.731 -0.2309  0.7647 -0.3071
  105OSM   H12A10679   2.724   0.561  10.797 -0.9152  0.9866 -0.3721
  105OSM   H12B10680   2.845   0.600  10.683 -0.6695 -0.3299 -0.2277
  105OSM    C1110681   2.646   0.626  10.623 -0.4596 -0.3634  0.1241
  105OSM   H11A10682   2.667   0.531  10.569  1.3240  0.4785 -0.7299
  105OSM   H11B10683   2.656   0.702  10.542 -0.7791 -0.2651  0.1745
  105OSM      P10684   2.472   0.497  10.769 -0.2716 -0.0101 -0.2090
  105OSM    O1310685   2.569   0.464  10.877 -0.1200  0.1654 -0.8527
  105OSM    O1410686   2.334   0.515  10.811 -0.4182  0.0412 -0.1303
  105OSM    O1110687   2.480   0.391  10.653 -0.3471  0.0947 -0.0558
  105OSM    O1210688   2.512   0.632  10.682  0.2378  0.5642 -0.6435
  105OSM    C1S10689   2.397   0.416  10.541 -0.2597 -0.5215 -0.0285
  105OSM    H1S10690   2.366   0.521  10.521 -0.2478  0.0091  2.4153
  105OSM    H1T10691   2.302   0.359  10.544 -0.0085 -1.1444 -2.1974
  105OSM     NF10692   2.382   0.415  10.297  0.2024 -0.2268 -0.2650
  105OSM    HNF10693   2.312   0.346  10.280  1.9752 -2.6433  1.4820
  105OSM    C2S10694   2.466   0.383  10.413 -0.0512 -0.3080  0.9549
  105OSM    H2S10695   2.553   0.452  10.406 -0.7537  0.4480 -2.1624
  105OSM    C3S10696   2.516   0.242  10.410 -0.4031  0.6274 -0.4271
  105OSM    H3S10697   2.428   0.175  10.398  1.0396 -1.1296 -1.8983
  105OSM     O310698   2.587   0.197  10.523 -0.3845 -0.2632 -0.0922
  105OSM    HO310699   2.573   0.264  10.591 -0.7449  0.2029 -0.6133
  105OSM    C4S10700   2.609   0.226  10.288  0.3913  0.3742 -0.3128
  105OSM    H4S10701   2.558   0.193  10.196 -0.8124  2.6397 -0.5304
  105OSM    C5S10702   2.741   0.262  10.276  0.1937 -0.6457 -0.0128
  105OSM    H5S10703   2.802   0.293  10.361 -0.9876  0.8179  0.3416
  105OSM    C6S10704   2.829   0.254  10.153  0.6762  0.8812 -0.2572
  105OSM    H6S10705   2.912   0.181  10.166  0.6434  0.4338 -2.2226
  105OSM    H6T10706   2.878   0.353  10.136 -2.3092  2.5284  0.0456
  105OSM    C7S10707   2.760   0.206  10.026 -0.0650  0.1618  0.7488
  105OSM    H7S10708   2.674   0.269   9.994  1.6401  1.9043 -0.6788
  105OSM    H7T10709   2.724   0.102  10.035  2.4219 -0.6918  1.5217
  105OSM    C8S10710   2.860   0.204   9.907  0.1214 -0.3348  0.2025
  105OSM    H8S10711   2.924   0.114   9.919  1.4430  0.5897  0.4356
  105OSM    H8T10712   2.919   0.299   9.914 -1.0623  0.4072  0.3876
  105OSM    C9S10713   2.769   0.217   9.781 -0.5271  0.0940  0.1667
  105OSM    H9S10714   2.724   0.319   9.785 -0.7219 -0.0221  2.0141
  105OSM    H9T10715   2.676   0.157   9.791 -1.5743  1.7612  0.9167
  105OSM   C10S10716   2.846   0.193   9.649 -0.5768 -0.2064 -0.3718
  105OSM   H10S10717   2.881   0.088   9.655  1.2500  0.4079  0.4904
  105OSM   H10T10718   2.935   0.259   9.643 -0.9830  0.2939 -0.9595
  105OSM   C11S10719   2.761   0.209   9.523  0.5161  0.0816 -0.9347
  105OSM   H11S10720   2.831   0.184   9.440  0.8374 -3.2765  0.1778
  105OSM   H11T10721   2.723   0.313   9.523 -0.7709 -0.2691  2.4644
  105OSM   C12S10722   2.642   0.114   9.509 -0.6604  0.0909  0.1438
  105OSM   H12S10723   2.579   0.130   9.598 -0.6187 -0.3439  0.2506
  105OSM   H12T10724   2.687   0.013   9.503  2.7882  1.5173 -0.3132
  105OSM   C13S10725   2.561   0.149   9.388  0.3437  1.0334  0.1313
  105OSM   H13S10726   2.623   0.164   9.298 -2.3596 -1.5874 -2.3808
  105OSM   H13T10727   2.500   0.240   9.408  1.3347  1.4138  1.6043
  105OSM   C14S10728   2.481   0.021   9.350 -0.5845  0.4605  0.1020
  105OSM   H14S10729   2.425  -0.023   9.436 -0.4421 -0.8464 -0.4472
  105OSM   H14T10730   2.557  -0.054   9.318 -0.2095 -0.3435  2.6549
  105OSM   C15S10731   2.392   0.044   9.227 -0.0877 -0.4302 -0.5285
  105OSM   H15S10732   2.453   0.103   9.156  1.5723  1.4587  2.2889
  105OSM   H15T10733   2.306   0.107   9.258  0.2316  0.5645 -1.5763
  105OSM   C16S10734   2.344  -0.094   9.166  0.2255  0.1002 -0.4143
  105OSM   H16S10735   2.421  -0.137   9.100  0.8931 -0.8985  0.9742
  105OSM   H16T10736   2.255  -0.064   9.106 -0.2232  0.4168  0.3930
  105OSM   C17S10737   2.295  -0.199   9.275 -0.5927  0.2029  0.5517
  105OSM   H17S10738   2.227  -0.150   9.349 -0.9729 -2.2291  1.9116
  105OSM   H17T10739   2.381  -0.248   9.325 -0.5339 -1.0578 -0.7298
  105OSM   C18S10740   2.217  -0.316   9.215 -0.5627 -0.0487 -0.4614
  105OSM   H18S10741   2.283  -0.370   9.144  0.2446 -1.2550  1.1303
  105OSM   H18T10742   2.129  -0.274   9.162 -0.3831  1.7208  0.5716
  105OSM   H18U10743   2.187  -0.388   9.294  1.1073 -2.2129 -1.6827
  105OSM    C1F10744   2.365   0.540  10.251  0.4033 -0.1763  0.5954
  105OSM     OF10745   2.444   0.629  10.282  0.2408 -0.1390  0.5477
  105OSM    C2F10746   2.241   0.580  10.170  0.1183  0.8065 -0.3065
  105OSM    H2F10747   2.149   0.548  10.225  1.5307  2.5103  3.3274
  105OSM    H2G10748   2.251   0.530  10.071  0.3750  0.0985  0.0705
  105OSM    C3F10749   2.228   0.735  10.150 -0.0488 -0.0643  0.9980
  105OSM    H3F10750   2.308   0.767  10.080  0.3086 -0.3385  1.2770
  105OSM    H3G10751   2.233   0.781  10.251  1.6583 -0.9930  1.3627
  105OSM    C4F10752   2.086   0.766  10.103  0.1873 -0.3651  0.4165
  105OSM    H4F10753   2.089   0.877  10.093  1.6396 -0.3722  0.6374
  105OSM    H4G10754   2.017   0.757  10.190  0.0274  0.2046  0.3532
  105OSM    C5F10755   2.035   0.714   9.965 -0.4027 -0.6613 -0.2633
  105OSM    H5F10756   1.925   0.732   9.969 -0.4158  0.2055 -2.6808
  105OSM    H5G10757   2.040   0.603   9.964 -0.7704 -0.6782 -1.5467
  105OSM    C6F10758   2.097   0.785   9.840  0.5364 -0.2432  0.1820
  105OSM    H6F10759   2.206   0.768   9.849  0.5582 -1.4631 -1.9535
  105OSM    H6G10760   2.082   0.895   9.846  0.2632 -0.2352 -0.6209
  105OSM    C7F10761   2.044   0.729   9.708  0.1757 -0.4188  0.4914
  105OSM    H7F10762   1.943   0.760   9.675  0.5282  0.5838  0.3158
  105OSM    H7G10763   2.037   0.619   9.721 -2.9008 -0.3162  0.2221
  105OSM    C8F10764   2.146   0.756   9.596 -0.3321  0.2420 -0.0550
  105OSM    H8F10765   2.126   0.686   9.513 -2.8217 -1.1419  1.5690
  105OSM    H8G10766   2.245   0.722   9.633 -0.7164 -1.8038 -0.8078
  105OSM    C9F10767   2.155   0.896   9.555  0.3171 -0.2418 -0.3253
  105OSM    H9F10768   2.242   0.952   9.593 -0.3543  1.2363 -0.8731
  105OSM   C10F10769   2.082   0.957   9.463 -0.5000  0.2371 -0.0666
  105OSM   H10F10770   2.087   1.067   9.460 -3.1209  0.4444  0.5623
  105OSM   C11F10771   1.981   0.892   9.371  0.3917  0.2339 -0.1818
  105OSM   H11F10772   1.895   0.961   9.365  0.2869  0.0307 -1.3580
  105OSM   H11G10773   1.951   0.789   9.401  0.0884  0.3024 -0.2500
  105OSM   C12F10774   2.045   0.870   9.229 -0.6226  0.5957 -0.1335
  105OSM   H12F10775   1.969   0.821   9.164  1.4974 -1.3148 -1.3017
  105OSM   H12G10776   2.130   0.799   9.240 -1.9871 -1.0436  0.3735
  105OSM   C13F10777   2.090   1.008   9.163  0.6323  1.2061  0.9638
  105OSM   H13F10778   2.194   1.031   9.195  1.2810 -2.5202  2.0396
  105OSM   H13G10779   2.015   1.087   9.187 -2.5963 -1.0818 -0.7982
  105OSM   C14F10780   2.092   1.004   9.007  0.2093 -0.5216  0.0589
  105OSM   H14F10781   2.096   1.108   8.968 -0.2486 -0.2922  0.6249
  105OSM   H14G10782   1.996   0.967   8.966  0.2465 -1.2877  0.6342
  105OSM   C15F10783   2.214   0.922   8.962 -0.2417  0.0476  0.7334
  105OSM   H15F10784   2.228   0.833   9.027  0.7761  0.0385  0.5198
  105OSM   H15G10785   2.301   0.987   8.986  0.4534 -0.8980  0.8176
  105OSM   C16F10786   2.210   0.889   8.807  0.3409 -0.3086 -0.3211
  105OSM   H16F10787   2.205   0.981   8.745  1.5767  1.4632  2.0402
  105OSM   H16G10788   2.112   0.838   8.794  0.1495 -0.5281  1.6565
  105OSM   C17F10789   2.315   0.789   8.760 -0.2673  0.2872  0.2524
  105OSM   H17F10790   2.273   0.744   8.668 -2.0799  3.6742 -0.7819
  105OSM   H17G10791   2.313   0.712   8.839 -0.4264  0.4000  0.3576
  105OSM   C18F10792   2.458   0.842   8.746 -0.7014  0.1402  0.1624
  105OSM   H18F10793   2.526   0.757   8.724  0.6937  1.3805 -0.5451
  105OSM   H18G10794   2.499   0.890   8.837  0.1412 -2.5913  1.3345
  105OSM   H18H10795   2.473   0.914   8.662 -1.2257  0.5058  0.3791
  106OSM      N10796   3.492   5.831  10.827 -0.2772  0.2021  0.1676
  106OSM    C1510797   3.342   5.858  10.834  0.1708 -0.2700 -0.4226
  106OSM   H15A10798   3.335   5.966  10.842  1.4215 -0.1476 -0.7762
  106OSM   H15B10799   3.297   5.802  10.915  0.9231 -0.9313 -0.4499
  106OSM   H15C10800   3.286   5.827  10.748 -2.2473  2.1194  0.1745
  106OSM    C1410801   3.559   5.910  10.721 -0.0686  0.6942  0.3293
  106OSM   H14A10802   3.660   5.875  10.704 -0.1166  0.4381  0.5646
  106OSM   H14B10803   3.563   6.016  10.744 -0.8110  0.6709  0.5997
  106OSM   H14C10804   3.509   5.905  10.626  0.1264  1.5333  0.1711
  106OSM    C1310805   3.551   5.863  10.960 -0.1319 -0.6314 -0.4740
  106OSM   H13A10806   3.539   5.969  10.975 -0.2267 -0.7732  0.5450
  106OSM   H13B10807   3.658   5.852  10.962 -0.1654 -1.8441  3.2070
  106OSM   H13C10808   3.499   5.813  11.041  0.7533  0.9289  1.1272
  106OSM    C1210809   3.514   5.681  10.811  0.1945  0.3644  0.0455
  106OSM   H12A10810   3.462   5.627  10.888 -0.7053  0.4913 -0.4551
  106OSM   H12B10811   3.620   5.658  10.815 -0.1626 -1.3777  0.3060
  106OSM    C1110812   3.467   5.626  10.674  0.1927  0.0928  0.0411
  106OSM   H11A10813   3.519   5.528  10.662 -0.0207 -0.0881  0.5679
  106OSM   H11B10814   3.508   5.694  10.596 -0.3103  1.4568  0.9508
  106OSM      P10815   3.264   5.487  10.707 -0.3829 -0.1378 -0.3191
  106OSM    O1310816   3.304   5.463  10.847  0.3630  0.4205 -0.1067
  106OSM    O1410817   3.121   5.489  10.681 -0.3987 -0.4197 -0.0598
  106OSM    O1110818   3.320   5.375  10.619 -0.3894  0.0671 -0.5911
  106OSM    O1210819   3.322   5.617  10.663  0.2188 -0.4713 -0.5661
  106OSM    C1S10820   3.306   5.383  10.474 -0.1814 -0.7059 -0.5016
  106OSM    H1S10821   3.401   5.432  10.448 -0.5146  0.4199  0.3242
  106OSM    H1T10822   3.238   5.460  10.433 -0.2946 -0.6348 -0.1831
  106OSM     NF10823   3.257   5.264  10.267  0.2418  0.3114 -0.0697
  106OSM    HNF10824   3.162   5.251  10.242 -0.0253  3.0482 -0.7162
  106OSM    C2S10825   3.291   5.241  10.413 -0.2123 -0.4883 -0.4296
  106OSM    H2S10826   3.388   5.186  10.417 -0.3749 -0.7974  3.4583
  106OSM    C3S10827   3.188   5.156  10.497  0.2004  0.0813  0.6371
  106OSM    H3S10828   3.098   5.221  10.509  0.8075  0.4708  3.8845
  106OSM     O310829   3.240   5.110  10.621  0.2940 -0.0560 -0.2496
  106OSM    HO310830   3.328   5.149  10.620  0.7954 -0.8196 -4.5734
  106OSM    C4S10831   3.157   5.036  10.416  0.2008  0.4328  0.1806
  106OSM    H4S10832   3.232   4.958  10.435 -0.6585 -0.1120  1.4897
  106OSM    C5S10833   3.040   5.009  10.348  0.2321 -0.4524 -0.2171
  106OSM    H5S10834   2.959   5.082  10.354  1.8146  1.6314 -2.2483
  106OSM    C6S10835   2.988   4.892  10.270 -0.8779  0.3128  0.1999
  106OSM    H6S10836   2.985   4.921  10.162  4.5524  0.5959 -0.1830
  106OSM    H6T10837   2.884   4.866  10.298 -1.0165  0.9075  0.2560
  106OSM    C7S10838   3.075   4.761  10.280 -0.0615  0.1095 -0.0823
  106OSM    H7S10839   3.071   4.729  10.386 -0.3224 -0.6905 -0.3317
  106OSM    H7T10840   3.183   4.782  10.262  0.4385 -2.4706 -0.4525
  106OSM    C8S10841   3.018   4.654  10.193  0.0477 -0.5441  0.7352
  106OSM    H8S10842   3.031   4.695  10.090 -0.0552 -0.2942  0.8221
  106OSM    H8T10843   2.910   4.652  10.220  0.2552 -0.1140  1.6388
  106OSM    C9S10844   3.086   4.513  10.199 -0.3102  0.0244  0.2890
  106OSM    H9S10845   3.078   4.459  10.295  0.3829 -1.1017 -0.2662
  106OSM    H9T10846   3.193   4.528  10.171  0.2858 -1.0033  1.8774
  106OSM   C10S10847   3.024   4.422  10.086 -0.1345  0.1338 -0.8033
  106OSM   H10S10848   2.924   4.386  10.117 -0.2479 -0.1337 -1.4693
  106OSM   H10T10849   3.096   4.337  10.083  1.7231  1.6169 -0.4929
  106OSM   C11S10850   3.024   4.477   9.943 -0.3608 -0.5724  0.2088
  106OSM   H11S10851   3.127   4.507   9.914 -0.0795  0.1470  1.8553
  106OSM   H11T10852   2.941   4.551   9.936 -0.3892 -0.6639 -0.5428
  106OSM   C12S10853   2.975   4.370   9.849 -0.2979  0.3009 -0.2428
  106OSM   H12S10854   2.884   4.331   9.900  0.5604 -2.5695 -0.7189
  106OSM   H12T10855   3.051   4.290   9.848 -1.0353 -0.4738  1.5023
  106OSM   C13S10856   2.952   4.426   9.708 -0.2712 -0.0543  0.4109
  106OSM   H13S10857   3.033   4.498   9.689 -0.3698  0.3035  1.2860
  106OSM   H13T10858   2.860   4.489   9.705  0.6059  1.2987 -3.4764
  106OSM   C14S10859   2.920   4.323   9.601 -0.5047 -0.4898  0.0590
  106OSM   H14S10860   2.841   4.249   9.627 -1.5139  0.5493  0.0428
  106OSM   H14T10861   3.008   4.256   9.592 -0.1628 -0.0484  0.1319
  106OSM   C15S10862   2.888   4.357   9.458 -0.0520  0.0830  0.3172
  106OSM   H15S10863   2.965   4.425   9.416 -1.5769  1.0852 -0.9798
  106OSM   H15T10864   2.795   4.417   9.449 -0.1058 -0.1102 -0.5959
  106OSM   C16S10865   2.863   4.232   9.372  0.6470  0.9040  0.5725
  106OSM   H16S10866   2.766   4.183   9.394  1.1228 -0.6609 -0.6664
  106OSM   H16T10867   2.943   4.161   9.401 -1.3124 -2.2747 -1.2668
  106OSM   C17S10868   2.881   4.255   9.220  0.6335  0.2935 -0.3108
  106OSM   H17S10869   2.925   4.157   9.194 -3.3929 -1.8467  0.2300
  106OSM   H17T10870   2.955   4.333   9.189 -0.7751  2.3175  1.1361
  106OSM   C18S10871   2.748   4.284   9.154 -0.3176 -0.0765  0.0918
  106OSM   H18S10872   2.765   4.303   9.046  0.9499  1.5732  0.5466
  106OSM   H18T10873   2.708   4.377   9.198  1.4694 -0.0224  1.7256
  106OSM   H18U10874   2.673   4.203   9.160 -0.4390 -0.0258 -0.6142
  106OSM    C1F10875   3.333   5.315  10.169  0.5324 -0.1408  0.2215
  106OSM     OF10876   3.445   5.356  10.185 -0.0989 -0.4153 -0.5247
  106OSM    C2F10877   3.284   5.300  10.035 -0.5941 -0.0023 -0.1789
  106OSM    H2F10878   3.196   5.232  10.034 -0.6420 -0.0739  2.1768
  106OSM    H2G10879   3.348   5.237   9.970  0.5797  0.9190  0.0577
  106OSM    C3F10880   3.253   5.439   9.974 -0.3165  0.2879  0.0911
  106OSM    H3F10881   3.344   5.503   9.971  0.0469 -0.2347 -2.5784
  106OSM    H3G10882   3.185   5.495  10.043  1.2178 -0.0416  1.9588
  106OSM    C4F10883   3.199   5.433   9.825  0.3510 -0.3037 -0.5473
  106OSM    H4F10884   3.111   5.366   9.836  0.5280 -0.2916  1.0889
  106OSM    H4G10885   3.277   5.390   9.758 -1.0443 -1.3545 -1.5611
  106OSM    C5F10886   3.154   5.564   9.763 -0.1815  0.1368 -0.0207
  106OSM    H5F10887   3.226   5.640   9.801  2.0245 -0.5553 -2.5533
  106OSM    H5G10888   3.052   5.588   9.801 -0.5733 -0.6738 -0.5515
  106OSM    C6F10889   3.159   5.557   9.611  0.0541  0.1644  0.0713
  106OSM    H6F10890   3.097   5.474   9.572  1.6290 -0.6054 -0.9168
  106OSM    H6G10891   3.262   5.546   9.570  0.2164 -1.6925  0.8883
  106OSM    C7F10892   3.086   5.683   9.557 -0.4259  0.2583  0.1571
  106OSM    H7F10893   3.133   5.768   9.612 -0.1380  0.1249  0.1193
  106OSM    H7G10894   2.978   5.693   9.581 -0.5997 -0.1739 -0.4405
  106OSM    C8F10895   3.087   5.692   9.403 -0.6561 -0.0544 -0.6449
  106OSM    H8F10896   3.042   5.594   9.375 -0.6708 -0.4274  0.6188
  106OSM    H8G10897   3.196   5.694   9.378 -0.7429 -0.6740 -1.1147
  106OSM    C9F10898   3.013   5.809   9.352 -0.0545  0.5701  0.0389
  106OSM    H9F10899   2.975   5.876   9.430  0.4451  0.9848 -0.0735
  106OSM   C10F10900   2.987   5.840   9.221 -0.2283 -0.3613  0.5288
  106OSM   H10F10901   2.938   5.936   9.198 -0.2069 -0.3196  0.6561
  106OSM   C11F10902   3.042   5.760   9.101  0.2784 -0.5676  0.1412
  106OSM   H11F10903   3.095   5.665   9.125  1.7767  0.1603 -0.1037
  106OSM   H11G10904   3.116   5.822   9.045  0.0087 -0.8377 -0.5261
  106OSM   C12F10905   2.928   5.730   9.001 -0.6509  0.5203  0.6622
  106OSM   H12F10906   2.841   5.685   9.054 -1.3464  0.6032 -0.3762
  106OSM   H12G10907   2.970   5.662   8.923  1.0838 -0.0597  2.0467
  106OSM   C13F10908   2.881   5.850   8.917 -0.2767  0.3876  0.0745
  106OSM   H13F10909   2.970   5.905   8.881  0.5708 -0.9427  0.1022
  106OSM   H13G10910   2.828   5.923   8.983 -1.9323 -0.5968 -0.1019
  106OSM   C14F10911   2.791   5.805   8.795 -0.8785 -0.0860 -0.1093
  106OSM   H14F10912   2.824   5.722   8.730  0.7502  1.3927 -1.2648
  106OSM   H14G10913   2.766   5.893   8.732  0.7291  0.3065 -0.2587
  106OSM   C15F10914   2.645   5.773   8.843  0.1078  0.8960 -0.6794
  106OSM   H15F10915   2.609   5.866   8.892 -0.8021 -0.2547  0.9594
  106OSM   H15G10916   2.645   5.699   8.926 -2.4602  1.9416  0.3277
  106OSM   C16F10917   2.550   5.728   8.736  0.1070  0.5352  0.2236
  106OSM   H16F10918   2.592   5.632   8.700 -1.1037 -0.4996  1.4445
  106OSM   H16G10919   2.558   5.807   8.659  0.8461  0.1622 -0.0978
  106OSM   C17F10920   2.409   5.708   8.778  0.8607  0.4231 -0.3972
  106OSM   H17F10921   2.405   5.621   8.848 -3.0859  1.0383  0.3911
  106OSM   H17G10922   2.348   5.661   8.698 -1.2108 -1.2737  2.0031
  106OSM   C18F10923   2.344   5.831   8.851  0.1884  0.9176  0.4412
  106OSM   H18F10924   2.335   5.920   8.785  2.7552  0.2495 -0.9654
  106OSM   H18G10925   2.401   5.870   8.938 -1.0347 -0.3304  1.8726
  106OSM   H18H10926   2.250   5.798   8.900  1.3209  0.5397  2.4889
  107OSM      N10927   4.519   3.765  10.800  1.0324  0.6688  0.3553
  107OSM    C1510928   4.495   3.636  10.715 -0.4258 -0.4395 -0.0969
  107OSM   H15A10929   4.417   3.655  10.643  0.4408 -0.2558 -1.0037
  107OSM   H15B10930   4.467   3.549  10.773 -0.5805 -1.3392 -1.4616
  107OSM   H15C10931   4.583   3.617  10.655  0.1979  0.5153  0.4964
  107OSM    C1410932   4.625   3.746  10.899 -0.4310  0.5734  1.2879
  107OSM   H14A10933   4.716   3.713  10.851  0.7589  2.9021  1.7593
  107OSM   H14B10934   4.607   3.670  10.973 -0.2324 -0.8618 -0.0923
  107OSM   H14C10935   4.649   3.838  10.951  2.3784  0.6611  0.0205
  107OSM    C1310936   4.549   3.873  10.702  0.0471 -0.2304 -0.4557
  107OSM   H13A10937   4.468   3.911  10.642 -0.5681  1.7005  1.4631
  107OSM   H13B10938   4.619   3.838  10.627 -0.0955 -1.1227 -0.1882
  107OSM   H13C10939   4.588   3.959  10.754 -1.4765 -0.4944  1.2170
  107OSM    C1210940   4.388   3.801  10.869 -0.5181  0.1952  1.2068
  107OSM   H12A10941   4.411   3.862  10.955 -0.9600  0.8031  0.9051
  107OSM   H12B10942   4.337   3.719  10.917 -0.8806 -0.2759  0.0581
  107OSM    C1110943   4.283   3.880  10.779  0.4777  0.1179  0.2347
  107OSM   H11A10944   4.185   3.883  10.831 -0.4760 -1.1100 -1.4118
  107OSM   H11B10945   4.260   3.821  10.689 -1.2232  2.0442 -0.6706
  107OSM      P10946   4.308   4.139  10.832 -0.2500 -0.1552 -0.4213
  107OSM    O1310947   4.330   4.110  10.975 -0.5118  0.0407 -0.2670
  107OSM    O1410948   4.373   4.252  10.767 -0.1387  0.4684 -0.4475
  107OSM    O1110949   4.149   4.164  10.822  0.0713 -0.0078 -0.0658
  107OSM    O1210950   4.320   4.011  10.742 -0.0710  0.5925 -0.7779
  107OSM    C1S10951   4.076   4.159  10.698  0.0082 -0.0791 -0.1909
  107OSM    H1S10952   4.145   4.148  10.611  0.8835 -2.5962  0.7452
  107OSM    H1T10953   4.020   4.252  10.674 -1.4827 -0.7295  0.6658
  107OSM     NF10954   3.904   4.072  10.562  0.2626 -0.0460 -0.4772
  107OSM    HNF10955   3.822   4.128  10.570  1.3808  1.5468  0.5794
  107OSM    C2S10956   3.977   4.041  10.690 -1.0921 -0.5718  0.6457
  107OSM    H2S10957   4.023   3.942  10.669 -2.3585 -0.8693 -0.9596
  107OSM    C3S10958   3.885   4.024  10.810 -0.1765  0.2474 -0.2356
  107OSM    H3S10959   3.839   4.119  10.844 -0.7876 -0.7714  1.9150
  107OSM     O310960   3.960   3.999  10.933  0.1512  0.0276 -0.0855
  107OSM    HO310961   4.022   4.072  10.939 -0.5076  0.5166  0.9745
  107OSM    C4S10962   3.784   3.912  10.783  0.2950  0.0900 -0.4166
  107OSM    H4S10963   3.689   3.945  10.739  0.3231  1.2825  0.3700
  107OSM    C5S10964   3.786   3.784  10.828  0.6584  0.0448 -0.1203
  107OSM    H5S10965   3.881   3.756  10.876  1.8127 -0.8170 -2.7073
  107OSM    C6S10966   3.676   3.688  10.800 -0.4242 -0.1234  0.5684
  107OSM    H6S10967   3.572   3.725  10.812  0.0143  2.0795 -1.5302
  107OSM    H6T10968   3.691   3.601  10.867 -0.8868 -1.1665 -0.6460
  107OSM    C7S10969   3.683   3.642  10.654  0.0327  0.4658 -0.1580
  107OSM    H7S10970   3.605   3.565  10.634  0.7146 -1.2600  3.1923
  107OSM    H7T10971   3.788   3.612  10.638  0.6236  3.5765 -3.3420
  107OSM    C8S10972   3.648   3.755  10.552  0.7740 -0.2913  0.2962
  107OSM    H8S10973   3.728   3.831  10.551  1.3129 -0.7019  3.0913
  107OSM    H8T10974   3.556   3.809  10.583  1.5786  0.2935  1.7292
  107OSM    C9S10975   3.617   3.707  10.407 -1.2139 -0.1684  0.2186
  107OSM    H9S10976   3.542   3.626  10.396 -2.2613  0.8016  0.0427
  107OSM    H9T10977   3.712   3.671  10.362 -1.6908  1.0806 -1.9403
  107OSM   C10S10978   3.560   3.821  10.314 -0.3122 -0.2551 -0.8597
  107OSM   H10S10979   3.601   3.921  10.340  2.3861 -2.0148  2.4955
  107OSM   H10T10980   3.454   3.827  10.348 -0.0348 -1.2725  0.2606
  107OSM   C11S10981   3.562   3.792  10.167  0.1925 -0.4944 -0.3418
  107OSM   H11S10982   3.660   3.751  10.135  1.3521  1.9623 -0.1851
  107OSM   H11T10983   3.544   3.881  10.102 -1.0555 -0.0762  0.5244
  107OSM   C12S10984   3.447   3.700  10.124 -0.0374 -0.4095 -0.1285
  107OSM   H12S10985   3.366   3.773  10.101  0.0955 -0.2738 -0.1701
  107OSM   H12T10986   3.398   3.653  10.212 -0.8788 -0.1215 -0.4284
  107OSM   C13S10987   3.486   3.610  10.008  0.7807 -0.1510 -0.0631
  107OSM   H13S10988   3.409   3.534   9.985 -0.2756  0.9971 -0.4057
  107OSM   H13T10989   3.580   3.558  10.037  1.8718  1.6593 -0.1515
  107OSM   C14S10990   3.507   3.690   9.881 -0.4756  0.0620 -0.2997
  107OSM   H14S10991   3.590   3.761   9.903 -1.4597  0.4357  2.4674
  107OSM   H14T10992   3.418   3.747   9.847 -0.0982  0.9533  0.1822
  107OSM   C15S10993   3.550   3.595   9.763 -0.5866 -0.0997 -0.4058
  107OSM   H15S10994   3.479   3.511   9.775 -1.9868  0.6986 -2.5916
  107OSM   H15T10995   3.654   3.572   9.797 -1.5507  1.8773  4.8604
  107OSM   C16S10996   3.540   3.649   9.619  0.2496  0.5590 -0.2253
  107OSM   H16S10997   3.621   3.724   9.616 -0.8354  1.7436 -0.7789
  107OSM   H16T10998   3.442   3.692   9.590 -0.7484 -0.9067  0.7870
  107OSM   C17S10999   3.567   3.533   9.518  0.0660 -0.3633 -0.1621
  107OSM   H17S11000   3.504   3.447   9.547 -0.0133 -0.0889  0.5030
  107OSM   H17T11001   3.672   3.503   9.538  0.4401  0.6358 -0.5771
  107OSM   C18S11002   3.541   3.567   9.373 -0.0263 -0.0614 -0.1995
  107OSM   H18S11003   3.583   3.496   9.299  0.3156 -0.0238 -0.0438
  107OSM   H18T11004   3.588   3.667   9.356 -1.1879  0.5743  0.2145
  107OSM   H18U11005   3.432   3.579   9.352 -0.2758  3.3685  2.2003
  107OSM    C1F11006   3.953   4.047  10.442  0.3973  0.2045  0.1591
  107OSM     OF11007   4.057   3.990  10.425  0.0239 -0.4137  0.5704
  107OSM    C2F11008   3.867   4.089  10.329  1.3329 -0.0487  0.6249
  107OSM    H2F11009   3.877   4.198  10.307  0.9643  0.1062  1.2232
  107OSM    H2G11010   3.762   4.078  10.363  1.9259  2.0795  3.5483
  107OSM    C3F11011   3.898   4.010  10.200 -0.3996 -0.8575 -0.5316
  107OSM    H3F11012   3.888   3.901  10.219  3.1921 -1.5564 -1.8186
  107OSM    H3G11013   4.004   4.019  10.168 -0.1630 -0.6016  0.2891
  107OSM    C4F11014   3.798   4.034  10.082 -0.9627  0.3710  0.2688
  107OSM    H4F11015   3.723   4.101  10.129 -0.1465  1.8599 -0.4774
  107OSM    H4G11016   3.748   3.940  10.051  1.3270 -1.9336  2.9789
  107OSM    C5F11017   3.856   4.127   9.974 -0.0908 -0.7941  1.2619
  107OSM    H5F11018   3.939   4.066   9.932  0.1672 -0.5715  1.4401
  107OSM    H5G11019   3.890   4.222  10.021  0.0602  0.2402 -0.8428
  107OSM    C6F11020   3.772   4.164   9.843  0.3512  0.6641 -0.5104
  107OSM    H6F11021   3.823   4.247   9.790  2.9388 -0.3450  0.2693
  107OSM    H6G11022   3.673   4.211   9.861 -0.1767  0.7158 -3.0913
  107OSM    C7F11023   3.750   4.037   9.754 -0.7501  0.5464  0.0916
  107OSM    H7F11024   3.684   3.966   9.808 -1.2740 -0.2242 -1.4776
  107OSM    H7G11025   3.851   3.993   9.740 -0.5567 -0.0154  2.7906
  107OSM    C8F11026   3.690   4.066   9.618  0.6387  0.1883 -0.1212
  107OSM    H8F11027   3.599   4.127   9.639 -1.2417 -2.1142 -1.1449
  107OSM    H8G11028   3.660   3.971   9.570 -0.8332  0.4661  0.1908
  107OSM    C9F11029   3.780   4.144   9.537 -0.5783 -0.0336 -0.4011
  107OSM    H9F11030   3.822   4.233   9.588  0.3292 -1.0864  0.7687
  107OSM   C10F11031   3.808   4.121   9.407  0.1265 -0.0650 -0.2872
  107OSM   H10F11032   3.884   4.182   9.355  2.8354 -3.5380 -0.8030
  107OSM   C11F11033   3.757   4.013   9.319 -0.4654  0.4338  0.3917
  107OSM   H11F11034   3.647   4.024   9.307 -0.6579 -0.0483  1.5344
  107OSM   H11G11035   3.766   3.919   9.377 -0.9044  0.9932  1.4075
  107OSM   C12F11036   3.821   4.001   9.179  0.6089  0.0548  0.7233
  107OSM   H12F11037   3.928   4.030   9.184  0.2102  1.3720  3.0708
  107OSM   H12G11038   3.768   4.070   9.110 -0.5016 -1.3454  0.1053
  107OSM   C13F11039   3.799   3.862   9.116  0.3286  0.1574 -0.2812
  107OSM   H13F11040   3.691   3.846   9.135 -0.1440 -1.2577 -3.5682
  107OSM   H13G11041   3.851   3.784   9.177 -0.8196  0.7059  1.4573
  107OSM   C14F11042   3.824   3.868   8.967 -0.3271  0.6438  0.6372
  107OSM   H14F11043   3.929   3.888   8.938 -0.2158  2.2215  1.9339
  107OSM   H14G11044   3.768   3.956   8.928 -0.4745 -0.2125 -1.1425
  107OSM   C15F11045   3.776   3.739   8.892  0.4831  0.6883  0.1802
  107OSM   H15F11046   3.684   3.701   8.941  0.4697  0.0283 -0.3481
  107OSM   H15G11047   3.859   3.666   8.903  0.7301  0.7191 -1.2111
  107OSM   C16F11048   3.749   3.754   8.741 -0.1721  0.1597  0.2424
  107OSM   H16F11049   3.822   3.828   8.701 -2.5645  2.0624 -0.8444
  107OSM   H16G11050   3.655   3.805   8.712 -0.8903 -2.2977 -2.1819
  107OSM   C17F11051   3.752   3.618   8.676  0.1592 -1.0670 -0.3307
  107OSM   H17F11052   3.679   3.622   8.593  0.4134 -0.7007 -0.5407
  107OSM   H17G11053   3.707   3.538   8.738 -1.2923 -1.1884 -1.4945
  107OSM   C18F11054   3.897   3.583   8.637  0.6936  0.5433  0.0235
  107OSM   H18F11055   3.963   3.583   8.726  3.9340 -2.0835 -2.1118
  107OSM   H18G11056   3.937   3.660   8.568  0.2661 -0.1392 -1.0318
  107OSM   H18H11057   3.900   3.481   8.592  1.9043 -0.0682  1.4183
  108OSM      N11058   2.149   6.034  11.029  0.3527 -0.4853 -0.1549
  108OSM    C1511059   2.172   6.011  11.182  0.1913 -0.4820  0.1199
  108OSM   H15A11060   2.124   6.081  11.248 -0.6374 -0.9221 -0.0004
  108OSM   H15B11061   2.279   6.008  11.198  0.5724 -0.4584 -2.1359
  108OSM   H15C11062   2.133   5.911  11.195  1.9269 -1.2527 -0.1646
  108OSM    C1411063   2.217   6.164  10.997 -0.1294 -0.0872  0.0391
  108OSM   H14A11064   2.192   6.190  10.895 -0.7653  1.0042  0.4459
  108OSM   H14B11065   2.323   6.149  11.010 -0.0069  1.6687  1.5622
  108OSM   H14C11066   2.183   6.242  11.063  1.7531  0.9439 -0.1476
  108OSM    C1311067   2.205   5.934  10.946 -0.1121  0.0698 -0.1338
  108OSM   H13A11068   2.147   5.845  10.965  0.6027 -0.8702 -2.1074
  108OSM   H13B11069   2.306   5.910  10.979  0.5849  3.0296  0.1497
  108OSM   H13C11070   2.211   5.957  10.841 -1.2120  1.3928  0.0722
  108OSM    C1211071   2.002   6.034  11.007 -0.1478  0.0235  0.5482
  108OSM   H12A11072   1.944   6.089  11.079 -0.7614  1.0992 -0.7301
  108OSM   H12B11073   1.957   5.936  11.009  0.6949 -0.3824  0.3189
  108OSM    C1111074   1.943   6.086  10.870 -0.3969 -0.4949 -0.4025
  108OSM   H11A11075   1.841   6.045  10.856  0.0793 -1.9620  0.1431
  108OSM   H11B11076   2.007   6.055  10.785  3.0372  1.7140  1.1396
  108OSM      P11077   1.843   6.322  10.935 -0.1251 -0.0078 -0.5615
  108OSM    O1311078   1.795   6.246  11.053  0.1336 -0.7740 -0.1300
  108OSM    O1411079   1.892   6.461  10.954  0.3153  0.1016 -0.2639
  108OSM    O1111080   1.729   6.324  10.826 -0.5409  0.2828 -0.7368
  108OSM    O1211081   1.954   6.225  10.865  0.4400 -0.1026  0.2955
  108OSM    C1S11082   1.734   6.357  10.692  0.5788 -0.6801  0.2863
  108OSM    H1S11083   1.830   6.320  10.649  0.0620 -1.2393 -0.4019
  108OSM    H1T11084   1.741   6.467  10.681  1.0959 -0.7334  0.0104
  108OSM     NF11085   1.626   6.309  10.473  0.2806  0.0881  0.6087
  108OSM    HNF11086   1.595   6.385  10.416  2.1855 -0.1817 -0.8969
  108OSM    C2S11087   1.612   6.301  10.623 -0.4377  0.1307 -0.3876
  108OSM    H2S11088   1.596   6.199  10.664 -1.7263  0.8906  1.1231
  108OSM    C3S11089   1.488   6.374  10.673 -1.2949  0.2860  0.3531
  108OSM    H3S11090   1.499   6.482  10.652 -1.0717  0.1012 -0.5484
  108OSM     O311091   1.469   6.375  10.815  0.2836  0.1635  0.3702
  108OSM    HO311092   1.553   6.342  10.847  0.6794 -0.6675 -1.4338
  108OSM    C4S11093   1.366   6.330  10.594 -0.2053  0.1688 -0.6948
  108OSM    H4S11094   1.359   6.373  10.493  0.1902  1.2893 -0.2650
  108OSM    C5S11095   1.262   6.256  10.630 -0.2843  0.2276 -0.1392
  108OSM    H5S11096   1.259   6.218  10.733  0.1229  0.4628 -0.0408
  108OSM    C6S11097   1.151   6.208  10.543  0.0728  0.0336  0.1079
  108OSM    H6S11098   1.060   6.242  10.597 -2.1064 -1.6600 -2.2757
  108OSM    H6T11099   1.139   6.099  10.528 -1.2184  0.3797 -1.7033
  108OSM    C7S11100   1.125   6.270  10.401  0.1132 -0.0529 -0.5071
  108OSM    H7S11101   1.218   6.252  10.343 -0.5121  0.8273 -1.8509
  108OSM    H7T11102   1.100   6.375  10.428  2.2774  0.2910  0.3728
  108OSM    C8S11103   1.005   6.204  10.331 -0.6694  0.9235 -0.6270
  108OSM    H8S11104   0.910   6.243  10.375 -1.3086 -3.0542  1.9714
  108OSM    H8T11105   1.006   6.098  10.363  1.3037  0.7473 -1.1863
  108OSM    C9S11106   1.016   6.209  10.176  0.2067  0.0240 -0.4752
  108OSM    H9S11107   1.091   6.284  10.143  1.7669  0.2788  3.1930
  108OSM    H9T11108   0.915   6.245  10.146  0.3130  0.5637 -0.2129
  108OSM   C10S11109   1.046   6.073  10.113  0.2587  0.5147 -0.2885
  108OSM   H10S11110   0.967   6.002  10.145 -0.1937  0.2194 -1.9516
  108OSM   H10T11111   1.149   6.046  10.146  0.6888 -1.0403 -2.6344
  108OSM   C11S11112   1.037   6.072   9.957 -0.0674 -0.1396  0.7828
  108OSM   H11S11113   0.930   6.084   9.927  0.2598  0.4266 -0.1777
  108OSM   H11T11114   1.066   5.974   9.915 -0.0174 -0.6012  1.8498
  108OSM   C12S11115   1.114   6.188   9.898  0.7861 -0.0330  0.6800
  108OSM   H12S11116   1.209   6.198   9.955  0.8879 -0.3156  0.5561
  108OSM   H12T11117   1.076   6.292   9.886 -0.9797 -0.7126  0.1032
  108OSM   C13S11118   1.148   6.154   9.755  0.5710  0.3820 -0.0881
  108OSM   H13S11119   1.195   6.053   9.757  0.8234  0.4777  2.5841
  108OSM   H13T11120   1.233   6.222   9.732  1.4033 -0.1977  1.1124
  108OSM   C14S11121   1.035   6.175   9.656  0.3126  0.5721  0.0484
  108OSM   H14S11122   0.998   6.279   9.666  0.0710  0.5259 -0.3755
  108OSM   H14T11123   0.957   6.106   9.696  0.7186  0.4081  0.5743
  108OSM   C15S11124   1.054   6.150   9.505 -0.0537  0.1289 -0.0256
  108OSM   H15S11125   0.957   6.183   9.463  0.1886  1.3045  0.3061
  108OSM   H15T11126   1.068   6.040   9.493  1.2612  0.0812  1.6074
  108OSM   C16S11127   1.167   6.219   9.437 -0.1296 -0.5235 -0.5184
  108OSM   H16S11128   1.260   6.202   9.495 -1.1871 -2.6467  0.6514
  108OSM   H16T11129   1.161   6.329   9.424  1.1699 -0.1127  1.8553
  108OSM   C17S11130   1.204   6.163   9.297  0.1253 -0.8121  0.7651
  108OSM   H17S11131   1.236   6.058   9.315 -0.6797 -1.2481 -0.2702
  108OSM   H17T11132   1.288   6.217   9.248  0.1628 -1.2674  0.3257
  108OSM   C18S11133   1.084   6.155   9.196 -0.5289 -0.0765 -0.5873
  108OSM   H18S11134   0.992   6.132   9.254 -2.2008  1.9291 -2.3044
  108OSM   H18T11135   1.102   6.093   9.106  1.1368  0.0359 -0.3695
  108OSM   H18U11136   1.063   6.259   9.163 -0.3638 -0.1593 -0.9519
  108OSM    C1F11137   1.703   6.225  10.407 -0.4295  0.1556 -0.0333
  108OSM     OF11138   1.743   6.122  10.454 -0.2260  0.1274  0.1236
  108OSM    C2F11139   1.748   6.272  10.276 -0.4144  0.1530  0.4312
  108OSM    H2F11140   1.812   6.363  10.276 -0.1483 -0.0282 -0.2874
  108OSM    H2G11141   1.662   6.285  10.207 -0.3228 -1.4688 -0.0251
  108OSM    C3F11142   1.832   6.158  10.196  0.4412  0.2535 -0.1805
  108OSM    H3F11143   1.769   6.068  10.179  0.3684 -0.5976  3.6567
  108OSM    H3G11144   1.922   6.135  10.256  0.0166  0.5403  0.5914
  108OSM    C4F11145   1.879   6.198  10.050  0.5683 -0.4461  0.2924
  108OSM    H4F11146   1.940   6.113  10.011  1.0935  0.6735 -1.4566
  108OSM    H4G11147   1.958   6.276  10.057  1.8196 -1.7358  1.1048
  108OSM    C5F11148   1.768   6.234   9.965  0.1598  0.4147 -0.0565
  108OSM    H5F11149   1.715   6.319  10.012 -0.6781 -0.2480  0.2195
  108OSM    H5G11150   1.695   6.150   9.959 -0.8116  1.3477 -2.2805
  108OSM    C6F11151   1.812   6.285   9.829 -0.4227 -0.6125  0.1915
  108OSM    H6F11152   1.898   6.353   9.846 -0.5460 -0.4938  0.3443
  108OSM    H6G11153   1.730   6.357   9.808 -0.6949 -0.8202  0.5233
  108OSM    C7F11154   1.829   6.186   9.720 -1.0466 -0.4378  0.6702
  108OSM    H7F11155   1.762   6.099   9.735 -0.1293 -1.2084  0.3669
  108OSM    H7G11156   1.933   6.148   9.721  0.4329  3.1415 -0.9032
  108OSM    C8F11157   1.812   6.243   9.579  0.8475  0.1991  0.1638
  108OSM    H8F11158   1.863   6.173   9.509 -2.2175  0.0621 -2.1323
  108OSM    H8G11159   1.863   6.340   9.564  0.3885  0.1012 -2.5146
  108OSM    C9F11160   1.667   6.258   9.543  0.0475  0.2206  0.6545
  108OSM    H9F11161   1.607   6.340   9.584 -1.9313 -1.5231  1.4312
  108OSM   C10F11162   1.608   6.184   9.440  0.1192  0.1882 -0.4002
  108OSM   H10F11163   1.499   6.193   9.428 -0.0772 -1.4038 -0.1041
  108OSM   C11F11164   1.668   6.061   9.369 -0.3525  0.3419  0.3369
  108OSM   H11F11165   1.597   5.976   9.358 -1.2498  1.3889 -4.0914
  108OSM   H11G11166   1.750   6.015   9.428 -0.5403 -1.0467 -0.4388
  108OSM   C12F11167   1.710   6.102   9.226 -1.2107  0.0314  0.1968
  108OSM   H12F11168   1.765   6.016   9.183  1.9712  1.2334  1.5872
  108OSM   H12G11169   1.782   6.186   9.226 -0.0192 -0.9493 -0.9493
  108OSM   C13F11170   1.593   6.139   9.130 -0.3258  0.7674  0.0086
  108OSM   H13F11171   1.537   6.223   9.178 -1.3913 -0.4638  0.9945
  108OSM   H13G11172   1.526   6.052   9.116 -0.6312  1.3888 -3.1739
  108OSM   C14F11173   1.626   6.167   8.984 -0.2323 -0.3740  0.0453
  108OSM   H14F11174   1.653   6.065   8.948  1.6775  0.1582 -0.1125
  108OSM   H14G11175   1.711   6.238   8.982  0.3442 -1.0590 -0.0602
  108OSM   C15F11176   1.500   6.230   8.912 -0.7134 -1.3233  0.0076
  108OSM   H15F11177   1.529   6.262   8.809  0.1245  2.2172  1.1994
  108OSM   H15G11178   1.495   6.326   8.968 -0.4369 -1.3880  0.1416
  108OSM   C16F11179   1.370   6.160   8.927 -0.5673 -0.5378 -0.7684
  108OSM   H16F11180   1.337   6.167   9.032  0.4237  2.5357 -0.5857
  108OSM   H16G11181   1.380   6.052   8.902  0.5546 -0.0975 -2.4256
  108OSM   C17F11182   1.270   6.201   8.827  0.2375 -0.1238  0.2843
  108OSM   H17F11183   1.192   6.127   8.856  1.5366 -1.1710  1.2531
  108OSM   H17G11184   1.309   6.182   8.725 -0.2803  0.4878 -0.0321
  108OSM   C18F11185   1.231   6.347   8.847 -0.7291 -0.0031  0.7457
  108OSM   H18F11186   1.328   6.399   8.832 -0.0890 -1.5292 -0.6617
  108OSM   H18G11187   1.195   6.380   8.947 -0.1920 -2.7851  1.9582
  108OSM   H18H11188   1.162   6.379   8.767  0.0781 -0.6917 -0.2490
  109OSM      N11189   2.815   1.667  10.922  0.0186  0.2795  0.2400
  109OSM    C1511190   2.757   1.641  10.784  0.2741 -0.0401 -0.6844
  109OSM   H15A11191   2.796   1.717  10.718  3.1098  0.4736  1.3822
  109OSM   H15B11192   2.651   1.660  10.781  0.6288  2.2260 -4.2925
  109OSM   H15C11193   2.776   1.543  10.742 -1.2720  0.1256 -1.8465
  109OSM    C1411194   2.957   1.695  10.906  0.0619 -0.2443 -0.0769
  109OSM   H14A11195   2.966   1.797  10.874  1.7016 -1.2753 -3.3103
  109OSM   H14B11196   3.000   1.623  10.839  1.5448  1.9965 -1.6644
  109OSM   H14C11197   3.005   1.679  11.002  1.7258 -1.6162 -1.0815
  109OSM    C1311198   2.758   1.794  10.969  0.0056  0.1773  0.0161
  109OSM   H13A11199   2.775   1.877  10.902 -0.9789  1.9798  1.8944
  109OSM   H13B11200   2.820   1.825  11.051  1.7367 -0.4734 -0.9937
  109OSM   H13C11201   2.653   1.779  10.992 -0.1556  1.4696  0.1917
  109OSM    C1211202   2.798   1.548  11.014  0.9087  0.3906  0.5040
  109OSM   H12A11203   2.694   1.518  11.011  1.1974 -0.5843 -2.2867
  109OSM   H12B11204   2.834   1.570  11.114  1.8223 -0.6894  0.4316
  109OSM    C1111205   2.877   1.417  10.972  0.4955  0.4100  0.5661
  109OSM   H11A11206   2.842   1.341  11.046 -1.9088 -1.3903 -2.2034
  109OSM   H11B11207   2.984   1.448  10.976  0.4102  1.1423 -1.4593
  109OSM      P11208   2.912   1.251  10.780 -0.1833  0.1539 -0.2158
  109OSM    O1311209   3.043   1.297  10.737 -0.7354  0.4140  0.6499
  109OSM    O1411210   2.904   1.127  10.862 -0.1626 -0.4219 -0.1428
  109OSM    O1111211   2.823   1.223  10.653  0.2227 -0.6294 -0.2923
  109OSM    O1211212   2.831   1.370  10.846  0.7067 -0.3439 -0.1677
  109OSM    C1S11213   2.811   1.318  10.546 -0.3251  0.6784 -0.6258
  109OSM    H1S11214   2.913   1.342  10.509  1.0264  1.2954  3.0546
  109OSM    H1T11215   2.760   1.414  10.571 -0.9839  0.0479  0.5473
  109OSM     NF11216   2.756   1.337  10.305  0.0140 -0.6875  0.3252
  109OSM    HNF11217   2.697   1.404  10.260 -2.2688 -1.3757  2.0820
  109OSM    C2S11218   2.717   1.273  10.427 -0.8530  0.7008  0.4285
  109OSM    H2S11219   2.744   1.165  10.417 -1.0812  0.5898  0.9782
  109OSM    C3S11220   2.570   1.288  10.481 -0.2924 -0.3435  0.4980
  109OSM    H3S11221   2.550   1.397  10.494  0.2990  0.1124 -1.9527
  109OSM     O311222   2.537   1.225  10.607  0.3857 -0.4499  0.0919
  109OSM    HO311223   2.625   1.200  10.638  0.6978  0.1854 -0.2503
  109OSM    C4S11224   2.482   1.236  10.369  0.1515 -0.3565 -0.4439
  109OSM    H4S11225   2.447   1.320  10.307 -0.2645  1.9456  2.6789
  109OSM    C5S11226   2.429   1.116  10.342  0.3446 -0.4089  0.0349
  109OSM    H5S11227   2.455   1.036  10.412  0.2602 -2.3228 -2.0229
  109OSM    C6S11228   2.335   1.096  10.228 -0.3729  0.0293 -0.2598
  109OSM    H6S11229   2.230   1.114  10.258 -0.4189  0.3710 -0.6166
  109OSM    H6T11230   2.346   0.989  10.200 -1.6245  0.0733 -0.9804
  109OSM    C7S11231   2.351   1.180  10.100  0.2191 -0.5290  0.5593
  109OSM    H7S11232   2.460   1.194  10.083 -0.0369 -0.7102 -1.4647
  109OSM    H7T11233   2.308   1.279  10.129  0.7079  0.7561 -2.6909
  109OSM    C8S11234   2.265   1.130   9.985 -0.4699  0.3082 -0.9137
  109OSM    H8S11235   2.165   1.099  10.023  0.1195 -1.5324 -0.7692
  109OSM    H8T11236   2.299   1.037   9.934  0.4346 -0.3512  0.7807
  109OSM    C9S11237   2.246   1.242   9.878  0.1534 -0.1866  0.3346
  109OSM    H9S11238   2.237   1.341   9.928 -0.6925 -0.5873  1.0059
  109OSM    H9T11239   2.144   1.231   9.835  0.6535  0.2136 -1.0003
  109OSM   C10S11240   2.351   1.237   9.762  0.3801 -0.2196  0.3181
  109OSM   H10S11241   2.396   1.136   9.756 -2.4425 -1.5536  0.1258
  109OSM   H10T11242   2.430   1.310   9.791  0.2586  0.3669 -0.7589
  109OSM   C11S11243   2.285   1.278   9.632  0.4704 -0.1292 -0.2054
  109OSM   H11S11244   2.245   1.382   9.635 -2.6841 -1.2256 -0.7270
  109OSM   H11T11245   2.203   1.205   9.620  1.5903 -1.2347 -1.5628
  109OSM   C12S11246   2.386   1.269   9.517 -0.2628  0.0017  0.1036
  109OSM   H12S11247   2.436   1.171   9.532  0.8915  0.5672  0.1114
  109OSM   H12T11248   2.464   1.347   9.529  0.6620 -1.1953  2.5495
  109OSM   C13S11249   2.328   1.255   9.371 -0.3948 -0.1134 -0.4104
  109OSM   H13S11250   2.246   1.330   9.364  1.5637  2.1808 -0.0957
  109OSM   H13T11251   2.283   1.153   9.371  0.5944 -0.5608 -0.4762
  109OSM   C14S11252   2.438   1.275   9.267 -0.1046  0.9483  0.6315
  109OSM   H14S11253   2.538   1.234   9.294 -0.4142 -0.5831 -0.4216
  109OSM   H14T11254   2.446   1.385   9.253  0.9486  0.6470 -1.7141
  109OSM   C15S11255   2.402   1.220   9.129 -0.1490  0.2899  0.2080
  109OSM   H15S11256   2.304   1.258   9.094 -1.7627 -3.1840  0.4724
  109OSM   H15T11257   2.382   1.111   9.144 -0.2156  0.3581  0.6466
  109OSM   C16S11258   2.501   1.261   9.015 -0.2240  0.2757  0.2924
  109OSM   H16S11259   2.600   1.220   9.044 -0.9572 -2.0840 -0.3105
  109OSM   H16T11260   2.519   1.368   8.993 -1.0511  0.5371  0.8177
  109OSM   C17S11261   2.468   1.197   8.875 -0.3151 -0.3390  0.3944
  109OSM   H17S11262   2.450   1.088   8.885 -2.2636 -0.1057 -0.1414
  109OSM   H17T11263   2.558   1.211   8.811 -1.5781 -0.5795 -1.5108
  109OSM   C18S11264   2.348   1.237   8.801  0.6446 -0.4333  0.7600
  109OSM   H18S11265   2.340   1.347   8.788  1.4596 -0.5931 -1.4667
  109OSM   H18T11266   2.257   1.214   8.860 -0.5802 -1.3314 -1.3740
  109OSM   H18U11267   2.348   1.178   8.707 -1.2580 -0.2329  0.5991
  109OSM    C1F11268   2.880   1.324  10.254  0.1880  0.4261 -0.4862
  109OSM     OF11269   2.947   1.233  10.285  0.5567 -0.0904 -0.3560
  109OSM    C2F11270   2.912   1.425  10.147 -0.2325  0.1767 -0.2423
  109OSM    H2F11271   3.020   1.451  10.150 -0.0917 -0.3753 -0.3499
  109OSM    H2G11272   2.854   1.520  10.151  0.5667  0.9162 -3.3174
  109OSM    C3F11273   2.888   1.371  10.007  0.2315  0.9756  0.4494
  109OSM    H3F11274   2.787   1.325   9.999 -0.2856  2.2797 -1.2578
  109OSM    H3G11275   2.958   1.289   9.981 -0.9285 -0.5187  1.8342
  109OSM    C4F11276   2.888   1.474   9.894  0.6558 -0.1471  0.3499
  109OSM    H4F11277   2.987   1.523   9.879  1.7110 -2.2193  0.2453
  109OSM    H4G11278   2.809   1.550   9.913  1.1036  0.6887 -1.0255
  109OSM    C5F11279   2.844   1.413   9.763  0.1677 -0.1408 -0.1348
  109OSM    H5F11280   2.779   1.325   9.777  0.2453 -0.3723 -1.1946
  109OSM    H5G11281   2.938   1.388   9.708 -0.4956 -0.1103 -1.3112
  109OSM    C6F11282   2.770   1.518   9.678  0.4169 -0.7422  1.0326
  109OSM    H6F11283   2.798   1.620   9.709 -1.3690  0.3358 -0.6117
  109OSM    H6G11284   2.663   1.499   9.701  0.7533 -2.3186  1.4155
  109OSM    C7F11285   2.790   1.507   9.526 -0.5719 -0.8068  0.0325
  109OSM    H7F11286   2.751   1.407   9.497 -0.3419 -1.1932  1.0050
  109OSM    H7G11287   2.900   1.504   9.510 -0.6259 -1.1555 -0.2861
  109OSM    C8F11288   2.733   1.616   9.444 -0.0521  0.3214 -0.1847
  109OSM    H8F11289   2.784   1.626   9.345  0.1142 -0.8569 -0.2228
  109OSM    H8G11290   2.761   1.711   9.494  0.4398 -0.9264  2.0047
  109OSM    C9F11291   2.584   1.614   9.438  0.4482  0.3030 -0.1707
  109OSM    H9F11292   2.544   1.550   9.518 -1.9707  0.7470 -0.9564
  109OSM   C10F11293   2.503   1.655   9.338  0.4194  0.4216 -0.3836
  109OSM   H10F11294   2.393   1.652   9.351  0.4786  0.7954  0.2750
  109OSM   C11F11295   2.548   1.726   9.213 -0.0811 -0.4509  0.1808
  109OSM   H11F11296   2.648   1.684   9.191 -0.6856 -1.4858 -0.7038
  109OSM   H11G11297   2.551   1.836   9.229 -0.1551 -0.4530  0.2109
  109OSM   C12F11298   2.450   1.700   9.098 -0.7206  0.0003  0.5742
  109OSM   H12F11299   2.358   1.759   9.117 -1.5642 -0.8983 -0.5350
  109OSM   H12G11300   2.428   1.591   9.096 -0.9789  0.0581 -0.3505
  109OSM   C13F11301   2.499   1.740   8.954 -0.3466  0.1926 -0.1048
  109OSM   H13F11302   2.429   1.707   8.874 -0.8388  0.3332  0.2667
  109OSM   H13G11303   2.592   1.679   8.956 -2.4668 -3.3184  0.3694
  109OSM   C14F11304   2.514   1.889   8.935  0.7147 -0.1471 -0.6189
  109OSM   H14F11305   2.590   1.931   9.004  1.3255  0.3722 -1.5780
  109OSM   H14G11306   2.419   1.944   8.956  1.1098  1.4403 -2.5687
  109OSM   C15F11307   2.557   1.934   8.795 -0.1768 -0.7131  0.0558
  109OSM   H15F11308   2.481   1.908   8.719 -2.1727 -1.4855  2.1794
  109OSM   H15G11309   2.643   1.865   8.778 -0.0999 -1.2530  2.2904
  109OSM   C16F11310   2.599   2.076   8.782 -0.7699  0.0712 -0.0253
  109OSM   H16F11311   2.665   2.099   8.868 -1.1251 -0.3513  0.3654
  109OSM   H16G11312   2.511   2.142   8.794 -1.1478 -0.3751 -0.2984
  109OSM   C17F11313   2.665   2.105   8.649 -0.3148 -0.4781 -0.3808
  109OSM   H17F11314   2.728   2.023   8.608  1.1740  0.0882  0.6629
  109OSM   H17G11315   2.727   2.194   8.672  1.3487 -1.2219 -1.7016
  109OSM   C18F11316   2.566   2.140   8.537 -0.3341  0.5918  0.1067
  109OSM   H18F11317   2.470   2.090   8.560  0.4472 -0.2786  1.6953
  109OSM   H18G11318   2.592   2.112   8.433  0.7066  0.8258  0.2853
  109OSM   H18H11319   2.549   2.250   8.536  2.7559  1.2352  1.9864
  110OSM      N11320   3.990   0.595  10.983 -0.3565 -0.2845 -0.3469
  110OSM    C1511321   4.031   0.594  11.125  0.2306 -0.2199 -0.3178
  110OSM   H15A11322   4.048   0.493  11.158  0.3418  0.2379  1.0620
  110OSM   H15B11323   3.958   0.632  11.194  0.9040  0.7518 -0.1245
  110OSM   H15C11324   4.130   0.636  11.127  0.7603 -1.4474  0.1029
  110OSM    C1411325   3.945   0.732  10.946  0.5449 -0.5246 -0.1011
  110OSM   H14A11326   4.019   0.811  10.946 -0.1764  0.1764 -1.0054
  110OSM   H14B11327   3.865   0.756  11.014  0.6694  0.0541 -0.1527
  110OSM   H14C11328   3.909   0.723  10.845  1.0364  0.4286 -0.3800
  110OSM    C1311329   4.114   0.554  10.904 -0.3879 -0.2731  0.4857
  110OSM   H13A11330   4.153   0.458  10.935  0.0974 -0.7362 -1.3753
  110OSM   H13B11331   4.193   0.626  10.918  0.5249 -1.1261 -0.0872
  110OSM   H13C11332   4.106   0.548  10.796  1.1074 -0.2530  0.3476
  110OSM    C1211333   3.892   0.479  10.959 -0.5867  0.5623 -0.1789
  110OSM   H12A11334   3.807   0.497  11.023 -0.9177  0.2524 -0.5263
  110OSM   H12B11335   3.930   0.388  11.003  3.1310  1.3032 -1.4845
  110OSM    C1111336   3.856   0.458  10.810  0.5542  0.4467  0.5529
  110OSM   H11A11337   3.948   0.440  10.750  1.6333  1.7780  1.7328
  110OSM   H11B11338   3.809   0.553  10.778  0.6594 -0.1740 -1.6205
  110OSM      P11339   3.798   0.204  10.829 -0.1491 -0.1868  0.0727
  110OSM    O1311340   3.864   0.181  10.965  0.1884 -0.5473  0.2289
  110OSM    O1411341   3.679   0.125  10.803  0.2972 -0.1262 -0.0611
  110OSM    O1111342   3.899   0.175  10.713  0.8559 -0.5226 -0.0777
  110OSM    O1211343   3.757   0.358  10.800 -0.0897  0.1398  0.6024
  110OSM    C1S11344   3.855   0.137  10.582 -0.4225  0.1509 -0.1156
  110OSM    H1S11345   3.759   0.185  10.556 -0.8964 -1.3028 -1.1551
  110OSM    H1T11346   3.839   0.027  10.575 -0.1699  0.2013 -2.2892
  110OSM     NF11347   3.938   0.119  10.345  0.4620 -0.3415 -0.0259
  110OSM    HNF11348   4.014   0.061  10.316  0.0526 -0.6380 -0.5144
  110OSM    C2S11349   3.960   0.183  10.474  0.2952 -0.3130 -0.2259
  110OSM    H2S11350   3.935   0.291  10.469 -1.6973 -0.6537  1.4006
  110OSM    C3S11351   4.109   0.169  10.517 -0.9035 -0.3899  0.2445
  110OSM    H3S11352   4.129   0.063  10.542  0.6728 -0.7201 -2.1454
  110OSM     O311353   4.138   0.254  10.624  0.4344 -0.3869 -0.3102
  110OSM    HO311354   4.056   0.260  10.673  0.2087  2.0755 -0.8484
  110OSM    C4S11355   4.216   0.208  10.413  0.4796  0.4009  0.1650
  110OSM    H4S11356   4.239   0.315  10.406 -1.9164  1.3555  3.6204
  110OSM    C5S11357   4.292   0.127  10.339  0.4746  0.0586  0.3064
  110OSM    H5S11358   4.258   0.022  10.339 -0.5978  0.3932  0.0285
  110OSM    C6S11359   4.393   0.178  10.242 -0.0377 -0.2223  0.4485
  110OSM    H6S11360   4.471   0.099  10.234 -0.5901 -0.7140 -0.1285
  110OSM    H6T11361   4.438   0.272  10.280 -0.3251  1.5363 -3.1944
  110OSM    C7S11362   4.322   0.212  10.113  0.8118  0.2219 -0.3498
  110OSM    H7S11363   4.244   0.289  10.126  0.4600 -0.3991  1.7401
  110OSM    H7T11364   4.245   0.135  10.089  1.5097 -0.3681 -0.7640
  110OSM    C8S11365   4.408   0.225   9.984 -1.0006 -0.7047 -0.3907
  110OSM    H8S11366   4.471   0.136   9.962  0.1580 -0.2052  0.7251
  110OSM    H8T11367   4.486   0.301  10.009 -0.1054 -2.5596  3.0973
  110OSM    C9S11368   4.316   0.252   9.867  0.1693  0.3385  1.2111
  110OSM    H9S11369   4.279   0.353   9.893  0.8516  0.4977  1.5961
  110OSM    H9T11370   4.231   0.180   9.865  2.0026 -1.9690  1.0054
  110OSM   C10S11371   4.386   0.245   9.731 -0.2838 -1.0180  1.1127
  110OSM   H10S11372   4.446   0.152   9.734  0.6891 -0.3963  1.4008
  110OSM   H10T11373   4.446   0.337   9.713 -2.2619 -0.0848 -1.4346
  110OSM   C11S11374   4.294   0.240   9.606  0.5271 -0.6244  0.7236
  110OSM   H11S11375   4.237   0.335   9.598  1.1998 -0.2853 -0.2386
  110OSM   H11T11376   4.225   0.154   9.619 -0.4005 -0.0539 -0.2382
  110OSM   C12S11377   4.360   0.246   9.469 -0.7101  0.1518 -0.5717
  110OSM   H12S11378   4.449   0.180   9.470  0.5080  1.7073  1.8476
  110OSM   H12T11379   4.403   0.347   9.453 -0.2177 -0.0716 -0.6593
  110OSM   C13S11380   4.271   0.204   9.355  0.1650  0.5572  0.4354
  110OSM   H13S11381   4.188   0.277   9.342  1.0517  1.2783 -1.6098
  110OSM   H13T11382   4.221   0.107   9.379  0.3275  0.7667  1.6588
  110OSM   C14S11383   4.349   0.190   9.225  0.3247 -0.1841 -0.4436
  110OSM   H14S11384   4.434   0.120   9.234  0.3225 -0.0769  0.6273
  110OSM   H14T11385   4.387   0.292   9.204 -0.6435  0.2891  0.0020
  110OSM   C15S11386   4.259   0.153   9.103 -0.2818 -0.1431  0.4051
  110OSM   H15S11387   4.165   0.212   9.091 -1.5640 -2.2310 -0.4300
  110OSM   H15T11388   4.220   0.052   9.128  0.1271  0.1416  2.3754
  110OSM   C16S11389   4.348   0.158   8.983  0.2629 -0.0323  0.9436
  110OSM   H16S11390   4.431   0.088   9.007 -0.0757 -0.8734 -0.2288
  110OSM   H16T11391   4.383   0.263   8.973 -0.6369  0.4069  2.2096
  110OSM   C17S11392   4.276   0.118   8.853 -0.4330  0.3790 -0.0228
  110OSM   H17S11393   4.184   0.180   8.845 -2.2824 -1.7426  2.7344
  110OSM   H17T11394   4.224   0.021   8.862 -0.4202  0.5401  2.4020
  110OSM   C18S11395   4.356   0.131   8.733 -0.3520 -0.4324 -0.0021
  110OSM   H18S11396   4.361   0.237   8.699 -1.7087 -0.3295  0.0620
  110OSM   H18T11397   4.307   0.085   8.645  0.5266 -1.3051 -0.0445
  110OSM   H18U11398   4.458   0.089   8.748 -0.4449  0.0697  2.6397
  110OSM    C1F11399   3.827   0.137  10.271  0.1515  0.8983  0.6001
  110OSM     OF11400   3.726   0.205  10.314 -0.7226  0.2445 -0.5684
  110OSM    C2F11401   3.831   0.075  10.131 -0.6523 -0.1293 -0.0026
  110OSM    H2F11402   3.822  -0.036  10.131 -0.8009 -0.1201  0.4289
  110OSM    H2G11403   3.928   0.104  10.085 -0.3256 -1.1792 -0.0171
  110OSM    C3F11404   3.728   0.137  10.034 -0.4516  0.0152  0.4512
  110OSM    H3F11405   3.750   0.245  10.023  1.4864 -0.4773 -1.1422
  110OSM    H3G11406   3.633   0.135  10.091  1.1119 -1.1298  3.1949
  110OSM    C4F11407   3.741   0.063   9.898  0.7927  0.2159  0.0277
  110OSM    H4F11408   3.640   0.084   9.857  0.2768  1.1138  1.6329
  110OSM    H4G11409   3.742  -0.048   9.910  0.9533 -0.1684 -2.9792
  110OSM    C5F11410   3.853   0.122   9.821 -0.9189 -0.2043 -0.5583
  110OSM    H5F11411   3.940   0.097   9.886 -1.9117 -0.2664  0.7769
  110OSM    H5G11412   3.841   0.232   9.827  4.4925  0.5825  3.4683
  110OSM    C6F11413   3.860   0.071   9.675  0.4550 -0.6588  0.3347
  110OSM    H6F11414   3.837  -0.037   9.665 -0.4006 -0.3906 -0.8329
  110OSM    H6G11415   3.965   0.096   9.651  0.5602 -0.1415  1.2750
  110OSM    C7F11416   3.759   0.135   9.585 -0.4205 -0.5609  0.1781
  110OSM    H7F11417   3.789   0.238   9.555  1.9669 -1.6523 -1.4360
  110OSM    H7G11418   3.668   0.148   9.649 -1.2741 -0.8441 -0.9380
  110OSM    C8F11419   3.731   0.053   9.454 -0.1367 -0.2070 -0.4471
  110OSM    H8F11420   3.648   0.108   9.405 -0.1140  1.2227  1.0306
  110OSM    H8G11421   3.703  -0.054   9.465  1.2937 -0.4468  1.2671
  110OSM    C9F11422   3.860   0.053   9.366  0.3531 -0.5230 -0.2082
  110OSM    H9F11423   3.956   0.035   9.416  0.9768 -0.9039 -1.4774
  110OSM   C10F11424   3.863   0.061   9.235 -0.0722 -0.1642 -0.3674
  110OSM   H10F11425   3.962   0.060   9.187 -0.1150  0.0997 -0.4602
  110OSM   C11F11426   3.743   0.061   9.149 -0.3800  0.0909  0.2860
  110OSM   H11F11427   3.694   0.156   9.179  0.3061 -0.5077  3.6948
  110OSM   H11G11428   3.673  -0.024   9.166 -0.7824  0.9789  4.0834
  110OSM   C12F11429   3.757   0.068   8.993  0.3197 -0.1521  0.4034
  110OSM   H12F11430   3.656   0.067   8.948 -0.2477 -1.0020  1.6528
  110OSM   H12G11431   3.796  -0.030   8.956  0.5070  0.5801 -1.4209
  110OSM   C13F11432   3.850   0.175   8.937 -0.4977  0.1864 -0.0277
  110OSM   H13F11433   3.943   0.172   8.998 -1.0692 -1.5510  0.8391
  110OSM   H13G11434   3.800   0.274   8.945  0.6083  0.8192 -0.8081
  110OSM   C14F11435   3.887   0.152   8.794 -0.3961 -1.1471 -0.7700
  110OSM   H14F11436   3.960   0.069   8.782  0.5750 -0.0858 -2.7857
  110OSM   H14G11437   3.947   0.243   8.770 -0.7459 -0.9835 -1.0278
  110OSM   C15F11438   3.770   0.132   8.702 -0.0024  0.6709  0.3444
  110OSM   H15F11439   3.681   0.191   8.732  0.0520 -0.1430  2.2388
  110OSM   H15G11440   3.741   0.025   8.709 -1.2234  0.9420 -0.3581
  110OSM   C16F11441   3.795   0.157   8.548 -0.7311  0.1205 -0.6396
  110OSM   H16F11442   3.888   0.098   8.535 -1.2788 -0.3688 -2.9134
  110OSM   H16G11443   3.826   0.262   8.531 -0.4679 -0.0464 -1.2255
  110OSM   C17F11444   3.688   0.095   8.455  0.4219 -0.7299  0.2031
  110OSM   H17F11445   3.662  -0.010   8.479  1.8388 -1.0261  0.5501
  110OSM   H17G11446   3.724   0.102   8.350 -0.2731 -1.6697 -0.1138
  110OSM   C18F11447   3.555   0.178   8.463  0.3069 -0.1625 -0.6705
  110OSM   H18F11448   3.522   0.182   8.569  0.9217 -2.0504 -0.3598
  110OSM   H18G11449   3.473   0.121   8.414 -0.8371 -0.5860  1.5706
  110OSM   H18H11450   3.563   0.280   8.420  1.1943 -1.4248 -3.7669
  111OSM      N11451   3.889   4.455  11.070  0.5570  0.4651  0.0261
  111OSM    C1511452   3.981   4.361  11.011  0.4902 -0.0635 -0.1717
  111OSM   H15A11453   3.936   4.262  11.009  1.7469 -0.6726  0.4066
  111OSM   H15B11454   4.069   4.359  11.074  1.8006  2.0209 -1.8068
  111OSM   H15C11455   4.022   4.389  10.915  0.5957 -1.4328 -0.5448
  111OSM    C1411456   3.894   4.416  11.219 -0.9611  0.4914  0.7854
  111OSM   H14A11457   3.855   4.319  11.245  0.2832 -0.4895 -0.8593
  111OSM   H14B11458   3.842   4.490  11.277 -1.3873 -0.0359  1.0842
  111OSM   H14C11459   3.997   4.415  11.254 -0.2040  1.6784 -1.2578
  111OSM    C1311460   3.938   4.598  11.059  0.0329  0.3933 -0.4968
  111OSM   H13A11461   3.926   4.638  10.959  0.5641  0.0453 -0.7063
  111OSM   H13B11462   4.041   4.600  11.092 -0.6969 -0.3112  2.0226
  111OSM   H13C11463   3.876   4.663  11.119  0.0064 -0.3472  0.3057
  111OSM    C1211464   3.744   4.441  11.016  0.3463  0.6190 -0.6857
  111OSM   H12A11465   3.683   4.507  11.076 -1.3510 -1.6278  0.1903
  111OSM   H12B11466   3.710   4.341  11.037 -2.7124  1.7900  0.3754
  111OSM    C1111467   3.714   4.466  10.862  0.2424  0.0641 -0.0340
  111OSM   H11A11468   3.610   4.434  10.839  0.9526 -2.1489 -0.4113
  111OSM   H11B11469   3.774   4.389  10.809 -1.2897 -1.5590  0.4644
  111OSM      P11470   3.628   4.713  10.841  0.3040 -0.0238  0.3073
  111OSM    O1311471   3.499   4.665  10.786  0.1149  0.3157  0.1014
  111OSM    O1411472   3.634   4.762  10.980 -0.0449 -0.0216  0.1102
  111OSM    O1111473   3.663   4.836  10.754 -0.0645  0.0723  0.6788
  111OSM    O1211474   3.742   4.601  10.821 -0.8149 -0.2004 -0.5578
  111OSM    C1S11475   3.766   4.842  10.652 -0.3964 -0.1463 -0.6689
  111OSM    H1S11476   3.855   4.785  10.687  0.1064  0.9982 -0.0011
  111OSM    H1T11477   3.806   4.945  10.642 -0.8922  0.4083  2.1548
  111OSM     NF11478   3.816   4.819  10.413 -0.4378 -0.1876 -0.3314
  111OSM    HNF11479   3.795   4.904  10.366  1.0474  1.2869  1.5019
  111OSM    C2S11480   3.716   4.797  10.512  0.5867  0.0871 -0.0868
  111OSM    H2S11481   3.689   4.691  10.530 -0.5569  0.4338  0.2826
  111OSM    C3S11482   3.583   4.871  10.485  0.5194  0.3315 -0.2545
  111OSM    H3S11483   3.589   4.980  10.465 -0.7869  0.4294 -0.1915
  111OSM     O311484   3.474   4.845  10.577 -0.1241 -0.3073  0.1305
  111OSM    HO311485   3.526   4.809  10.649  1.1932  0.9403 -0.1635
  111OSM    C4S11486   3.516   4.816  10.362 -0.1340 -0.3174  0.6723
  111OSM    H4S11487   3.461   4.722  10.374 -1.2312  0.5143  2.5316
  111OSM    C5S11488   3.502   4.884  10.246  0.4730  0.1060  0.4295
  111OSM    H5S11489   3.533   4.989  10.247 -0.5266  0.4121  1.3895
  111OSM    C6S11490   3.438   4.844  10.117  0.5208  0.1651 -0.7254
  111OSM    H6S11491   3.393   4.742  10.128 -0.3754  0.7175  1.1762
  111OSM    H6T11492   3.508   4.840  10.032  1.6417  3.7745 -0.1386
  111OSM    C7S11493   3.315   4.929  10.072  0.7138  0.2994 -0.4123
  111OSM    H7S11494   3.350   5.024  10.026 -0.8052  0.2542 -1.8023
  111OSM    H7T11495   3.258   4.960  10.162 -0.4008 -1.7253 -0.3616
  111OSM    C8S11496   3.224   4.853   9.970  0.3917  0.0884  0.7354
  111OSM    H8S11497   3.124   4.901   9.966 -0.2574 -1.1741  1.2170
  111OSM    H8T11498   3.210   4.747   9.998  0.6151  0.0255  0.6120
  111OSM    C9S11499   3.266   4.859   9.820  0.5492 -0.5849  0.3178
  111OSM    H9S11500   3.372   4.826   9.814  0.0097 -2.3806  0.0462
  111OSM    H9T11501   3.253   4.964   9.786  3.4881 -0.0786  0.4403
  111OSM   C10S11502   3.186   4.763   9.730  0.0075 -0.2825 -0.1395
  111OSM   H10S11503   3.080   4.791   9.749 -0.1656 -2.0749  1.9620
  111OSM   H10T11504   3.194   4.659   9.766  1.1812 -0.8689 -1.9454
  111OSM   C11S11505   3.232   4.769   9.583 -0.4077  0.3583 -0.6950
  111OSM   H11S11506   3.329   4.717   9.573  0.0708  1.0644  0.0784
  111OSM   H11T11507   3.241   4.873   9.546 -0.1272 -0.4640 -3.0800
  111OSM   C12S11508   3.136   4.705   9.487  0.0564  0.4520  0.2336
  111OSM   H12S11509   3.035   4.752   9.489  0.8637  2.2848 -0.6139
  111OSM   H12T11510   3.115   4.598   9.511 -1.0262  0.1025 -1.9983
  111OSM   C13S11511   3.204   4.715   9.351  0.2747 -0.1397  0.1104
  111OSM   H13S11512   3.311   4.685   9.349  0.9001  1.9559 -1.8041
  111OSM   H13T11513   3.209   4.824   9.332  0.7417 -0.1578  0.1214
  111OSM   C14S11514   3.139   4.644   9.234  0.9038  0.3418 -0.1127
  111OSM   H14S11515   3.040   4.692   9.218  0.2645 -0.9707 -0.1927
  111OSM   H14T11516   3.134   4.536   9.258  1.3767  0.0371 -1.3206
  111OSM   C15S11517   3.228   4.648   9.109  0.0384  0.2779 -0.5246
  111OSM   H15S11518   3.312   4.580   9.133 -0.1214  0.5618  0.9378
  111OSM   H15T11519   3.284   4.744   9.104  2.6400 -1.1287 -0.1072
  111OSM   C16S11520   3.143   4.614   8.988 -0.4469  0.5822  0.1598
  111OSM   H16S11521   3.192   4.611   8.889  2.9312  1.6935  1.6176
  111OSM   H16T11522   3.056   4.683   8.983 -0.1405  0.8924 -1.2464
  111OSM   C17S11523   3.067   4.485   8.998 -0.6375 -0.3276  0.4304
  111OSM   H17S11524   2.996   4.484   8.913  1.1443  0.2346 -1.1423
  111OSM   H17T11525   3.005   4.492   9.090 -2.8278 -0.5787 -0.9627
  111OSM   C18S11526   3.152   4.354   8.989 -0.7550  0.3025 -0.8562
  111OSM   H18S11527   3.212   4.338   8.897  3.4367 -0.0981  1.6774
  111OSM   H18T11528   3.086   4.266   9.004 -0.4254  0.3504  1.2962
  111OSM   H18U11529   3.234   4.357   9.064 -0.3631 -0.4214 -1.2490
  111OSM    C1F11530   3.932   4.756  10.411  0.0703 -0.0481  0.7323
  111OSM     OF11531   3.956   4.679  10.502  0.0298 -0.7553  0.4090
  111OSM    C2F11532   4.026   4.783  10.294  0.0725 -0.2947 -0.5160
  111OSM    H2F11533   4.065   4.682  10.271 -1.0437 -0.6416 -0.9424
  111OSM    H2G11534   4.113   4.847  10.320  0.0969  0.7880 -3.0060
  111OSM    C3F11535   3.959   4.847  10.176  0.0056 -0.0562 -0.3503
  111OSM    H3F11536   4.045   4.892  10.122 -0.0033 -0.2232 -0.5026
  111OSM    H3G11537   3.889   4.930  10.199 -3.4296 -2.5676 -1.0201
  111OSM    C4F11538   3.873   4.760  10.075 -1.4928  0.6249 -0.1961
  111OSM    H4F11539   3.788   4.722  10.136  0.8589 -1.5560  1.9787
  111OSM    H4G11540   3.940   4.675  10.048 -0.6985  1.3569 -0.5923
  111OSM    C5F11541   3.831   4.830   9.946  0.5689 -0.1064 -0.1720
  111OSM    H5F11542   3.920   4.876   9.898 -0.1654 -0.3585 -1.8647
  111OSM    H5G11543   3.759   4.910   9.975 -0.8804 -1.5000  0.2489
  111OSM    C6F11544   3.749   4.740   9.856 -0.1377  0.0061 -0.3476
  111OSM    H6F11545   3.650   4.722   9.902  0.0916 -0.7512 -0.1357
  111OSM    H6G11546   3.797   4.641   9.845  0.1768 -0.2038  2.1877
  111OSM    C7F11547   3.716   4.797   9.715 -0.1409 -0.3835  0.0277
  111OSM    H7F11548   3.693   4.905   9.712 -0.3368 -0.4396 -0.6269
  111OSM    H7G11549   3.632   4.739   9.672  2.0400 -2.5723 -1.5556
  111OSM    C8F11550   3.840   4.775   9.620 -0.2879  0.2053  0.4877
  111OSM    H8F11551   3.927   4.823   9.669 -0.1413 -0.6933  1.1205
  111OSM    H8G11552   3.827   4.843   9.533  0.7550  1.2906  1.1496
  111OSM    C9F11553   3.866   4.630   9.584  0.0662  0.0692 -0.0061
  111OSM    H9F11554   3.797   4.586   9.511  1.4860 -2.3638  0.0020
  111OSM   C10F11555   3.963   4.551   9.622 -0.3709 -0.1479  0.5085
  111OSM   H10F11556   3.969   4.447   9.587 -0.3314 -0.1364  0.4811
  111OSM   C11F11557   4.078   4.592   9.712 -0.6056  0.1757 -0.4570
  111OSM   H11F11558   4.075   4.688   9.768  0.5288 -0.4937  0.8300
  111OSM   H11G11559   4.182   4.603   9.675 -0.5824  0.1751 -0.3940
  111OSM   C12F11560   4.072   4.496   9.833 -0.1133  0.2590  0.6225
  111OSM   H12F11561   4.068   4.390   9.801  0.7219  0.8281 -1.5290
  111OSM   H12G11562   3.974   4.521   9.879 -0.8544  1.0224 -1.2789
  111OSM   C13F11563   4.182   4.504   9.935  0.0773 -0.1281 -0.9712
  111OSM   H13F11564   4.205   4.613   9.944 -2.0216  0.2035  2.7996
  111OSM   H13G11565   4.280   4.460   9.907  1.5716  1.8503  0.7549
  111OSM   C14F11566   4.136   4.467  10.080 -0.0509  0.7002 -0.1188
  111OSM   H14F11567   4.082   4.370  10.074  0.8263  0.1870  0.0831
  111OSM   H14G11568   4.060   4.538  10.118 -1.8481 -1.3152  0.2592
  111OSM   C15F11569   4.252   4.458  10.175 -0.2728  0.1727  0.5613
  111OSM   H15F11570   4.300   4.558  10.183  0.6655 -0.3274  1.4605
  111OSM   H15G11571   4.336   4.392  10.144  1.0423  1.2672  1.6424
  111OSM   C16F11572   4.208   4.410  10.314  0.3216  0.5597  0.1522
  111OSM   H16F11573   4.186   4.302  10.308  1.3165  0.3923 -0.8384
  111OSM   H16G11574   4.122   4.474  10.343  0.2354  1.7277 -2.3901
  111OSM   C17F11575   4.316   4.433  10.418 -0.4516 -1.4841  0.2076
  111OSM   H17F11576   4.417   4.430  10.372  0.0425  2.8483  0.5824
  111OSM   H17G11577   4.307   4.365  10.505 -1.7205 -2.6926 -0.8302
  111OSM   C18F11578   4.308   4.582  10.468 -1.0540 -0.6534 -0.3705
  111OSM   H18F11579   4.226   4.615  10.535 -1.5082 -1.8652 -0.3012
  111OSM   H18G11580   4.322   4.648  10.380  0.2730  1.3967  1.2699
  111OSM   H18H11581   4.403   4.602  10.523 -0.9027 -0.5956 -0.6512
  112OSM      N11582   5.449   0.919  11.071 -0.0016  0.5460 -1.0551
  112OSM    C1511583   5.574   0.870  11.134  0.4618 -0.0984 -0.0821
  112OSM   H15A11584   5.660   0.896  11.074  1.9644 -4.6789 -0.3127
  112OSM   H15B11585   5.573   0.762  11.141  0.7199 -0.1219 -0.4066
  112OSM   H15C11586   5.596   0.911  11.231  0.0385  0.6104 -0.2789
  112OSM    C1411587   5.425   0.834  10.955  0.2512  0.6147  0.4510
  112OSM   H14A11588   5.347   0.874  10.891  1.5034  1.9281 -0.2889
  112OSM   H14B11589   5.396   0.731  10.975  0.8214  0.3616  0.0055
  112OSM   H14C11590   5.506   0.829  10.884  1.1586  0.3992  1.4720
  112OSM    C1311591   5.347   0.894  11.172  0.8987  0.9284  0.1640
  112OSM   H13A11592   5.316   0.792  11.187  0.3205  1.1940  0.8768
  112OSM   H13B11593   5.260   0.949  11.139 -1.0700 -1.6821  0.7213
  112OSM   H13C11594   5.371   0.924  11.274  0.3793  0.1654  0.5186
  112OSM    C1211595   5.459   1.059  11.028 -0.6634  0.2893  0.0577
  112OSM   H12A11596   5.480   1.118  11.116 -2.2733  0.7810  0.1496
  112OSM   H12B11597   5.360   1.085  10.994 -0.2801  0.6047 -0.8462
  112OSM    C1111598   5.562   1.100  10.925 -0.1083  0.2370 -0.4469
  112OSM   H11A11599   5.554   1.210  10.911 -1.1756  0.1799 -0.3815
  112OSM   H11B11600   5.529   1.052  10.831 -2.9189  0.5132  0.3035
  112OSM      P11601   5.774   1.151  11.068 -0.0501 -0.5427 -0.2621
  112OSM    O1311602   5.683   1.221  11.158  0.7322  0.4885 -0.0571
  112OSM    O1411603   5.870   1.063  11.126  0.0062 -0.2751 -0.3737
  112OSM    O1111604   5.850   1.261  10.982 -0.2150  0.7171  0.4667
  112OSM    O1211605   5.699   1.065  10.964 -0.0039 -0.6306  0.7582
  112OSM    C1S11606   5.950   1.231  10.886 -0.0435 -0.3138  0.1653
  112OSM    H1S11607   6.005   1.134  10.887  0.0800 -0.2432  1.3733
  112OSM    H1T11608   6.033   1.304  10.897 -2.0321  2.0570  0.4694
  112OSM     NF11609   5.980   1.208  10.646  0.3239 -0.3254  0.8556
  112OSM    HNF11610   6.031   1.279  10.598  2.1891 -1.4858  1.0370
  112OSM    C2S11611   5.886   1.244  10.751 -0.1806  0.7306  0.6708
  112OSM    H2S11612   5.805   1.168  10.749  1.1012 -0.8040  3.1153
  112OSM    C3S11613   5.817   1.384  10.716  0.5373  0.2022  0.0431
  112OSM    H3S11614   5.889   1.467  10.699 -0.8487  1.2916 -0.8337
  112OSM     O311615   5.737   1.435  10.828 -0.5346 -0.6571 -0.9250
  112OSM    HO311616   5.741   1.365  10.894 -1.1790  0.6637  0.5740
  112OSM    C4S11617   5.732   1.369  10.597 -0.3980 -0.2551  0.5024
  112OSM    H4S11618   5.789   1.386  10.504  0.8506  1.6255  1.5337
  112OSM    C5S11619   5.601   1.346  10.595  0.4300 -0.1324  0.8316
  112OSM    H5S11620   5.550   1.336  10.692 -0.6377 -1.0449  0.2095
  112OSM    C6S11621   5.527   1.332  10.466  0.7463 -0.2880  0.8429
  112OSM    H6S11622   5.416   1.337  10.474  0.6199 -0.7309 -0.4110
  112OSM    H6T11623   5.534   1.222  10.448  0.2888 -0.2724  0.5314
  112OSM    C7S11624   5.579   1.411  10.348  0.6034 -0.5441 -0.6253
  112OSM    H7S11625   5.679   1.376  10.315  0.6639 -1.7261  0.6880
  112OSM    H7T11626   5.584   1.520  10.371  1.6387 -0.6613 -0.2434
  112OSM    C8S11627   5.486   1.379  10.233 -0.3644 -0.3821 -0.4748
  112OSM    H8S11628   5.389   1.403  10.282  1.0027  3.2206  0.8269
  112OSM    H8T11629   5.490   1.269  10.220 -0.0051 -0.6560  1.6201
  112OSM    C9S11630   5.518   1.449  10.098 -0.2757 -0.3311  0.3534
  112OSM    H9S11631   5.618   1.426  10.057 -0.1505  0.8804 -0.0704
  112OSM    H9T11632   5.524   1.560  10.104 -0.5331 -0.1503 -1.8455
  112OSM   C10S11633   5.418   1.418   9.987  0.2664 -0.0187 -0.5863
  112OSM   H10S11634   5.331   1.486  10.002 -0.7157 -1.5309  0.9504
  112OSM   H10T11635   5.376   1.316  10.000 -0.6229  0.4205  0.0793
  112OSM   C11S11636   5.469   1.449   9.845  0.3378  0.2326 -0.2538
  112OSM   H11S11637   5.551   1.378   9.817  0.2156 -0.5848  1.3697
  112OSM   H11T11638   5.506   1.554   9.838  0.2257  0.1876 -1.9789
  112OSM   C12S11639   5.353   1.439   9.745 -0.2531  0.4458  0.1647
  112OSM   H12S11640   5.277   1.518   9.761 -0.1168  0.3145  1.6631
  112OSM   H12T11641   5.300   1.341   9.748 -1.2495  0.9413 -0.4476
  112OSM   C13S11642   5.405   1.447   9.604  0.5149 -0.1563 -0.0841
  112OSM   H13S11643   5.489   1.376   9.591  0.0899 -0.7366  0.3040
  112OSM   H13T11644   5.450   1.548   9.591  3.4822 -1.4220 -0.4673
  112OSM   C14S11645   5.287   1.413   9.509 -0.2504  0.4583  0.6385
  112OSM   H14S11646   5.197   1.474   9.536  0.4954  2.1504 -0.5310
  112OSM   H14T11647   5.268   1.306   9.529  0.2115  0.5265  1.4796
  112OSM   C15S11648   5.324   1.436   9.363 -0.2461 -0.4553 -0.3631
  112OSM   H15S11649   5.395   1.360   9.325 -1.5901 -1.8227 -0.2422
  112OSM   H15T11650   5.380   1.531   9.349  1.0678 -0.7326  2.3716
  112OSM   C16S11651   5.203   1.423   9.275 -0.0465 -0.0448 -0.1496
  112OSM   H16S11652   5.238   1.454   9.174  0.4527  1.7622  0.5400
  112OSM   H16T11653   5.118   1.487   9.308 -0.7237 -1.2052  0.4138
  112OSM   C17S11654   5.146   1.280   9.259  0.1162  0.2619  0.0677
  112OSM   H17S11655   5.054   1.268   9.197  0.9748 -0.5529 -1.0966
  112OSM   H17T11656   5.106   1.253   9.359  0.8671 -1.4415 -0.0521
  112OSM   C18S11657   5.233   1.166   9.202 -0.1417  0.8989 -0.2256
  112OSM   H18S11658   5.162   1.082   9.187  2.4175 -1.3117 -0.8874
  112OSM   H18T11659   5.309   1.131   9.276 -1.3010 -1.3727 -0.0219
  112OSM   H18U11660   5.274   1.183   9.100 -1.4225  2.5652 -0.4993
  112OSM    C1F11661   6.016   1.080  10.617  0.5485  0.2146 -0.5282
  112OSM     OF11662   5.948   0.984  10.661 -0.1291 -0.2366 -0.1681
  112OSM    C2F11663   6.141   1.059  10.537 -0.1442 -0.1123  0.0919
  112OSM    H2F11664   6.236   1.100  10.578 -0.9175  2.7365 -0.7753
  112OSM    H2G11665   6.122   1.108  10.439 -0.0581 -1.6916 -0.7489
  112OSM    C3F11666   6.178   0.910  10.512  0.4688  0.5715 -0.2372
  112OSM    H3F11667   6.088   0.853  10.483  0.1346  1.7616 -1.6756
  112OSM    H3G11668   6.209   0.856  10.604 -0.8416  0.5228  0.1950
  112OSM    C4F11669   6.296   0.892  10.421  0.5879 -0.2755 -0.5799
  112OSM    H4F11670   6.324   0.787  10.402  0.8403 -0.0282 -1.6633
  112OSM    H4G11671   6.385   0.952  10.451 -1.3122  2.5474 -0.1840
  112OSM    C5F11672   6.263   0.949  10.281  0.2695 -0.1338  0.2457
  112OSM    H5F11673   6.240   1.058  10.284 -1.0458 -0.3143 -1.3710
  112OSM    H5G11674   6.171   0.905  10.236 -0.6372  1.5104  0.3745
  112OSM    C6F11675   6.384   0.940  10.189  0.3933  0.8112  0.0440
  112OSM    H6F11676   6.420   0.835  10.191 -0.4365  0.5248  0.3902
  112OSM    H6G11677   6.463   1.012  10.219  1.4517  0.5200 -1.8869
  112OSM    C7F11678   6.352   0.981  10.040 -0.2931 -0.0164 -0.8600
  112OSM    H7F11679   6.294   1.075  10.037  2.3804  1.7912  0.3285
  112OSM    H7G11680   6.291   0.892  10.014  0.5931 -2.3182  3.7506
  112OSM    C8F11681   6.476   0.987   9.951  0.0582  0.5783 -0.1091
  112OSM    H8F11682   6.528   0.889   9.948 -1.7470 -0.4070 -0.5852
  112OSM    H8G11683   6.541   1.065   9.997  0.4551  0.7570 -0.9507
  112OSM    C9F11684   6.435   1.027   9.813 -0.1283  0.0477  0.2451
  112OSM    H9F11685   6.382   0.954   9.751 -1.3424  0.7048  0.4856
  112OSM   C10F11686   6.442   1.149   9.760  0.1836  0.3288 -0.1053
  112OSM   H10F11687   6.423   1.172   9.655  1.5693  0.8277 -0.2735
  112OSM   C11F11688   6.500   1.271   9.828  0.2321 -0.2816 -0.8582
  112OSM   H11F11689   6.492   1.253   9.937 -0.5109 -0.0696 -0.8680
  112OSM   H11G11690   6.433   1.359   9.819 -0.0937 -0.6021 -1.7542
  112OSM   C12F11691   6.643   1.295   9.783 -0.0969 -0.0867  0.5505
  112OSM   H12F11692   6.710   1.214   9.819 -1.0622 -0.8932  0.5691
  112OSM   H12G11693   6.680   1.380   9.844 -0.0430 -0.7941  1.5200
  112OSM   C13F11694   6.661   1.343   9.628  0.8520  0.1980 -0.6280
  112OSM   H13F11695   6.600   1.434   9.610 -0.0307  0.2632  2.1413
  112OSM   H13G11696   6.616   1.266   9.562 -2.6081  0.3804  1.2492
  112OSM   C14F11697   6.804   1.372   9.593 -0.7893 -0.7956  0.5494
  112OSM   H14F11698   6.870   1.303   9.648 -0.4543  0.2057  1.4375
  112OSM   H14G11699   6.822   1.471   9.640  3.5638 -0.9461 -0.4177
  112OSM   C15F11700   6.837   1.385   9.439  0.1878  1.0257 -0.4319
  112OSM   H15F11701   6.846   1.281   9.401 -0.3261  0.4546  0.9422
  112OSM   H15G11702   6.940   1.426   9.437  1.0038 -0.7237  1.7172
  112OSM   C16F11703   6.743   1.469   9.358 -0.2260  0.1827 -0.3363
  112OSM   H16F11704   6.762   1.573   9.394 -1.6362  0.2346  0.2896
  112OSM   H16G11705   6.639   1.444   9.387  0.6258 -2.1785  0.8921
  112OSM   C17F11706   6.771   1.483   9.204 -0.4742 -0.0807  0.6371
  112OSM   H17F11707   6.841   1.569   9.191 -1.4903  0.7173  0.3457
  112OSM   H17G11708   6.674   1.510   9.158 -0.7830 -1.0330  0.7279
  112OSM   C18F11709   6.833   1.367   9.124  0.0918 -0.6158 -0.0865
  112OSM   H18F11710   6.878   1.406   9.030  0.8079 -0.1884  0.4274
  112OSM   H18G11711   6.759   1.285   9.106 -1.7232  0.9198  0.1297
  112OSM   H18H11712   6.921   1.331   9.182 -1.1218 -3.5894  0.0947
  113OSM      N11713   0.455   5.174  10.842  0.6479 -0.3246  0.3606
  113OSM    C1511714   0.455   5.135  10.694  0.7209 -0.8563  0.0260
  113OSM   H15A11715   0.555   5.147  10.655  1.1095  1.9668  1.6673
  113OSM   H15B11716   0.383   5.192  10.638 -0.0434  0.1807  1.9407
  113OSM   H15C11717   0.426   5.031  10.682  1.8028 -1.2908  0.9140
  113OSM    C1411718   0.325   5.151  10.906 -0.0807  0.7803  0.0635
  113OSM   H14A11719   0.311   5.053  10.950 -3.0266  1.6980  1.4479
  113OSM   H14B11720   0.249   5.166  10.831  0.5971 -1.4580 -1.1475
  113OSM   H14C11721   0.317   5.213  10.994  1.9176  0.8220  0.2496
  113OSM    C1311722   0.557   5.113  10.920 -0.1382 -0.2869  0.2150
  113OSM   H13A11723   0.657   5.124  10.881  0.8211 -0.2200  2.4860
  113OSM   H13B11724   0.558   5.005  10.927 -3.3800 -0.3486  1.4619
  113OSM   H13C11725   0.547   5.143  11.024 -1.5135 -0.0361  0.0295
  113OSM    C1211726   0.481   5.324  10.835 -0.2247 -0.3257  0.0507
  113OSM   H12A11727   0.416   5.358  10.755  1.2562  0.8782 -0.7097
  113OSM   H12B11728   0.584   5.341  10.807 -0.8006  1.0259 -1.4173
  113OSM    C1111729   0.458   5.409  10.965  0.4931  0.1953  0.4593
  113OSM   H11A11730   0.362   5.370  11.005 -0.5593  1.2034 -0.9778
  113OSM   H11B11731   0.443   5.517  10.945 -1.1878  0.2095  1.5673
  113OSM      P11732   0.669   5.497  11.081 -0.0361 -0.3689  0.1652
  113OSM    O1311733   0.603   5.610  11.146  0.2388 -0.7540 -0.2264
  113OSM    O1411734   0.774   5.425  11.144 -0.2356 -0.0589  0.6324
  113OSM    O1111735   0.706   5.533  10.934 -0.1878  0.2659  0.6690
  113OSM    O1211736   0.560   5.386  11.062 -0.1242 -0.2100  0.0928
  113OSM    C1S11737   0.832   5.587  10.903 -0.3773  0.0856 -0.0268
  113OSM    H1S11738   0.903   5.557  10.983 -1.5560  2.0269  1.8490
  113OSM    H1T11739   0.826   5.698  10.902 -2.2263  0.0285 -1.8106
  113OSM     NF11740   1.023   5.567  10.751  0.9959 -0.2650 -0.3258
  113OSM    HNF11741   1.032   5.623  10.669 -4.0033  0.0205 -0.9710
  113OSM    C2S11742   0.886   5.533  10.768  0.0543  0.3896 -0.5288
  113OSM    H2S11743   0.882   5.423  10.775 -1.9021  0.4612  0.0294
  113OSM    C3S11744   0.789   5.585  10.659 -1.4321  0.4904  0.8813
  113OSM    H3S11745   0.793   5.696  10.660 -0.4732  0.4586  1.5061
  113OSM     O311746   0.648   5.549  10.662  1.0175  0.3534 -0.6919
  113OSM    HO311747   0.639   5.519  10.753  1.2528  1.7162 -0.2055
  113OSM    C4S11748   0.846   5.548  10.513 -0.2912  0.3920 -0.3979
  113OSM    H4S11749   0.867   5.441  10.502  1.2524  0.6882 -0.5984
  113OSM    C5S11750   0.863   5.628  10.406  0.4651 -0.2776  0.1041
  113OSM    H5S11751   0.838   5.736  10.406  1.7703  0.0486  1.3739
  113OSM    C6S11752   0.905   5.582  10.266 -0.9774  0.2844  0.0161
  113OSM    H6S11753   0.819   5.551  10.204 -0.1830  0.8926 -1.4490
  113OSM    H6T11754   0.969   5.492  10.275  2.1177  2.0455 -2.2969
  113OSM    C7S11755   0.987   5.691  10.195 -0.3064  0.4392 -0.0579
  113OSM    H7S11756   1.081   5.716  10.249 -1.3338  0.0149  2.0138
  113OSM    H7T11757   0.933   5.787  10.195 -3.7163 -1.2963  1.7422
  113OSM    C8S11758   1.020   5.648  10.046  0.3183 -0.7764 -0.2855
  113OSM    H8S11759   1.049   5.541  10.051 -1.7785 -1.3680  0.2244
  113OSM    H8T11760   1.100   5.716  10.011  0.5557 -0.9570 -0.0986
  113OSM    C9S11761   0.897   5.663   9.955  0.2606  0.0724 -0.2407
  113OSM    H9S11762   0.854   5.765   9.965  1.3533  0.5625 -0.3756
  113OSM    H9T11763   0.823   5.593  10.000 -0.8438  1.2139 -0.2186
  113OSM   C10S11764   0.924   5.640   9.807 -0.5208  0.2100 -0.4164
  113OSM   H10S11765   0.833   5.645   9.744 -0.5815  2.1552 -0.2352
  113OSM   H10T11766   0.971   5.541   9.789  0.4850  0.1309  2.2556
  113OSM   C11S11767   1.018   5.747   9.744 -0.0357 -0.1361 -0.3394
  113OSM   H11S11768   1.106   5.752   9.812  0.4633 -1.6591 -0.8340
  113OSM   H11T11769   0.964   5.843   9.759 -2.5355 -1.5574  0.4187
  113OSM   C12S11770   1.067   5.718   9.607 -0.4352  0.6740 -0.0909
  113OSM   H12S11771   1.113   5.617   9.616 -0.7874  0.5822  0.7693
  113OSM   H12T11772   1.142   5.793   9.575  1.1210 -1.4248 -1.6080
  113OSM   C13S11773   0.966   5.717   9.491  0.2395 -0.1658  0.4639
  113OSM   H13S11774   0.946   5.822   9.459  0.5287 -0.2403  0.0334
  113OSM   H13T11775   0.869   5.667   9.512 -0.0499 -0.0550 -0.5616
  113OSM   C14S11776   1.028   5.660   9.366  0.7483  0.6841 -0.5259
  113OSM   H14S11777   0.947   5.651   9.291 -0.2031 -3.0504  0.7579
  113OSM   H14T11778   1.057   5.557   9.396  0.1130  0.4397 -0.7449
  113OSM   C15S11779   1.140   5.740   9.309  0.2409 -0.4043 -0.9448
  113OSM   H15S11780   1.232   5.736   9.372 -0.4951 -1.3415  0.1197
  113OSM   H15T11781   1.104   5.845   9.303  1.0519 -0.1191 -1.0026
  113OSM   C16S11782   1.174   5.703   9.168  0.0612 -0.8455  0.0109
  113OSM   H16S11783   1.079   5.700   9.110  0.1985  1.0060 -0.3873
  113OSM   H16T11784   1.220   5.603   9.175  0.0950 -0.7107  2.1385
  113OSM   C17S11785   1.277   5.791   9.098 -0.5109  1.2984 -0.3158
  113OSM   H17S11786   1.372   5.756   9.144 -1.0515  0.3534  0.1108
  113OSM   H17T11787   1.262   5.894   9.136  2.7284  1.1055  1.8441
  113OSM   C18S11788   1.279   5.764   8.948  0.2148  0.3660 -0.3567
  113OSM   H18S11789   1.290   5.656   8.922 -0.9638  0.1814 -0.1214
  113OSM   H18T11790   1.372   5.819   8.921  0.1692 -0.0716 -1.4678
  113OSM   H18U11791   1.190   5.805   8.897 -1.0433 -1.3431  0.3685
  113OSM    C1F11792   1.124   5.543  10.830 -0.1469 -0.0805  0.4624
  113OSM     OF11793   1.109   5.463  10.921  0.0079 -0.4900  0.1231
  113OSM    C2F11794   1.262   5.603  10.801 -0.2748  0.6947  0.0116
  113OSM    H2F11795   1.288   5.664  10.890 -1.0438 -1.0545  1.5105
  113OSM    H2G11796   1.257   5.668  10.712 -2.3073 -0.4656 -0.7969
  113OSM    C3F11797   1.374   5.503  10.773 -0.6390  1.0392  0.1126
  113OSM    H3F11798   1.374   5.441  10.865 -0.8704 -0.8983 -1.1318
  113OSM    H3G11799   1.476   5.539  10.751  0.4998 -1.1567  1.5065
  113OSM    C4F11800   1.339   5.410  10.651  0.3071 -0.3756  0.2237
  113OSM    H4F11801   1.231   5.391  10.637  0.1350  1.0251 -0.5742
  113OSM    H4G11802   1.405   5.320  10.649 -0.2682 -0.8969  2.4177
  113OSM    C5F11803   1.374   5.483  10.518  0.4616 -0.6348 -0.7135
  113OSM    H5F11804   1.484   5.497  10.519  0.1573  2.3295  0.7616
  113OSM    H5G11805   1.329   5.584  10.524  1.0134 -0.4362  0.3958
  113OSM    C6F11806   1.322   5.404  10.397 -0.0454  0.6755  0.1356
  113OSM    H6F11807   1.216   5.394  10.429  0.7991  0.0826  3.0087
  113OSM    H6G11808   1.369   5.304  10.385 -1.2541  0.3411 -2.6886
  113OSM    C7F11809   1.346   5.493  10.276  0.0452 -0.1724 -0.5909
  113OSM    H7F11810   1.451   5.530  10.270 -0.8886  2.5697 -3.8459
  113OSM    H7G11811   1.285   5.585  10.292  0.1158 -0.2275 -0.0011
  113OSM    C8F11812   1.304   5.435  10.142 -0.1701 -0.5331  0.2127
  113OSM    H8F11813   1.322   5.511  10.063 -2.7345  1.2769  1.2208
  113OSM    H8G11814   1.197   5.408  10.129 -0.0108 -1.2402  0.3237
  113OSM    C9F11815   1.374   5.307  10.113  0.4085  0.7580 -0.1276
  113OSM    H9F11816   1.467   5.295  10.171  1.0056 -0.2928 -1.2511
  113OSM   C10F11817   1.352   5.219  10.012 -0.0465  0.4416  0.1595
  113OSM   H10F11818   1.420   5.133  10.001 -0.7585  0.0351 -1.3069
  113OSM   C11F11819   1.244   5.234   9.899 -0.0576  0.3814  0.1666
  113OSM   H11F11820   1.164   5.307   9.920  0.1114  0.4045  0.7556
  113OSM   H11G11821   1.200   5.132   9.905  0.2950  0.2544  0.6642
  113OSM   C12F11822   1.311   5.258   9.761  0.0391 -0.0339  0.2629
  113OSM   H12F11823   1.359   5.162   9.733  1.0353  0.5744 -0.1707
  113OSM   H12G11824   1.385   5.339   9.776 -0.2972  0.1642  0.8671
  113OSM   C13F11825   1.220   5.291   9.646 -0.0511 -0.3124 -0.2911
  113OSM   H13F11826   1.276   5.321   9.555  0.6001 -1.8570 -0.4206
  113OSM   H13G11827   1.153   5.374   9.679  0.0719  0.4901 -1.9487
  113OSM   C14F11828   1.113   5.179   9.609  0.2627  0.2681 -0.1838
  113OSM   H14F11829   1.035   5.172   9.688  0.0713  1.0042 -0.2993
  113OSM   H14G11830   1.165   5.082   9.599  0.1142  0.1699  0.0018
  113OSM   C15F11831   1.025   5.209   9.480  0.2867  0.5021 -0.1251
  113OSM   H15F11832   0.969   5.305   9.480 -0.4995  0.0619 -0.8114
  113OSM   H15G11833   0.952   5.125   9.490  1.4277 -0.4884  0.0338
  113OSM   C16F11834   1.099   5.209   9.351 -0.9028 -0.2296  0.6066
  113OSM   H16F11835   1.140   5.109   9.327 -1.1552 -0.5320  1.4193
  113OSM   H16G11836   1.176   5.289   9.356  1.7119 -2.3512 -2.0869
  113OSM   C17F11837   0.999   5.253   9.242  0.4494  0.3560 -1.1894
  113OSM   H17F11838   0.963   5.358   9.242 -1.1661 -0.1711 -1.1722
  113OSM   H17G11839   0.901   5.201   9.253  0.3072  0.7777 -0.3853
  113OSM   C18F11840   1.062   5.240   9.098  0.0984  0.1397 -0.9359
  113OSM   H18F11841   1.163   5.285   9.101  0.7812 -1.3252  0.9375
  113OSM   H18G11842   0.994   5.301   9.035 -0.1876 -0.0351 -0.7986
  113OSM   H18H11843   1.078   5.143   9.046 -1.2043 -0.7980  0.3031
  114OSM      N11844   4.883   0.781  10.936  0.2180  0.2497 -0.0360
  114OSM    C1511845   4.894   0.692  10.808 -0.3326 -0.5276 -0.4626
  114OSM   H15A11846   4.802   0.671  10.755 -1.4469  0.3286  1.0586
  114OSM   H15B11847   4.938   0.596  10.832  0.4068 -0.1989 -0.4625
  114OSM   H15C11848   4.968   0.730  10.739 -0.8686  0.7663 -0.3447
  114OSM    C1411849   5.026   0.797  10.983  0.3250 -0.1611  0.3166
  114OSM   H14A11850   5.089   0.797  10.895 -2.8471  0.7756 -2.1270
  114OSM   H14B11851   5.057   0.706  11.032  0.2647 -1.0966 -1.3143
  114OSM   H14C11852   5.046   0.883  11.045 -1.2865  1.5295 -1.4035
  114OSM    C1311853   4.836   0.915  10.885 -0.4460  0.4449  0.1472
  114OSM   H13A11854   4.741   0.889  10.840 -0.7041  0.5567  0.6214
  114OSM   H13B11855   4.911   0.968  10.827  0.9292 -0.1944  1.2843
  114OSM   H13C11856   4.817   0.980  10.969 -1.1017 -0.2360  0.5319
  114OSM    C1211857   4.798   0.712  11.041 -0.6069  0.1952 -0.2363
  114OSM   H12A11858   4.790   0.766  11.134 -0.4381  1.1522 -0.7624
  114OSM   H12B11859   4.850   0.619  11.059 -0.2516 -0.0784 -2.4131
  114OSM    C1111860   4.646   0.680  10.997  0.5462 -0.1388 -0.2130
  114OSM   H11A11861   4.601   0.600  11.060 -3.3493  1.3950 -0.7823
  114OSM   H11B11862   4.649   0.637  10.894 -2.2806  0.4943 -0.6461
  114OSM      P11863   4.417   0.805  10.959  0.2328  0.0298  0.0568
  114OSM    O1311864   4.320   0.738  11.050 -0.4050  0.2299 -0.5350
  114OSM    O1411865   4.389   0.950  10.930  0.0332 -0.4632 -0.1706
  114OSM    O1111866   4.414   0.728  10.824 -0.1448 -1.0638  0.0570
  114OSM    O1211867   4.562   0.799  11.008 -0.3415  0.2260 -0.6054
  114OSM    C1S11868   4.476   0.815  10.720 -0.4088 -0.5912 -0.8292
  114OSM    H1S11869   4.568   0.869  10.752  0.3322 -0.5484 -2.8991
  114OSM    H1T11870   4.410   0.893  10.676 -0.8557 -0.7901 -0.5300
  114OSM     NF11871   4.569   0.819  10.491  0.5925  0.5337 -0.1200
  114OSM    HNF11872   4.495   0.840  10.428 -0.0421  1.6443  0.9520
  114OSM    C2S11873   4.511   0.726  10.592  0.2056 -0.3357  0.1080
  114OSM    H2S11874   4.581   0.646  10.624  2.0733  1.1784  0.0093
  114OSM    C3S11875   4.383   0.659  10.544 -0.3754  0.2315  0.0125
  114OSM    H3S11876   4.308   0.742  10.537 -0.6816  0.0497  1.0060
  114OSM     O311877   4.335   0.563  10.642  0.0757  0.0910 -0.1682
  114OSM    HO311878   4.359   0.613  10.720  1.4238  0.4107 -0.7493
  114OSM    C4S11879   4.406   0.599  10.413  0.3538 -0.9546  0.2188
  114OSM    H4S11880   4.477   0.515  10.414 -0.9116 -2.0799 -0.1140
  114OSM    C5S11881   4.351   0.634  10.297  0.6194 -0.4576  0.4700
  114OSM    H5S11882   4.295   0.728  10.295 -0.5241 -1.1201 -0.5930
  114OSM    C6S11883   4.378   0.566  10.166 -0.1943  0.7188 -0.4144
  114OSM    H6S11884   4.292   0.500  10.142 -1.0226  1.2661  0.9303
  114OSM    H6T11885   4.456   0.489  10.179  0.2438  0.8439 -2.0830
  114OSM    C7S11886   4.414   0.673  10.062  0.3275  0.4784 -0.1616
  114OSM    H7S11887   4.493   0.745  10.094  0.7072 -0.0737  0.1514
  114OSM    H7T11888   4.323   0.735  10.048 -0.1512  0.0099  0.8321
  114OSM    C8S11889   4.460   0.614   9.937  0.2532  0.1511  0.6142
  114OSM    H8S11890   4.401   0.527   9.901 -0.3726  0.8688 -0.1488
  114OSM    H8T11891   4.558   0.567   9.958  0.1964  0.1859  0.9784
  114OSM    C9S11892   4.478   0.718   9.821  1.1846 -0.4771 -0.6503
  114OSM    H9S11893   4.532   0.810   9.854 -0.6915  0.6258 -0.5241
  114OSM    H9T11894   4.372   0.739   9.798  0.6850 -2.9362 -0.7847
  114OSM   C10S11895   4.539   0.673   9.694 -0.5463 -0.4768  0.1396
  114OSM   H10S11896   4.468   0.594   9.662 -1.8404  0.8813 -0.4704
  114OSM   H10T11897   4.636   0.634   9.731 -1.1607  0.1331  2.5341
  114OSM   C11S11898   4.547   0.770   9.579  0.1144 -0.3304  0.6026
  114OSM   H11S11899   4.607   0.863   9.591  1.2270 -0.8253 -0.8960
  114OSM   H11T11900   4.443   0.809   9.573  0.9035  1.8093 -0.2704
  114OSM   C12S11901   4.600   0.703   9.447 -0.2408  0.0743 -0.2946
  114OSM   H12S11902   4.548   0.605   9.439  1.1886 -0.8273  0.9892
  114OSM   H12T11903   4.709   0.687   9.452 -0.0769 -0.5547 -3.6248
  114OSM   C13S11904   4.554   0.785   9.331 -0.3226 -0.3818  0.9502
  114OSM   H13S11905   4.576   0.888   9.366 -0.2811 -0.0255 -0.0896
  114OSM   H13T11906   4.446   0.779   9.309 -0.2750  0.8797  0.2917
  114OSM   C14S11907   4.647   0.756   9.212 -0.1683 -0.0046  0.0624
  114OSM   H14S11908   4.752   0.765   9.248 -0.6607  3.3855  0.9352
  114OSM   H14T11909   4.631   0.839   9.141  1.1706 -1.1516 -1.6750
  114OSM   C15S11910   4.623   0.627   9.141 -0.1677 -0.3000 -0.6761
  114OSM   H15S11911   4.513   0.610   9.137 -0.2581 -0.7472  1.9559
  114OSM   H15T11912   4.680   0.548   9.195  1.5197  0.7034 -0.9031
  114OSM   C16S11913   4.660   0.604   8.991  0.0218 -0.1307 -1.0193
  114OSM   H16S11914   4.603   0.509   8.980 -2.5011  0.9395  1.5195
  114OSM   H16T11915   4.769   0.589   8.978 -0.0805 -0.8823 -1.0361
  114OSM   C17S11916   4.615   0.709   8.890 -0.5868  0.3046  0.6987
  114OSM   H17S11917   4.645   0.814   8.909  0.5315  0.1542 -0.1460
  114OSM   H17T11918   4.504   0.704   8.888 -0.6844  1.2485  2.3869
  114OSM   C18S11919   4.655   0.677   8.745  0.7222 -0.4555  0.2923
  114OSM   H18S11920   4.662   0.768   8.681  0.9577  0.1903  1.2076
  114OSM   H18T11921   4.575   0.608   8.711  0.3261  0.1203  0.0327
  114OSM   H18U11922   4.752   0.623   8.750  0.0457 -1.6622  0.7165
  114OSM    C1F11923   4.699   0.852  10.493  0.9878 -0.2655 -0.4844
  114OSM     OF11924   4.772   0.815  10.583  0.9280 -0.4109 -0.0603
  114OSM    C2F11925   4.749   0.920  10.372  0.1474 -0.3771  0.6900
  114OSM    H2F11926   4.831   0.857  10.332 -0.5377 -0.8413 -0.0042
  114OSM    H2G11927   4.788   1.019  10.403  1.3478 -0.4725 -0.4439
  114OSM    C3F11928   4.641   0.948  10.263  0.1483  0.4910 -0.3284
  114OSM    H3F11929   4.555   1.006  10.303  2.1115  2.9219  0.6292
  114OSM    H3G11930   4.598   0.852  10.227  0.4535  0.3576 -0.3417
  114OSM    C4F11931   4.693   1.013  10.131 -0.0616 -0.5417  0.4533
  114OSM    H4F11932   4.738   1.114  10.149 -0.6944 -0.2474  0.4340
  114OSM    H4G11933   4.604   1.025  10.065  0.5582 -0.5600 -0.3941
  114OSM    C5F11934   4.795   0.914  10.064  0.0153  0.3218 -0.2556
  114OSM    H5F11935   4.746   0.815  10.077 -0.7878  0.5663 -1.2291
  114OSM    H5G11936   4.889   0.894  10.118 -1.1847 -5.2201  0.3802
  114OSM    C6F11937   4.818   0.943   9.917  0.0448  0.0796 -0.0017
  114OSM    H6F11938   4.884   1.033   9.912 -1.4158  1.2381  0.8016
  114OSM    H6G11939   4.721   0.964   9.868 -1.9242 -0.7370  3.2474
  114OSM    C7F11940   4.883   0.832   9.841 -0.2412  0.1689 -0.1530
  114OSM    H7F11941   4.821   0.741   9.850  1.8285 -1.2968  0.1579
  114OSM    H7G11942   4.984   0.811   9.883 -0.7938 -1.8367  0.2876
  114OSM    C8F11943   4.907   0.870   9.691 -0.0869 -0.3561  0.2879
  114OSM    H8F11944   4.811   0.898   9.641  0.2402  1.6080  0.6621
  114OSM    H8G11945   4.927   0.770   9.646 -0.0243  0.4583 -1.6125
  114OSM    C9F11946   5.007   0.977   9.646  0.3425  1.6185 -0.4348
  114OSM    H9F11947   4.992   1.082   9.677 -2.6322  1.7222 -1.9197
  114OSM   C10F11948   5.097   0.954   9.546 -0.4881 -0.6821 -0.6594
  114OSM   H10F11949   5.154   1.042   9.514 -1.0926  0.0341  0.1935
  114OSM   C11F11950   5.124   0.823   9.471 -0.2697  0.5578 -0.6537
  114OSM   H11F11951   5.090   0.740   9.536 -1.1546  1.5252  0.1710
  114OSM   H11G11952   5.227   0.807   9.434 -0.3603  2.1736 -1.7221
  114OSM   C12F11953   5.029   0.819   9.347  0.0379 -0.0947 -0.3748
  114OSM   H12F11954   5.050   0.905   9.280  0.8204 -0.0917 -0.1406
  114OSM   H12G11955   4.928   0.838   9.388  0.5248  0.5281  0.5727
  114OSM   C13F11956   5.043   0.685   9.274  0.0811  0.8757 -0.4917
  114OSM   H13F11957   4.965   0.682   9.195  0.5867 -2.3450 -0.9931
  114OSM   H13G11958   5.027   0.593   9.333 -0.0758  0.0244 -1.8212
  114OSM   C14F11959   5.175   0.673   9.194 -0.2792  0.1402  0.9051
  114OSM   H14F11960   5.268   0.645   9.248  0.3064  0.4798  0.0767
  114OSM   H14G11961   5.199   0.769   9.145  1.1263 -0.4031  0.4887
  114OSM   C15F11962   5.159   0.560   9.087  0.2623 -0.0917 -0.1764
  114OSM   H15F11963   5.068   0.572   9.024 -0.2693 -0.1372  0.5673
  114OSM   H15G11964   5.148   0.460   9.135  1.1691 -1.0650 -1.9109
  114OSM   C16F11965   5.277   0.544   8.984  0.1031  0.0777  0.1242
  114OSM   H16F11966   5.262   0.470   8.903  1.9630  0.0006 -0.1887
  114OSM   H16G11967   5.371   0.510   9.032 -0.1044 -1.8590 -0.7513
  114OSM   C17F11968   5.315   0.681   8.930  0.3819 -0.2336 -0.6415
  114OSM   H17F11969   5.358   0.741   9.012 -0.3125  0.0122 -0.4540
  114OSM   H17G11970   5.229   0.746   8.904  0.2794 -0.5791 -1.2044
  114OSM   C18F11971   5.415   0.681   8.822  0.0675 -0.3114 -0.1354
  114OSM   H18F11972   5.377   0.630   8.731 -0.1240 -0.5620  0.0809
  114OSM   H18G11973   5.516   0.642   8.844  0.4689  0.2281 -0.9900
  114OSM   H18H11974   5.429   0.784   8.782  0.0213 -0.3014 -0.1261
  115OSM      N11975   1.278   0.896  11.018 -0.3110  1.0266  0.1017
  115OSM    C1511976   1.307   0.757  11.055 -0.2881  0.0463  0.3159
  115OSM   H15A11977   1.268   0.738  11.154  0.7627  3.7194  1.5928
  115OSM   H15B11978   1.415   0.753  11.051 -0.2667  0.9503 -2.5875
  115OSM   H15C11979   1.262   0.688  10.985 -0.2654 -1.7221  1.9472
  115OSM    C1411980   1.316   0.977  11.135 -0.1271  0.5264  0.1878
  115OSM   H14A11981   1.419   0.954  11.161 -0.2878  0.3949  0.7137
  115OSM   H14B11982   1.264   0.937  11.221 -0.3505 -0.5488 -0.4207
  115OSM   H14C11983   1.298   1.083  11.138  1.6867  0.8557  1.2586
  115OSM    C1311984   1.358   0.940  10.902 -0.6820 -0.0995  0.5093
  115OSM   H13A11985   1.464   0.932  10.922 -0.3000  0.8627 -0.9640
  115OSM   H13B11986   1.343   1.047  10.894 -0.3711 -0.0436  0.6354
  115OSM   H13C11987   1.344   0.888  10.809  0.6414  0.7864 -0.2316
  115OSM    C1211988   1.132   0.915  10.998 -0.1982  0.5031  0.0106
  115OSM   H12A11989   1.116   1.021  10.982  2.0892  1.1197  1.3320
  115OSM   H12B11990   1.074   0.882  11.083 -2.5025 -0.0897 -1.6800
  115OSM    C1111991   1.069   0.841  10.870  0.4011  0.0969 -0.1192
  115OSM   H11A11992   1.133   0.889  10.792  0.3169  0.6807  0.1701
  115OSM   H11B11993   0.964   0.877  10.862  0.7528  0.9969 -0.9817
  115OSM      P11994   0.979   0.603  10.924  0.1977 -0.3538 -0.2422
  115OSM    O1311995   1.031   0.466  10.956  0.2049  0.7864  0.2472
  115OSM    O1411996   0.921   0.676  11.041 -0.2164  0.4189  0.1580
  115OSM    O1111997   0.872   0.588  10.803 -0.4540  0.1892 -0.2944
  115OSM    O1211998   1.092   0.702  10.867 -0.5438 -0.2325 -0.4711
  115OSM    C1S11999   0.892   0.644  10.677 -0.3128  0.7638  0.0626
  115OSM    H1S12000   1.001   0.659  10.668  0.1951 -0.3703  3.1610
  115OSM    H1T12001   0.848   0.746  10.665 -0.3164  0.5596 -1.9904
  115OSM     NF12002   0.884   0.622  10.433  0.0434  0.1349 -0.0972
  115OSM    HNF12003   0.803   0.654  10.385  0.1946  0.6905  0.0194
  115OSM    C2S12004   0.846   0.548  10.559 -0.1890 -0.3911  0.1096
  115OSM    H2S12005   0.917   0.464  10.576  1.8725  1.5722  1.9449
  115OSM    C3S12006   0.696   0.506  10.558 -0.7482  0.2902 -0.4894
  115OSM    H3S12007   0.643   0.604  10.554  1.4077  1.5770  0.4652
  115OSM     O312008   0.653   0.441  10.675 -0.0546 -0.4389  0.5695
  115OSM    HO312009   0.706   0.481  10.744  0.3763  1.3514 -0.7265
  115OSM    C4S12010   0.663   0.424  10.431 -0.2341  0.0648  0.4220
  115OSM    H4S12011   0.648   0.490  10.345  0.3148 -2.0318 -1.3742
  115OSM    C5S12012   0.659   0.289  10.420  0.4127 -0.3406  0.1720
  115OSM    H5S12013   0.685   0.229  10.509  0.0806 -0.3813  0.2412
  115OSM    C6S12014   0.625   0.209  10.297 -0.1830  0.2956 -0.1355
  115OSM    H6S12015   0.528   0.155  10.305  0.6630 -1.2605  0.0434
  115OSM    H6T12016   0.708   0.135  10.299  1.0666  1.6655  1.2651
  115OSM    C7S12017   0.627   0.290  10.171 -0.2075  0.0870 -0.1724
  115OSM    H7S12018   0.726   0.338  10.151  0.2964 -1.5221 -1.8137
  115OSM    H7T12019   0.545   0.366  10.169  1.4194  2.0676  2.1620
  115OSM    C8S12020   0.615   0.193  10.050 -0.4497 -0.4603  0.0953
  115OSM    H8S12021   0.520   0.136  10.061  0.0654 -1.4139 -0.3304
  115OSM    H8T12022   0.691   0.113  10.047  0.5157  0.4528 -1.0361
  115OSM    C9S12023   0.608   0.258   9.917 -0.1328 -0.1275  0.7211
  115OSM    H9S12024   0.702   0.314   9.895  1.7273 -2.7220  1.6419
  115OSM    H9T12025   0.529   0.336   9.907  0.3885  0.3298  0.0698
  115OSM   C10S12026   0.574   0.161   9.804  0.4916  0.0081  0.3493
  115OSM   H10S12027   0.478   0.108   9.822 -0.1299  0.7253 -0.7507
  115OSM   H10T12028   0.657   0.086   9.804  0.6688  0.1106 -2.2534
  115OSM   C11S12029   0.565   0.233   9.669 -0.0329 -0.0002  0.2405
  115OSM   H11S12030   0.670   0.269   9.662 -0.2841  0.8581  0.6945
  115OSM   H11T12031   0.495   0.319   9.672 -1.2286 -0.9677  1.5379
  115OSM   C12S12032   0.522   0.141   9.555  0.2642  0.1149  0.0314
  115OSM   H12S12033   0.425   0.093   9.582  1.6818 -3.1783 -0.3033
  115OSM   H12T12034   0.589   0.053   9.551  0.3046  0.1823 -1.6262
  115OSM   C13S12035   0.522   0.208   9.423 -0.4884  0.1084 -0.6657
  115OSM   H13S12036   0.614   0.269   9.433 -1.9035  1.8998  3.1802
  115OSM   H13T12037   0.432   0.273   9.431 -0.1287  0.4584  0.8102
  115OSM   C14S12038   0.508   0.117   9.297  0.6812 -0.1805 -0.0659
  115OSM   H14S12039   0.417   0.057   9.320  0.3504  1.2102  2.6861
  115OSM   H14T12040   0.603   0.063   9.281  1.0279  1.0724 -2.6891
  115OSM   C15S12041   0.463   0.191   9.163  0.3514  0.2410 -0.8370
  115OSM   H15S12042   0.377   0.259   9.180  1.2548  1.8802 -2.4465
  115OSM   H15T12043   0.416   0.117   9.095  0.6803  0.6669 -1.5369
  115OSM   C16S12044   0.582   0.266   9.103  0.2293 -0.1820  0.0974
  115OSM   H16S12045   0.665   0.192   9.100 -0.6538 -1.2813  1.5463
  115OSM   H16T12046   0.618   0.350   9.166 -0.5158  0.0357  0.2457
  115OSM   C17S12047   0.566   0.329   8.962  0.1808  0.7260  0.1101
  115OSM   H17S12048   0.667   0.357   8.926  0.3311 -1.7849 -1.7166
  115OSM   H17T12049   0.498   0.415   8.977  0.3775  1.0256 -0.6981
  115OSM   C18S12050   0.509   0.233   8.855  0.2712  0.4281 -0.4256
  115OSM   H18S12051   0.417   0.174   8.878 -0.0729  0.6007 -1.3485
  115OSM   H18T12052   0.586   0.155   8.838 -1.3968 -0.9663 -2.0949
  115OSM   H18U12053   0.483   0.294   8.766  0.5165 -1.7821 -2.0931
  115OSM    C1F12054   1.003   0.646  10.385 -0.2825 -0.6893 -0.8396
  115OSM     OF12055   1.102   0.617  10.452 -0.0329  0.7334  0.3215
  115OSM    C2F12056   1.002   0.702  10.246 -0.0123 -0.8436 -0.1477
  115OSM    H2F12057   0.941   0.795  10.246  0.6042 -0.4259  1.2625
  115OSM    H2G12058   0.957   0.633  10.171  0.6724  0.3706 -1.7270
  115OSM    C3F12059   1.145   0.738  10.203 -0.2241 -0.2928 -0.2808
  115OSM    H3F12060   1.206   0.653  10.240 -0.7839 -0.7080 -0.3028
  115OSM    H3G12061   1.185   0.834  10.243 -1.2237  0.6727 -1.5316
  115OSM    C4F12062   1.153   0.743  10.049 -0.5005  0.0795 -0.1804
  115OSM    H4F12063   1.112   0.643  10.021 -0.3398  0.6402 -2.6519
  115OSM    H4G12064   1.257   0.756  10.010 -1.0564  2.4770 -0.9900
  115OSM    C5F12065   1.065   0.851   9.989  0.3376  0.1858  0.0184
  115OSM    H5F12066   1.099   0.948  10.031  1.0295  0.8693 -2.0164
  115OSM    H5G12067   0.960   0.817  10.006  1.4470 -2.8551  1.4370
  115OSM    C6F12068   1.090   0.851   9.837 -0.4127 -0.0143 -0.5262
  115OSM    H6F12069   1.036   0.768   9.788  0.0253  0.1141 -1.2380
  115OSM    H6G12070   1.199   0.845   9.819 -0.2555  0.4774  0.2088
  115OSM    C7F12071   1.044   0.975   9.764 -0.0859 -0.1931 -0.7544
  115OSM    H7F12072   1.088   1.058   9.825  0.3250  0.4145 -1.8500
  115OSM    H7G12073   0.934   0.993   9.758 -0.9319 -4.6900 -2.3015
  115OSM    C8F12074   1.108   0.992   9.624 -0.5344  0.1940  0.2583
  115OSM    H8F12075   1.219   0.992   9.629 -0.3644  0.5166 -2.2091
  115OSM    H8G12076   1.077   1.095   9.597 -2.2283  0.3132  2.3544
  115OSM    C9F12077   1.060   0.882   9.530 -0.0577 -0.1882 -0.0249
  115OSM    H9F12078   0.998   0.801   9.572  0.9828 -0.0976  1.7839
  115OSM   C10F12079   1.095   0.880   9.399 -0.2163 -0.1511 -0.0668
  115OSM   H10F12080   1.049   0.815   9.324 -1.2420 -0.4529  0.8029
  115OSM   C11F12081   1.182   0.991   9.336 -0.7464  0.0115  0.1190
  115OSM   H11F12082   1.274   0.944   9.295 -0.9815 -0.8474  0.5286
  115OSM   H11G12083   1.228   1.062   9.409  2.2043 -1.3362 -0.2574
  115OSM   C12F12084   1.108   1.072   9.227 -0.7156 -0.9239  0.0345
  115OSM   H12F12085   1.045   1.146   9.282  0.1346 -0.9204  1.0437
  115OSM   H12G12086   1.053   1.009   9.155 -1.5957  1.2861 -1.3417
  115OSM   C13F12087   1.196   1.156   9.146  0.5963  0.4829 -1.4504
  115OSM   H13F12088   1.232   1.097   9.059  0.0181  0.6263 -1.7873
  115OSM   H13G12089   1.279   1.173   9.218 -0.9315  1.3575  0.1835
  115OSM   C14F12090   1.139   1.279   9.089 -0.0732  0.0716  0.3843
  115OSM   H14F12091   1.216   1.313   9.017 -0.4842  0.8314  0.2899
  115OSM   H14G12092   1.138   1.351   9.173 -2.5081  1.2730 -0.5816
  115OSM   C15F12093   1.007   1.268   9.027  0.3772  0.0478 -0.1252
  115OSM   H15F12094   0.962   1.369   9.022  0.0121 -0.0236  1.2801
  115OSM   H15G12095   0.927   1.215   9.083 -0.0606 -0.0437 -0.8253
  115OSM   C16F12096   1.007   1.201   8.887  0.6648  0.4952 -0.1501
  115OSM   H16F12097   1.047   1.097   8.898 -0.0120 -0.0989 -2.5732
  115OSM   H16G12098   1.064   1.264   8.814 -0.3135  1.9269  0.2948
  115OSM   C17F12099   0.866   1.204   8.816  0.9651 -1.1044 -0.9766
  115OSM   H17F12100   0.874   1.201   8.705  0.6606 -0.6791 -1.0152
  115OSM   H17G12101   0.819   1.303   8.835 -0.8521 -1.5377 -2.7841
  115OSM   C18F12102   0.781   1.085   8.857  0.0642  0.4632  0.4080
  115OSM   H18F12103   0.692   1.077   8.790 -1.5101  1.6622  2.2491
  115OSM   H18G12104   0.729   1.104   8.953 -0.7549  0.6783 -0.0629
  115OSM   H18H12105   0.843   0.993   8.853  1.6567  1.5172  0.1008
  116OSM      N12106   3.014   4.175  11.034 -1.0358 -0.2319 -0.0288
  116OSM    C1512107   3.051   4.126  10.897 -0.3686  0.7278 -0.2475
  116OSM   H15A12108   2.988   4.168  10.820 -0.6445 -1.6620 -1.4206
  116OSM   H15B12109   3.058   4.018  10.894  0.8488  0.7520  0.8653
  116OSM   H15C12110   3.153   4.153  10.875 -0.2444  0.3841 -0.1055
  116OSM    C1412111   3.046   4.315  11.051 -0.2794  0.2111  0.2132
  116OSM   H14A12112   2.965   4.354  11.111 -0.7121  0.8419 -0.7628
  116OSM   H14B12113   3.037   4.378  10.964  0.3166 -0.1845 -0.1431
  116OSM   H14C12114   3.135   4.331  11.111 -1.6974  1.9754  2.0036
  116OSM    C1312115   2.872   4.154  11.049 -0.0227  0.4065 -0.3182
  116OSM   H13A12116   2.840   4.172  11.151  0.1238 -1.6627  0.1422
  116OSM   H13B12117   2.833   4.055  11.028 -2.6886  1.6317 -1.5958
  116OSM   H13C12118   2.820   4.216  10.978 -1.4573  0.6986  0.9264
  116OSM    C1212119   3.086   4.089  11.132  0.4052 -0.4571 -0.6536
  116OSM   H12A12120   3.068   3.984  11.119  0.1204 -0.9986  3.0420
  116OSM   H12B12121   3.042   4.099  11.230  0.1355  1.1887 -0.9123
  116OSM    C1112122   3.243   4.103  11.150  0.2662 -0.4433 -0.3091
  116OSM   H11A12123   3.283   4.024  11.219 -1.4558  0.0440  1.3479
  116OSM   H11B12124   3.241   4.196  11.211 -0.9764 -1.7390  1.7805
  116OSM      P12125   3.465   4.050  11.019  0.1432  0.2621  0.3478
  116OSM    O1312126   3.559   4.151  11.081 -0.4224  0.0384 -0.0611
  116OSM    O1412127   3.461   3.916  11.081 -0.1657  0.1889  0.3814
  116OSM    O1112128   3.481   4.035  10.861  0.3308 -0.3182 -0.1334
  116OSM    O1212129   3.316   4.106  11.031  0.3914  0.2095 -0.8574
  116OSM    C1S12130   3.476   4.149  10.781 -0.1689 -0.3393  0.0013
  116OSM    H1S12131   3.562   4.219  10.778 -0.6639  0.3029  0.6607
  116OSM    H1T12132   3.394   4.218  10.809  0.4893  1.0590 -1.3501
  116OSM     NF12133   3.449   4.232  10.541 -0.1928 -0.8067 -0.6302
  116OSM    HNF12134   3.367   4.287  10.530  0.4288  0.3108  0.1368
  116OSM    C2S12135   3.439   4.117  10.630 -0.2705 -0.0707  0.3652
  116OSM    H2S12136   3.515   4.048  10.587 -0.1471 -0.3554  1.0202
  116OSM    C3S12137   3.300   4.053  10.626 -0.2503  0.2806  1.0573
  116OSM    H3S12138   3.221   4.119  10.668 -0.8639 -1.7096  3.2615
  116OSM     O312139   3.285   3.932  10.696 -0.0581 -0.2518  0.1773
  116OSM    HO312140   3.360   3.934  10.756  1.8271 -1.2534 -2.0013
  116OSM    C4S12141   3.267   4.013  10.482 -0.5878  1.5439  0.3252
  116OSM    H4S12142   3.312   3.920  10.444 -0.2316  0.5801  2.9376
  116OSM    C5S12143   3.169   4.074  10.410  0.1814  0.0350  0.5421
  116OSM    H5S12144   3.106   4.152  10.453 -0.2032 -0.9192  1.7476
  116OSM    C6S12145   3.131   4.037  10.270  0.6345  0.0979  0.4295
  116OSM    H6S12146   3.038   4.091  10.242 -1.3631 -1.1869  3.9115
  116OSM    H6T12147   3.096   3.932  10.268 -0.8887  0.5373  1.5495
  116OSM    C7S12148   3.244   4.043  10.168 -0.0588  0.0859 -0.5819
  116OSM    H7S12149   3.301   3.951  10.195 -3.1919 -1.6261  0.7849
  116OSM    H7T12150   3.314   4.127  10.186  0.2196 -0.1822 -0.3896
  116OSM    C8S12151   3.186   4.042  10.026  0.2149 -0.1010 -0.0516
  116OSM    H8S12152   3.166   4.149  10.006 -0.6341 -0.6278 -2.3444
  116OSM    H8T12153   3.084   3.998  10.018 -0.2249  1.0901 -1.4606
  116OSM    C9S12154   3.262   3.984   9.907 -0.2362 -0.6033 -0.0082
  116OSM    H9S12155   3.262   3.873   9.912 -1.7626 -0.7680 -2.3246
  116OSM    H9T12156   3.367   4.020   9.903 -0.6637  0.7122  0.2425
  116OSM   C10S12157   3.196   4.019   9.765 -0.9504 -0.0063 -0.9130
  116OSM   H10S12158   3.192   4.129   9.754 -2.0822  0.6437  3.7227
  116OSM   H10T12159   3.092   3.983   9.747 -1.0193  0.0115 -0.5663
  116OSM   C11S12160   3.285   3.952   9.662  0.2290  0.6334  0.6777
  116OSM   H11S12161   3.272   3.843   9.676 -0.7538  0.3342 -2.1160
  116OSM   H11T12162   3.392   3.983   9.672  0.1189  1.3842 -0.3678
  116OSM   C12S12163   3.250   3.968   9.513 -0.0672  0.6065 -0.1233
  116OSM   H12S12164   3.252   4.078   9.498  0.2463  0.6431  0.1777
  116OSM   H12T12165   3.147   3.927   9.503  0.8156 -1.3906 -1.4966
  116OSM   C13S12166   3.352   3.894   9.417 -0.3137  0.1010 -0.1330
  116OSM   H13S12167   3.333   3.785   9.417  1.3161 -0.2291 -1.9605
  116OSM   H13T12168   3.459   3.915   9.435 -0.5699  2.4744 -0.9489
  116OSM   C14S12169   3.327   3.954   9.279 -0.4673 -0.2987 -0.8990
  116OSM   H14S12170   3.370   4.056   9.271  0.9869 -0.8234 -0.0506
  116OSM   H14T12171   3.219   3.969   9.259 -0.8735  0.2857  1.4722
  116OSM   C15S12172   3.385   3.866   9.172 -0.3504 -0.1034 -0.1186
  116OSM   H15S12173   3.336   3.767   9.181  0.0544 -0.4353 -1.3154
  116OSM   H15T12174   3.494   3.850   9.188 -0.2521  1.0517  0.4911
  116OSM   C16S12175   3.375   3.920   9.021 -0.2669 -0.0388 -0.4931
  116OSM   H16S12176   3.266   3.940   9.010 -0.6195 -0.8860  1.2030
  116OSM   H16T12177   3.413   3.837   8.958 -1.4397  0.9722 -2.6490
  116OSM   C17S12178   3.467   4.041   8.989 -0.0089  0.2624 -0.4978
  116OSM   H17S12179   3.568   4.013   9.024  0.1065 -0.4092 -1.3330
  116OSM   H17T12180   3.447   4.132   9.050 -1.5262 -0.4245  0.0875
  116OSM   C18S12181   3.473   4.078   8.840  0.2316  0.3276 -0.3271
  116OSM   H18S12182   3.513   3.990   8.784 -0.8803  0.8238 -1.9925
  116OSM   H18T12183   3.552   4.153   8.818  0.6106  0.1791  0.4895
  116OSM   H18U12184   3.378   4.121   8.802  0.5821  0.1624 -1.4418
  116OSM    C1F12185   3.573   4.287  10.523 -0.3219  0.3494 -0.4917
  116OSM     OF12186   3.669   4.222  10.548  0.4500  0.3265 -0.3300
  116OSM    C2F12187   3.589   4.437  10.488 -0.0732 -0.0604  0.0201
  116OSM    H2F12188   3.613   4.500  10.577 -1.7822 -1.0198  1.2312
  116OSM    H2G12189   3.489   4.468  10.449  0.7833 -1.3637 -3.5900
  116OSM    C3F12190   3.693   4.463  10.379 -0.1114 -0.3616  0.5420
  116OSM    H3F12191   3.796   4.447  10.418  0.1688 -0.4622 -0.2343
  116OSM    H3G12192   3.697   4.571  10.356 -0.2805 -1.0896 -3.5338
  116OSM    C4F12193   3.672   4.391  10.237  0.3661 -0.1339 -0.6332
  116OSM    H4F12194   3.658   4.283  10.253 -3.0063  0.2521 -0.2400
  116OSM    H4G12195   3.769   4.419  10.190  0.0945  2.3285  0.0924
  116OSM    C5F12196   3.560   4.452  10.149 -0.0313 -0.3478  0.4743
  116OSM    H5F12197   3.574   4.562  10.143 -1.4282 -0.2148 -0.9876
  116OSM    H5G12198   3.463   4.440  10.201 -1.0554  0.4934 -1.1796
  116OSM    C6F12199   3.557   4.392  10.014  0.0227  0.3582  0.1424
  116OSM    H6F12200   3.556   4.283  10.035 -2.7650  0.5384  1.4446
  116OSM    H6G12201   3.650   4.421   9.962 -0.9152  0.0783 -1.7690
  116OSM    C7F12202   3.438   4.429   9.921  0.0390  0.0752 -0.5412
  116OSM    H7F12203   3.420   4.539   9.928 -1.2876 -0.2277  1.7214
  116OSM    H7G12204   3.345   4.383   9.962 -0.3942  1.9007  0.6493
  116OSM    C8F12205   3.465   4.404   9.771 -0.1194 -0.3210  0.5501
  116OSM    H8F12206   3.515   4.305   9.774  0.9387  0.2131  0.8036
  116OSM    H8G12207   3.545   4.465   9.724 -0.4222 -1.5252 -1.6328
  116OSM    C9F12208   3.346   4.395   9.684 -0.3230 -0.1923 -0.2004
  116OSM    H9F12209   3.246   4.406   9.729 -2.0551 -2.2493 -3.2117
  116OSM   C10F12210   3.345   4.354   9.557  0.1284  0.7399  0.3389
  116OSM   H10F12211   3.247   4.344   9.508 -1.0391  4.8709  1.4432
  116OSM   C11F12212   3.468   4.309   9.480  0.2426  1.0229  0.3098
  116OSM   H11F12213   3.460   4.201   9.454  0.6284  0.7392  1.3393
  116OSM   H11G12214   3.559   4.302   9.543  0.7145 -1.1487 -0.5136
  116OSM   C12F12215   3.482   4.402   9.355  0.1817 -0.3556 -0.3412
  116OSM   H12F12216   3.496   4.502   9.403  0.3316 -1.7312  2.6998
  116OSM   H12G12217   3.396   4.412   9.286  0.3365  0.8260 -0.3934
  116OSM   C13F12218   3.610   4.356   9.280  0.5474 -0.4534  0.0306
  116OSM   H13F12219   3.592   4.257   9.235  0.8518  0.0249 -1.1818
  116OSM   H13G12220   3.688   4.353   9.359  0.6845 -0.4704 -0.1048
  116OSM   C14F12221   3.647   4.463   9.173 -0.1532 -0.3103 -0.4281
  116OSM   H14F12222   3.636   4.567   9.209 -0.8595 -0.0951 -1.2378
  116OSM   H14G12223   3.583   4.445   9.084 -1.2422  2.3049 -0.2625
  116OSM   C15F12224   3.794   4.454   9.129  0.3025 -0.0730  0.1708
  116OSM   H15F12225   3.793   4.507   9.031 -3.3742 -0.4247 -0.1411
  116OSM   H15G12226   3.815   4.347   9.105  0.3570  0.0461 -0.3256
  116OSM   C16F12227   3.896   4.499   9.229  0.3430  0.2723 -0.2275
  116OSM   H16F12228   4.001   4.473   9.203  0.7482  0.0822  1.5024
  116OSM   H16G12229   3.882   4.447   9.326  0.5241  0.5228 -0.0681
  116OSM   C17F12230   3.890   4.656   9.257 -0.2840 -0.0462  0.0501
  116OSM   H17F12231   3.969   4.671   9.333  2.4036 -0.8584 -2.4074
  116OSM   H17G12232   3.793   4.691   9.298  0.3790  1.6647  0.2176
  116OSM   C18F12233   3.925   4.745   9.135 -0.6595 -0.0297  0.1744
  116OSM   H18F12234   4.026   4.721   9.098 -1.0472 -1.4483 -0.0276
  116OSM   H18G12235   3.928   4.854   9.159  1.6790  0.5625 -2.2807
  116OSM   H18H12236   3.857   4.740   9.047 -0.4777  0.2633  0.0151
  117OSM      N12237   6.443   4.994  11.119 -0.7358 -0.7564 -0.1662
  117OSM    C1512238   6.303   4.930  11.112 -0.5189 -0.0987 -0.3115
  117OSM   H15A12239   6.279   4.889  11.209 -2.4274  1.2872 -0.1236
  117OSM   H15B12240   6.288   4.867  11.026 -0.8567  0.4300 -0.6525
  117OSM   H15C12241   6.228   5.006  11.092  0.5115  1.1294  0.3021
  117OSM    C1412242   6.470   5.054  10.981  0.6334 -0.2696  0.0423
  117OSM   H14A12243   6.575   5.069  10.960  0.0421  1.4487 -2.0489
  117OSM   H14B12244   6.412   5.141  10.957  0.7238  0.5421  2.5302
  117OSM   H14C12245   6.445   4.978  10.908 -1.1472  0.7708 -0.4812
  117OSM    C1312246   6.444   5.100  11.220 -0.2144 -0.1609 -0.8764
  117OSM   H13A12247   6.374   5.177  11.189  1.3863  1.1842 -1.2998
  117OSM   H13B12248   6.547   5.129  11.232 -0.1636 -0.7563  0.3250
  117OSM   H13C12249   6.404   5.070  11.316 -0.7062  1.0284 -0.6948
  117OSM    C1212250   6.538   4.883  11.147  0.9523  0.1736 -0.5851
  117OSM   H12A12251   6.524   4.812  11.066  0.8987  1.9474 -2.2003
  117OSM   H12B12252   6.511   4.828  11.236  1.6209 -1.1604 -1.1697
  117OSM    C1112253   6.687   4.903  11.151  0.1304 -0.5978  0.1439
  117OSM   H11A12254   6.736   4.806  11.174  2.4238  0.7474  1.3274
  117OSM   H11B12255   6.723   4.969  11.233  1.4487 -1.0991  0.0042
  117OSM      P12256   6.788   4.853  10.914  0.0031 -0.2980  0.3339
  117OSM    O1312257   6.933   4.880  10.898 -0.0493  0.5259 -0.0460
  117OSM    O1412258   6.745   4.712  10.948  0.0338  0.1659  0.0678
  117OSM    O1112259   6.711   4.904  10.778  0.3748  0.2850  0.2935
  117OSM    O1212260   6.728   4.951  11.026 -0.4700  0.6363  0.9668
  117OSM    C1S12261   6.762   5.025  10.716 -0.1675  0.1874 -0.1259
  117OSM    H1S12262   6.873   5.023  10.724 -0.0014 -2.5656 -1.7445
  117OSM    H1T12263   6.721   5.116  10.765 -0.7615 -0.6672  1.0244
  117OSM     NF12264   6.813   5.120  10.491  0.8597 -0.6026 -0.0703
  117OSM    HNF12265   6.768   5.202  10.457  1.8521 -0.6656 -1.6322
  117OSM    C2S12266   6.735   5.019  10.557 -0.0441 -0.0612 -0.4096
  117OSM    H2S12267   6.764   4.919  10.517  0.2492 -0.1228 -0.0473
  117OSM    C3S12268   6.581   5.033  10.545  0.2807  0.0494 -0.0559
  117OSM    H3S12269   6.560   5.138  10.573 -0.0765 -0.5569  2.1978
  117OSM     O312270   6.493   4.960  10.626  0.4878 -0.1914  0.2481
  117OSM    HO312271   6.542   4.942  10.707  0.8865  0.6212  0.1890
  117OSM    C4S12272   6.550   5.002  10.411  0.0792  0.1586 -1.4312
  117OSM    H4S12273   6.564   4.897  10.383 -1.4432 -0.1516 -1.1268
  117OSM    C5S12274   6.493   5.086  10.322 -0.2557  0.1013 -0.5223
  117OSM    H5S12275   6.489   5.192  10.350 -1.9422 -0.0303 -0.2001
  117OSM    C6S12276   6.464   5.051  10.177  0.1498 -0.1979 -0.4980
  117OSM    H6S12277   6.357   5.048  10.150  0.1501  0.8941 -0.6409
  117OSM    H6T12278   6.506   4.954  10.142 -0.0168 -0.0321 -1.1555
  117OSM    C7S12279   6.531   5.157  10.082 -0.3787  0.0621  0.3119
  117OSM    H7S12280   6.642   5.148  10.081 -0.5154 -2.5492  1.1998
  117OSM    H7T12281   6.515   5.262  10.116 -2.0241  0.1100 -0.5331
  117OSM    C8S12282   6.496   5.134   9.928 -0.0530  0.0146  0.3210
  117OSM    H8S12283   6.386   5.139   9.917 -0.0896 -1.7148 -0.3620
  117OSM    H8T12284   6.523   5.032   9.892 -2.0209 -0.6701  0.6512
  117OSM    C9S12285   6.549   5.247   9.845 -0.0765 -0.1515 -0.1855
  117OSM    H9S12286   6.659   5.239   9.861 -0.0601  0.4722  0.0356
  117OSM    H9T12287   6.515   5.339   9.897 -3.1176 -0.6203 -1.1768
  117OSM   C10S12288   6.504   5.238   9.703 -0.0766  0.1543 -0.6316
  117OSM   H10S12289   6.396   5.262   9.696 -0.9028 -2.7649  0.7544
  117OSM   H10T12290   6.526   5.134   9.670 -1.3585 -0.6865  1.0329
  117OSM   C11S12291   6.576   5.338   9.608  0.0734 -0.1548 -0.4055
  117OSM   H11S12292   6.680   5.343   9.646 -0.1375  1.6128  0.0527
  117OSM   H11T12293   6.550   5.446   9.618  0.3215 -0.1878  0.6106
  117OSM   C12S12294   6.570   5.302   9.456  0.1288  0.3297  0.9506
  117OSM   H12S12295   6.464   5.273   9.445 -0.2205  0.7081  2.9780
  117OSM   H12T12296   6.627   5.207   9.461 -0.4820 -0.0506  0.7660
  117OSM   C13S12297   6.623   5.404   9.360  0.6764  0.0070  0.1295
  117OSM   H13S12298   6.706   5.468   9.398 -1.1611  3.8022 -1.7142
  117OSM   H13T12299   6.541   5.478   9.354  1.2283  0.5425 -1.0398
  117OSM   C14S12300   6.654   5.353   9.215  0.6819  0.3184  0.1337
  117OSM   H14S12301   6.725   5.270   9.238  0.7223  1.1143  3.3767
  117OSM   H14T12302   6.708   5.436   9.165  1.9434  0.8939  2.2968
  117OSM   C15S12303   6.530   5.305   9.150  0.3799 -0.0540  0.3325
  117OSM   H15S12304   6.460   5.392   9.147 -0.5223 -0.7891 -1.4628
  117OSM   H15T12305   6.503   5.215   9.209 -1.3626 -0.3197 -0.7996
  117OSM   C16S12306   6.553   5.257   9.004  0.7104  0.6084  0.2548
  117OSM   H16S12307   6.618   5.168   9.007  1.2222  0.9704  0.0170
  117OSM   H16T12308   6.593   5.350   8.959 -1.8631  1.5592 -0.2726
  117OSM   C17S12309   6.420   5.227   8.921  0.0590  0.4889 -0.6368
  117OSM   H17S12310   6.367   5.324   8.915 -0.6515  0.4701  3.0723
  117OSM   H17T12311   6.369   5.152   8.985  2.2639 -0.5357  0.0205
  117OSM   C18S12312   6.447   5.168   8.776 -0.7442  0.0950  0.2610
  117OSM   H18S12313   6.495   5.249   8.718  0.1218 -1.3155 -1.0781
  117OSM   H18T12314   6.349   5.129   8.741 -0.6397  0.7550 -0.8133
  117OSM   H18U12315   6.518   5.082   8.771 -0.0467  0.5905  1.2404
  117OSM    C1F12316   6.943   5.110  10.468 -0.2037 -0.1511  0.5165
  117OSM     OF12317   7.010   5.009  10.502 -0.5173 -0.0552  0.0757
  117OSM    C2F12318   7.008   5.227  10.412  0.1284 -0.0018  0.2327
  117OSM    H2F12319   7.011   5.306  10.490 -3.5073  0.5573 -0.0426
  117OSM    H2G12320   6.947   5.267  10.329 -1.5488 -0.0129  1.4089
  117OSM    C3F12321   7.141   5.199  10.344  0.4132  0.4082  0.2999
  117OSM    H3F12322   7.201   5.170  10.434  0.5378 -0.7178 -0.1286
  117OSM    H3G12323   7.198   5.284  10.302  1.2604  0.2545  1.1020
  117OSM    C4F12324   7.145   5.084  10.243  0.0571  0.6769 -0.4920
  117OSM    H4F12325   7.090   5.000  10.291 -0.8325  1.3230 -0.3604
  117OSM    H4G12326   7.248   5.057  10.210 -0.8324 -0.3220 -2.6729
  117OSM    C5F12327   7.091   5.123  10.104  0.3067  0.8415  0.7163
  117OSM    H5F12328   7.170   5.169  10.041 -0.7771  5.0272  2.0298
  117OSM    H5G12329   7.016   5.204  10.120 -1.3153 -0.5708  0.5560
  117OSM    C6F12330   7.007   5.012  10.034  0.2484 -0.2645 -0.1108
  117OSM    H6F12331   6.939   4.956  10.103 -0.0656  0.3644  0.0958
  117OSM    H6G12332   7.085   4.942   9.996  0.9440  0.9110 -0.8935
  117OSM    C7F12333   6.925   5.059   9.911 -0.1211 -0.0179  0.1347
  117OSM    H7F12334   6.995   5.109   9.840 -1.3719  1.1871 -0.3038
  117OSM    H7G12335   6.859   5.136   9.957  0.4821 -2.1127  4.9948
  117OSM    C8F12336   6.838   4.958   9.840  0.0483 -0.0505 -0.2958
  117OSM    H8F12337   6.778   5.012   9.764  1.9075  1.6459 -0.6197
  117OSM    H8G12338   6.766   4.912   9.912 -1.2914 -0.3717 -1.7905
  117OSM    C9F12339   6.921   4.842   9.794 -0.6709 -0.2756  0.6604
  117OSM    H9F12340   6.941   4.760   9.865  2.5081 -1.6600 -1.5556
  117OSM   C10F12341   6.979   4.828   9.673 -0.0765  0.3857  0.1192
  117OSM   H10F12342   7.035   4.735   9.658 -1.7137 -0.8587  1.2914
  117OSM   C11F12343   6.961   4.919   9.551  0.4777  0.1027 -0.1856
  117OSM   H11F12344   7.060   4.908   9.502  0.8384  1.1294  0.2791
  117OSM   H11G12345   6.964   5.024   9.588 -2.8877 -0.1545  1.1157
  117OSM   C12F12346   6.838   4.885   9.457  0.6923  0.2046  0.4366
  117OSM   H12F12347   6.747   4.906   9.517  1.1031 -0.1482  1.1888
  117OSM   H12G12348   6.838   4.781   9.418  0.4083  0.0520  0.8346
  117OSM   C13F12349   6.824   4.984   9.340 -0.0284  0.0052 -0.8456
  117OSM   H13F12350   6.851   5.082   9.383  0.2665 -0.9791  1.3581
  117OSM   H13G12351   6.720   4.994   9.302 -1.1062 -1.4692  1.4622
  117OSM   C14F12352   6.922   4.947   9.227  0.8553  0.1866  0.1297
  117OSM   H14F12353   6.916   4.837   9.209  0.3413  0.3123 -0.5116
  117OSM   H14G12354   7.024   4.980   9.254  1.0089 -2.0155  2.7297
  117OSM   C15F12355   6.869   5.003   9.097  0.3862  0.0761 -0.1123
  117OSM   H15F12356   6.897   5.107   9.071 -2.8804  0.8869 -0.8029
  117OSM   H15G12357   6.759   5.017   9.096  0.2902 -0.2599  1.7293
  117OSM   C16F12358   6.897   4.913   8.978 -0.1781  0.0481  0.1114
  117OSM   H16F12359   6.812   4.841   8.985  0.7697 -1.2121 -0.7384
  117OSM   H16G12360   6.997   4.865   8.990 -0.0259  0.1761 -0.5829
  117OSM   C17F12361   6.913   4.983   8.843  0.1076 -0.4550 -0.2250
  117OSM   H17F12362   6.992   5.061   8.851  0.3646 -0.2882 -3.1837
  117OSM   H17G12363   6.812   5.026   8.826 -0.5068 -2.0454 -0.7674
  117OSM   C18F12364   6.941   4.891   8.730 -0.0838  0.0543  0.4270
  117OSM   H18F12365   6.933   4.943   8.632 -1.0259  0.6980  0.8262
  117OSM   H18G12366   6.877   4.801   8.722  1.1370 -0.7046 -1.3544
  117OSM   H18H12367   7.042   4.848   8.748 -0.3056  0.5446  3.3505
  118OSM      N12368   1.346   6.234  11.236  0.2347 -0.6300  1.1056
  118OSM    C1512369   1.448   6.164  11.321  1.4399  0.2281 -0.2835
  118OSM   H15A12370   1.530   6.128  11.261  0.5945 -2.0894 -0.1496
  118OSM   H15B12371   1.397   6.095  11.387 -1.5357 -0.8540 -3.3812
  118OSM   H15C12372   1.494   6.231  11.391  0.3887  1.7135 -0.9388
  118OSM    C1412373   1.222   6.249  11.318 -0.0907  1.0240  0.2574
  118OSM   H14A12374   1.144   6.289  11.255 -1.0657 -0.5906  0.3952
  118OSM   H14B12375   1.238   6.308  11.407  0.1614 -0.2380  1.0717
  118OSM   H14C12376   1.182   6.154  11.350 -0.3941  1.0617 -0.0087
  118OSM    C1312377   1.395   6.370  11.205 -0.2564  0.0851  0.1456
  118OSM   H13A12378   1.309   6.427  11.172  0.2061 -0.3849 -2.0468
  118OSM   H13B12379   1.474   6.367  11.131  0.5484  0.6528  0.9743
  118OSM   H13C12380   1.431   6.420  11.293  0.3881  0.4800 -0.3332
  118OSM    C1212381   1.308   6.146  11.110  0.3136  0.4223  0.0788
  118OSM   H12A12382   1.225   6.176  11.048  0.0320  0.2037  0.3475
  118OSM   H12B12383   1.280   6.049  11.149  0.4081 -0.0434 -0.9964
  118OSM    C1112384   1.441   6.121  11.035  0.2716  0.5145 -0.3903
  118OSM   H11A12385   1.508   6.209  11.046 -0.6139  0.9854  1.5295
  118OSM   H11B12386   1.433   6.093  10.928 -0.1548 -0.4155 -0.1258
  118OSM      P12387   1.469   5.869  11.063 -0.1136  0.1174 -0.3249
  118OSM    O1312388   1.561   5.778  11.131 -0.0535  0.3630  0.0427
  118OSM    O1412389   1.330   5.856  11.108 -0.1562 -0.6711  0.3116
  118OSM    O1112390   1.472   5.855  10.910  0.0602  0.5153 -0.6092
  118OSM    O1212391   1.519   6.017  11.092  1.1295  0.3097 -0.1259
  118OSM    C1S12392   1.596   5.875  10.844  0.2309 -0.0352  0.4427
  118OSM    H1S12393   1.675   5.810  10.886  1.5749  0.9482 -0.4974
  118OSM    H1T12394   1.613   5.985  10.841 -0.5630  0.0774 -1.0326
  118OSM     NF12395   1.711   5.891  10.636 -0.5922  0.2733  0.4282
  118OSM    HNF12396   1.724   5.976  10.586 -0.9554 -0.3806 -0.8141
  118OSM    C2S12397   1.587   5.851  10.691 -0.0134  0.3709 -0.4381
  118OSM    H2S12398   1.571   5.743  10.673  1.3836 -0.2949  1.8438
  118OSM    C3S12399   1.466   5.926  10.623 -0.6570 -0.3751  0.0623
  118OSM    H3S12400   1.497   6.031  10.604 -2.1382 -0.1340 -1.1698
  118OSM     O312401   1.342   5.937  10.699  0.1928  0.0552  0.6524
  118OSM    HO312402   1.350   5.911  10.791 -2.9646 -0.3146  0.9244
  118OSM    C4S12403   1.441   5.873  10.481 -0.2348  0.0486 -1.3396
  118OSM    H4S12404   1.467   5.767  10.468 -2.5266 -1.1128  2.1832
  118OSM    C5S12405   1.387   5.938  10.376  0.4221 -0.0773  0.4104
  118OSM    H5S12406   1.343   6.037  10.392  0.2690 -0.1520  0.4542
  118OSM    C6S12407   1.370   5.882  10.238 -0.3589 -0.0649 -0.2802
  118OSM    H6S12408   1.266   5.857  10.209 -0.4900  0.4439 -0.2444
  118OSM    H6T12409   1.421   5.783  10.236  0.7409  0.4599  0.6455
  118OSM    C7S12410   1.440   5.963  10.126 -0.2307  0.8388  0.1378
  118OSM    H7S12411   1.550   5.966  10.140  0.3428 -0.3129 -3.2375
  118OSM    H7T12412   1.401   6.067  10.139  0.8598  1.4120 -0.9061
  118OSM    C8S12413   1.404   5.920   9.985 -0.5894 -0.0454 -0.0690
  118OSM    H8S12414   1.304   5.957   9.955 -0.0760  0.8258 -0.7495
  118OSM    H8T12415   1.404   5.810   9.968  0.3759  0.0850 -1.0959
  118OSM    C9S12416   1.504   5.981   9.882  0.3131  0.6647 -0.0139
  118OSM    H9S12417   1.610   5.956   9.903  0.3889  0.2416 -0.8531
  118OSM    H9T12418   1.493   6.092   9.890 -0.8237  0.4891  1.1800
  118OSM   C10S12419   1.454   5.950   9.740 -0.0959 -0.1994 -0.0608
  118OSM   H10S12420   1.471   6.044   9.683 -0.9249  0.8847  1.4068
  118OSM   H10T12421   1.345   5.928   9.731 -0.4781  1.3151  0.4659
  118OSM   C11S12422   1.534   5.838   9.675  0.2398 -0.0732  0.6159
  118OSM   H11S12423   1.639   5.829   9.711  0.4126  0.6834  0.3243
  118OSM   H11T12424   1.546   5.858   9.567 -0.1733 -2.4884  0.0554
  118OSM   C12S12425   1.461   5.704   9.671 -0.0960 -0.3201 -0.4772
  118OSM   H12S12426   1.358   5.720   9.632  0.0157 -0.5426 -0.8681
  118OSM   H12T12427   1.429   5.668   9.771 -0.0451  2.1870  0.5119
  118OSM   C13S12428   1.531   5.587   9.585 -0.1018  0.1837 -0.4582
  118OSM   H13S12429   1.465   5.499   9.603 -0.1664  0.5401  1.1556
  118OSM   H13T12430   1.622   5.549   9.636 -1.4908 -2.3633  0.3167
  118OSM   C14S12431   1.553   5.625   9.435 -0.7777  0.3778  0.3376
  118OSM   H14S12432   1.638   5.695   9.422  0.0768 -1.1108 -3.4228
  118OSM   H14T12433   1.466   5.683   9.397  0.8590  1.2878 -2.3392
  118OSM   C15S12434   1.568   5.494   9.352 -0.3630 -0.2342 -0.4343
  118OSM   H15S12435   1.485   5.429   9.388  1.8708 -1.7785  2.3843
  118OSM   H15T12436   1.664   5.443   9.375 -0.4092 -0.3761 -0.5558
  118OSM   C16S12437   1.542   5.521   9.200  0.1666 -0.3000 -0.6510
  118OSM   H16S12438   1.435   5.546   9.183  0.3673 -0.1012 -1.6651
  118OSM   H16T12439   1.554   5.423   9.149  0.8735  0.0700 -1.2137
  118OSM   C17S12440   1.637   5.622   9.135  0.2892 -0.4459  0.5586
  118OSM   H17S12441   1.652   5.709   9.203  0.4765  0.1361 -0.2074
  118OSM   H17T12442   1.597   5.659   9.039  2.0050  0.4527  0.1440
  118OSM   C18S12443   1.775   5.557   9.104  0.3422  0.4788  0.5511
  118OSM   H18S12444   1.759   5.464   9.046 -0.9407  0.0756  1.4947
  118OSM   H18T12445   1.822   5.539   9.204  0.0046  0.0162  0.6310
  118OSM   H18U12446   1.839   5.627   9.047 -1.1918  1.3289 -0.1987
  118OSM    C1F12447   1.822   5.808  10.642  0.4177 -0.9213  0.4736
  118OSM     OF12448   1.819   5.707  10.709 -0.0096 -0.7477 -0.7653
  118OSM    C2F12449   1.940   5.844  10.564  0.2617 -0.1888  0.0840
  118OSM    H2F12450   2.027   5.790  10.609 -1.0914 -0.7680  2.1375
  118OSM    H2G12451   1.941   5.954  10.577  0.6040  0.0887 -1.9459
  118OSM    C3F12452   1.928   5.819  10.411  0.0869  0.0268  0.5239
  118OSM    H3F12453   2.028   5.823  10.363  0.3743  1.8718  1.2240
  118OSM    H3G12454   1.861   5.896  10.367 -0.4074 -0.2437  0.7878
  118OSM    C4F12455   1.873   5.679  10.393  0.4186 -0.6137  0.2125
  118OSM    H4F12456   1.763   5.676  10.402  0.4866 -0.7948  1.1182
  118OSM    H4G12457   1.926   5.606  10.459 -0.0824 -0.0727  1.2323
  118OSM    C5F12458   1.893   5.622  10.251  0.0329 -0.0518  0.8983
  118OSM    H5F12459   1.873   5.513  10.264 -0.8892  0.1831  1.4811
  118OSM    H5G12460   1.991   5.646  10.205 -0.2862  0.0427  0.2569
  118OSM    C6F12461   1.782   5.682  10.163  0.7367 -0.4916 -0.6716
  118OSM    H6F12462   1.790   5.792  10.150 -0.7872 -0.5347 -2.3886
  118OSM    H6G12463   1.692   5.652  10.220  2.2340 -0.0244  2.1237
  118OSM    C7F12464   1.770   5.609  10.028  0.0860  0.0588  0.4062
  118OSM    H7F12465   1.671   5.632   9.983  0.3015 -1.8755 -1.1733
  118OSM    H7G12466   1.773   5.500  10.048  2.0069  0.0712  0.3696
  118OSM    C8F12467   1.871   5.634   9.913 -0.0455 -0.1641 -0.6150
  118OSM    H8F12468   1.852   5.561   9.832  0.7685 -1.3696  0.2422
  118OSM    H8G12469   1.970   5.617   9.959 -1.0459 -0.7818  1.4228
  118OSM    C9F12470   1.882   5.777   9.868  0.1877  0.7027 -0.8049
  118OSM    H9F12471   1.862   5.848   9.950  0.8132 -0.2891  0.2436
  118OSM   C10F12472   1.914   5.820   9.742 -0.2159  0.2639  0.4673
  118OSM   H10F12473   1.924   5.928   9.726  1.5519  0.0701 -0.0182
  118OSM   C11F12474   1.963   5.740   9.622  0.6173 -0.0803  0.1539
  118OSM   H11F12475   1.924   5.636   9.625  0.4314  0.0042  0.7794
  118OSM   H11G12476   2.074   5.742   9.629  0.5715 -2.1960  2.7039
  118OSM   C12F12477   1.927   5.801   9.486 -0.6221  0.2854 -0.4248
  118OSM   H12F12478   1.970   5.903   9.482 -1.0455  0.5881  1.6274
  118OSM   H12G12479   1.818   5.819   9.482 -0.6936  0.1024  0.5079
  118OSM   C13F12480   1.965   5.720   9.364 -0.1649 -0.1648  0.1520
  118OSM   H13F12481   1.937   5.788   9.281 -0.0922 -0.3048  0.0121
  118OSM   H13G12482   1.905   5.626   9.369 -2.0074  0.9145 -0.6700
  118OSM   C14F12483   2.117   5.681   9.363  0.5574  0.5990 -0.6903
  118OSM   H14F12484   2.142   5.616   9.450 -1.8615 -0.5547 -0.7692
  118OSM   H14G12485   2.182   5.770   9.374  1.0272  0.2659 -0.7626
  118OSM   C15F12486   2.158   5.617   9.230  0.3387 -0.1231  0.1721
  118OSM   H15F12487   2.148   5.710   9.169 -0.1017  0.5112  1.1869
  118OSM   H15G12488   2.086   5.537   9.204 -0.6965  0.7929  0.1270
  118OSM   C16F12489   2.298   5.548   9.211 -0.3921  0.5049 -0.1641
  118OSM   H16F12490   2.303   5.509   9.107 -2.0386 -1.3549  0.4001
  118OSM   H16G12491   2.308   5.467   9.286  0.0267 -0.0588 -0.8108
  118OSM   C17F12492   2.418   5.641   9.233  0.2167  0.1145  0.1427
  118OSM   H17F12493   2.413   5.670   9.341 -1.2072 -1.1629  0.4627
  118OSM   H17G12494   2.412   5.726   9.162 -2.0364 -0.8087 -0.8776
  118OSM   C18F12495   2.556   5.572   9.207 -0.2804 -0.3337 -0.2330
  118OSM   H18F12496   2.568   5.536   9.103  1.1330  0.8925 -0.5259
  118OSM   H18G12497   2.577   5.507   9.294 -1.4958 -1.3168 -0.6465
  118OSM   H18H12498   2.635   5.650   9.208 -0.6628  0.0944 -1.3759
  119OSM      N12499   0.904   4.506  11.060 -0.1526  0.4806 -0.3239
  119OSM    C1512500   0.774   4.525  10.978 -0.4454 -0.1538  0.1378
  119OSM   H15A12501   0.768   4.437  10.916  3.5412 -1.3253  1.1167
  119OSM   H15B12502   0.789   4.614  10.919 -1.4663  1.8656  2.7430
  119OSM   H15C12503   0.683   4.542  11.034 -0.0651  1.2634  0.3562
  119OSM    C1412504   0.898   4.626  11.155  0.6861  0.3690  0.2162
  119OSM   H14A12505   0.843   4.706  11.108 -0.3956 -0.5580 -0.1551
  119OSM   H14B12506   1.000   4.659  11.166  1.3076 -1.0189 -0.9767
  119OSM   H14C12507   0.859   4.600  11.252  0.3736  1.4979  0.4094
  119OSM    C1312508   0.908   4.381  11.141 -0.6358 -0.6597  1.4541
  119OSM   H13A12509   0.991   4.371  11.209 -0.9696 -1.8527  1.7059
  119OSM   H13B12510   0.914   4.295  11.076  0.0340  1.1100 -0.9641
  119OSM   H13C12511   0.816   4.369  11.197 -2.7594 -1.1984 -1.8851
  119OSM    C1212512   1.025   4.524  10.969  0.5938  0.1802  0.6582
  119OSM   H12A12513   1.035   4.424  10.930  1.6761  1.2468 -2.0402
  119OSM   H12B12514   1.111   4.531  11.034  0.9258  1.7027  0.1030
  119OSM    C1112515   1.030   4.632  10.855  0.1217 -0.2204 -0.1848
  119OSM   H11A12516   0.956   4.606  10.777  0.6995 -0.1026 -0.7786
  119OSM   H11B12517   1.133   4.637  10.813 -0.7045 -0.0258 -2.3044
  119OSM      P12518   1.101   4.875  10.939  0.0425  0.3946 -0.0811
  119OSM    O1312519   1.016   4.994  10.975  0.4062 -0.1583 -0.8984
  119OSM    O1412520   1.218   4.841  11.022 -0.7666 -0.4524 -0.3679
  119OSM    O1112521   1.148   4.891  10.794 -0.0510 -0.9364  0.2296
  119OSM    O1212522   0.994   4.755  10.916 -0.8953 -0.6770 -1.0002
  119OSM    C1S12523   1.071   4.926  10.680 -0.3894  0.2504  0.4268
  119OSM    H1S12524   1.003   5.011  10.701 -1.8782 -0.9062  0.4213
  119OSM    H1T12525   1.018   4.836  10.640 -0.0540 -0.4304  1.4855
  119OSM     NF12526   1.090   4.967  10.432 -0.7037  0.1583 -0.0772
  119OSM    HNF12527   1.101   4.881  10.381  0.1069 -0.2615  0.7688
  119OSM    C2S12528   1.168   4.961  10.553 -0.3233 -0.0068 -0.1402
  119OSM    H2S12529   1.220   5.052  10.590  1.6831 -1.4840  0.8581
  119OSM    C3S12530   1.276   4.854  10.539 -0.0416 -0.0355  0.5796
  119OSM    H3S12531   1.225   4.763  10.499 -1.9366  1.3023 -0.2113
  119OSM     O312532   1.348   4.813  10.661  0.2298  0.5752  0.3695
  119OSM    HO312533   1.280   4.837  10.725  0.0836  2.3272 -0.4069
  119OSM    C4S12534   1.383   4.899  10.443 -0.4913  0.4007  0.1335
  119OSM    H4S12535   1.384   4.843  10.348 -0.0281 -1.1979  1.0481
  119OSM    C5S12536   1.481   4.996  10.454  0.1526  0.6329 -0.1244
  119OSM    H5S12537   1.504   5.040  10.552  1.7309  1.8614 -1.0076
  119OSM    C6S12538   1.578   5.014  10.333  0.2920 -0.3474 -0.2681
  119OSM    H6S12539   1.519   5.038  10.242 -2.0001  4.2763  2.1167
  119OSM    H6T12540   1.639   4.922  10.320  0.2519 -0.2418 -1.2545
  119OSM    C7S12541   1.670   5.134  10.359  0.1389  0.5605 -0.7729
  119OSM    H7S12542   1.733   5.121  10.450  0.6760 -1.1706 -1.3605
  119OSM    H7T12543   1.601   5.221  10.358 -0.5854 -0.0085 -1.7429
  119OSM    C8S12544   1.779   5.165  10.251  0.5376 -0.0285  0.3509
  119OSM    H8S12545   1.831   5.067  10.248  0.3479 -0.1314  0.4305
  119OSM    H8T12546   1.853   5.240  10.286 -0.0953  0.4418  0.7019
  119OSM    C9S12547   1.713   5.209  10.119  0.1913  0.3240 -0.6263
  119OSM    H9S12548   1.663   5.307  10.136  1.7038  1.1407 -0.6704
  119OSM    H9T12549   1.634   5.141  10.082  1.1380 -1.0185 -0.2458
  119OSM   C10S12550   1.801   5.212   9.991 -0.0329  0.3965 -0.0260
  119OSM   H10S12551   1.845   5.111   9.985 -1.1430 -0.0848 -0.2937
  119OSM   H10T12552   1.890   5.278  10.000  1.2495 -0.7499 -3.0302
  119OSM   C11S12553   1.715   5.261   9.871  0.3697 -0.0503 -0.0308
  119OSM   H11S12554   1.690   5.368   9.885 -2.7426 -0.7988  0.8943
  119OSM   H11T12555   1.618   5.206   9.878  1.3887 -1.7297  1.7787
  119OSM   C12S12556   1.782   5.218   9.737  0.0740 -0.5932 -0.6413
  119OSM   H12S12557   1.708   5.208   9.655 -0.5233 -1.4972 -0.0150
  119OSM   H12T12558   1.824   5.119   9.765 -0.0606 -1.0318 -1.9556
  119OSM   C13S12559   1.890   5.319   9.689 -0.2950  0.1010  0.8794
  119OSM   H13S12560   1.965   5.333   9.769  0.8811  3.0472 -0.5983
  119OSM   H13T12561   1.827   5.411   9.679  0.4103  0.6089  1.0634
  119OSM   C14S12562   1.959   5.281   9.561  0.1546  0.2767 -0.7118
  119OSM   H14S12563   2.008   5.182   9.575  0.4979  0.5560  0.0840
  119OSM   H14T12564   2.043   5.349   9.539 -0.5481  1.4477  0.1219
  119OSM   C15S12565   1.870   5.278   9.435  0.2126 -0.2912 -0.0512
  119OSM   H15S12566   1.865   5.382   9.396 -3.2218 -0.5890 -0.6907
  119OSM   H15T12567   1.765   5.259   9.464 -0.5117  2.8313 -0.2501
  119OSM   C16S12568   1.919   5.178   9.335  0.0486  0.2060 -0.5698
  119OSM   H16S12569   1.919   5.080   9.387  1.6092  0.5581  0.1521
  119OSM   H16T12570   2.025   5.191   9.304  0.4216 -0.4493  0.3964
  119OSM   C17S12571   1.840   5.181   9.204 -0.0145  0.0803  0.3395
  119OSM   H17S12572   1.864   5.273   9.147 -2.3934 -0.1311 -1.0998
  119OSM   H17T12573   1.731   5.195   9.219  0.0390  1.1646 -0.1936
  119OSM   C18S12574   1.882   5.054   9.128  0.6716 -0.0437 -0.0232
  119OSM   H18S12575   1.993   5.051   9.120  0.7604  0.1924  0.9633
  119OSM   H18T12576   1.833   5.051   9.029 -0.8817 -0.5732  0.7216
  119OSM   H18U12577   1.847   4.965   9.184 -0.1653  0.8077  0.8496
  119OSM    C1F12578   1.020   5.076  10.394  0.2083 -0.8844 -0.7487
  119OSM     OF12579   0.995   5.162  10.483 -0.6012 -0.1825 -0.0217
  119OSM    C2F12580   0.951   5.078  10.262  0.4960 -0.9626 -0.8996
  119OSM    H2F12581   0.846   5.104  10.286  0.6229 -1.1416 -0.1253
  119OSM    H2G12582   0.942   4.979  10.212 -3.0669 -0.4666 -1.5371
  119OSM    C3F12583   1.002   5.173  10.161 -0.0202 -0.7846  0.4799
  119OSM    H3F12584   1.112   5.161  10.150  0.2931  2.7744 -2.3349
  119OSM    H3G12585   0.999   5.279  10.197  0.5985 -0.9456  1.0240
  119OSM    C4F12586   0.928   5.164  10.030 -0.5040 -0.2234  0.6201
  119OSM    H4F12587   0.943   5.063   9.986  1.2767  0.5096 -0.5465
  119OSM    H4G12588   0.987   5.217   9.953 -0.6054 -0.9342  0.0402
  119OSM    C5F12589   0.791   5.234  10.030 -0.0273  0.3805 -0.1769
  119OSM    H5F12590   0.808   5.338  10.066  0.7616  0.7699 -1.5871
  119OSM    H5G12591   0.725   5.178  10.100 -1.5229 -1.3064 -2.7628
  119OSM    C6F12592   0.721   5.251   9.897 -0.5071 -0.4725  0.4440
  119OSM    H6F12593   0.785   5.300   9.820  1.6841 -1.3558  1.6422
  119OSM    H6G12594   0.639   5.326   9.902 -0.0714 -0.0152  0.8546
  119OSM    C7F12595   0.670   5.118   9.839  0.0286 -0.1848 -0.2849
  119OSM    H7F12596   0.622   5.065   9.924  0.0096  0.8925  0.4010
  119OSM    H7G12597   0.763   5.073   9.799  0.6089  3.3648 -3.5499
  119OSM    C8F12598   0.575   5.146   9.725  0.0459 -0.3783 -0.1123
  119OSM    H8F12599   0.631   5.206   9.650  1.7589 -1.0477  0.5898
  119OSM    H8G12600   0.486   5.199   9.765 -1.5560 -2.5804 -0.5818
  119OSM    C9F12601   0.534   5.014   9.668 -0.2300  0.5768 -0.7306
  119OSM    H9F12602   0.487   4.944   9.739 -1.3634  1.5834 -0.4622
  119OSM   C10F12603   0.560   4.959   9.554  0.4779 -0.5231  0.0458
  119OSM   H10F12604   0.514   4.860   9.538 -0.7786  0.3786 -2.5330
  119OSM   C11F12605   0.628   5.026   9.437 -0.0950 -0.5282 -0.0120
  119OSM   H11F12606   0.708   4.956   9.404  1.2019  0.4195  1.0236
  119OSM   H11G12607   0.666   5.128   9.459 -0.5914 -0.1573 -0.8293
  119OSM   C12F12608   0.533   5.030   9.322  0.0165 -0.7395 -0.1892
  119OSM   H12F12609   0.457   5.110   9.334  1.0350  0.5922 -1.9863
  119OSM   H12G12610   0.480   4.935   9.300  1.4134 -1.6598  0.2527
  119OSM   C13F12611   0.610   5.063   9.199 -0.6246 -0.6819 -0.5056
  119OSM   H13F12612   0.692   4.993   9.174 -1.5918 -1.9427 -0.2709
  119OSM   H13G12613   0.657   5.163   9.206 -0.4863 -0.8045  0.3964
  119OSM   C14F12614   0.509   5.068   9.074  0.0881 -0.3995  0.7070
  119OSM   H14F12615   0.425   5.135   9.100  1.0541  1.1235  0.0004
  119OSM   H14G12616   0.468   4.967   9.052  1.3311 -0.5100 -1.3901
  119OSM   C15F12617   0.575   5.127   8.942  1.1924  0.4845 -0.4451
  119OSM   H15F12618   0.654   5.052   8.921  0.7185 -0.0966 -0.1488
  119OSM   H15G12619   0.612   5.230   8.964  0.3820  0.1472  2.9939
  119OSM   C16F12620   0.467   5.133   8.834 -0.7265  0.1397  0.2033
  119OSM   H16F12621   0.387   5.204   8.865 -1.7741 -0.6570 -0.5949
  119OSM   H16G12622   0.412   5.038   8.822 -2.9358  1.5977 -2.4202
  119OSM   C17F12623   0.525   5.178   8.700 -0.3970  0.2684  0.2961
  119OSM   H17F12624   0.551   5.094   8.632 -1.6956 -0.2605  0.4243
  119OSM   H17G12625   0.616   5.239   8.719  0.2181 -0.0955 -1.2911
  119OSM   C18F12626   0.429   5.264   8.628  0.5246  1.0895 -0.8312
  119OSM   H18F12627   0.482   5.301   8.538  1.3646 -1.0353 -1.2594
  119OSM   H18G12628   0.401   5.346   8.698  2.5089  1.5762 -0.5612
  119OSM   H18H12629   0.338   5.214   8.588  1.4246 -1.3159 -0.0465
  120OSM      N12630   2.162   1.413  10.645  0.3263  0.2037  0.0573
  120OSM    C1512631   2.280   1.458  10.732  0.6010 -0.0963 -0.5863
  120OSM   H15A12632   2.374   1.452  10.679  2.2206  2.8469  1.6237
  120OSM   H15B12633   2.285   1.399  10.822 -1.6453  0.6616  0.0996
  120OSM   H15C12634   2.265   1.561  10.761  0.0120 -0.2929 -0.1805
  120OSM    C1412635   2.160   1.508  10.528 -0.5839  0.2661 -0.0679
  120OSM   H14A12636   2.100   1.470  10.447  1.7507 -0.1990 -1.6561
  120OSM   H14B12637   2.255   1.530  10.482 -1.1841 -0.0580 -1.5187
  120OSM   H14C12638   2.111   1.600  10.556 -0.6640  0.4031 -0.6513
  120OSM    C1312639   2.169   1.268  10.601 -0.1839 -0.1773  0.1626
  120OSM   H13A12640   2.090   1.242  10.531  0.1555 -0.0909 -0.2550
  120OSM   H13B12641   2.169   1.198  10.684  0.6568 -0.8761 -0.4023
  120OSM   H13C12642   2.255   1.261  10.536 -0.6554 -0.5840 -0.4357
  120OSM    C1212643   2.027   1.426  10.721  0.4052  0.3051  0.8058
  120OSM   H12A12644   2.028   1.359  10.805 -1.0186 -2.3198 -1.1115
  120OSM   H12B12645   1.947   1.403  10.652  0.8602 -0.2850  0.4669
  120OSM    C1112646   1.987   1.563  10.783  0.4363 -1.0644 -0.1001
  120OSM   H11A12647   2.073   1.592  10.847 -0.1082  1.2548 -0.3328
  120OSM   H11B12648   1.892   1.551  10.840 -0.0638 -2.1895 -1.1122
  120OSM      P12649   1.846   1.659  10.593  0.1311  0.2190  0.4111
  120OSM    O1312650   1.846   1.522  10.530 -0.1699 -0.1068 -0.3605
  120OSM    O1412651   1.727   1.697  10.664  0.2500  0.2465  0.4531
  120OSM    O1112652   1.860   1.770  10.480  0.7209  0.6492  0.2755
  120OSM    O1212653   1.970   1.671  10.692 -0.2196  0.7592  0.2530
  120OSM    C1S12654   1.951   1.878  10.498  0.0856  0.2361  0.6093
  120OSM    H1S12655   2.046   1.837  10.538  0.3508 -1.2907 -1.3945
  120OSM    H1T12656   1.909   1.953  10.569 -1.4204 -0.5205  0.5623
  120OSM     NF12657   2.098   2.029  10.376 -0.6878  0.7106  0.3898
  120OSM    HNF12658   2.080   2.126  10.360  0.9164  1.2811  1.7555
  120OSM    C2S12659   1.987   1.942  10.358  0.7237  0.3399 -0.3036
  120OSM    H2S12660   2.020   1.861  10.288  0.4948  0.3532 -0.4256
  120OSM    C3S12661   1.861   2.010  10.292 -0.1178  0.7140 -0.1752
  120OSM    H3S12662   1.847   2.090  10.368 -0.8938  0.0090  0.4358
  120OSM     O312663   1.739   1.929  10.295  0.4442 -0.4671  0.2029
  120OSM    HO312664   1.750   1.860  10.361 -0.8561 -1.5048 -0.6115
  120OSM    C4S12665   1.901   2.068  10.155 -0.0490  0.6734 -0.6315
  120OSM    H4S12666   1.931   2.173  10.166  1.5342  0.1820  0.0721
  120OSM    C5S12667   1.891   2.008  10.034  0.5956  0.4281  0.6545
  120OSM    H5S12668   1.856   1.905  10.020  0.2869  0.7878 -1.7213
  120OSM    C6S12669   1.934   2.068   9.902 -0.2777  0.3791  0.4383
  120OSM    H6S12670   1.996   1.999   9.842 -1.8394  0.5385 -1.4882
  120OSM    H6T12671   1.980   2.169   9.912  0.2401  0.6136 -2.9113
  120OSM    C7S12672   1.809   2.094   9.802 -0.3782  0.1681 -0.5341
  120OSM    H7S12673   1.747   2.181   9.832 -2.3000 -2.1260  2.7675
  120OSM    H7T12674   1.747   2.003   9.812  1.5924 -1.2196 -0.4422
  120OSM    C8S12675   1.855   2.108   9.661 -0.2786 -0.2531  0.1337
  120OSM    H8S12676   1.903   2.021   9.611  0.5945  1.2201 -1.7285
  120OSM    H8T12677   1.937   2.182   9.668 -0.3548 -0.3248  3.1108
  120OSM    C9S12678   1.739   2.155   9.574 -0.5040 -0.5143 -0.2875
  120OSM    H9S12679   1.690   2.250   9.603 -0.3876 -0.5433  0.0051
  120OSM    H9T12680   1.655   2.083   9.577 -1.1902  0.2514 -0.7595
  120OSM   C10S12681   1.792   2.174   9.430  0.0007 -0.5754 -0.0127
  120OSM   H10S12682   1.807   2.070   9.394 -1.8272 -0.3225 -1.6945
  120OSM   H10T12683   1.881   2.240   9.433 -0.4252  0.0801 -1.1690
  120OSM   C11S12684   1.671   2.233   9.345  0.2699 -0.2509  0.5552
  120OSM   H11S12685   1.657   2.342   9.365  2.6080  0.0767  0.7111
  120OSM   H11T12686   1.575   2.185   9.373 -1.2259  0.4477 -2.8571
  120OSM   C12S12687   1.703   2.223   9.198 -0.0459 -0.0574  0.1628
  120OSM   H12S12688   1.733   2.117   9.183 -0.1373  0.0290 -0.6481
  120OSM   H12T12689   1.779   2.294   9.158 -1.1515  0.3468 -1.3158
  120OSM   C13S12690   1.583   2.245   9.104 -0.7893  0.1746 -0.2590
  120OSM   H13S12691   1.558   2.352   9.124 -1.1112 -0.2637  2.0421
  120OSM   H13T12692   1.495   2.183   9.129 -1.7796  1.8330  0.5372
  120OSM   C14S12693   1.617   2.210   8.962  0.6715 -0.4094  0.0283
  120OSM   H14S12694   1.666   2.112   8.946 -0.6450 -0.9977 -0.5829
  120OSM   H14T12695   1.685   2.280   8.909 -1.1264 -0.5617 -2.6794
  120OSM   C15S12696   1.483   2.223   8.888 -0.1967 -0.0996  0.6658
  120OSM   H15S12697   1.434   2.322   8.902  0.3969  0.2156  0.5257
  120OSM   H15T12698   1.407   2.155   8.932  0.9861 -0.6266  1.9875
  120OSM   C16S12699   1.505   2.191   8.736  0.5717  0.8386 -0.6547
  120OSM   H16S12700   1.561   2.272   8.685  1.9500  0.2935 -0.0597
  120OSM   H16T12701   1.412   2.184   8.675  1.1082 -0.9667 -1.3338
  120OSM   C17S12702   1.586   2.066   8.711 -0.4155  0.0165  0.4940
  120OSM   H17S12703   1.555   1.986   8.782 -1.6442  0.2344  0.2381
  120OSM   H17T12704   1.696   2.080   8.717 -0.2055 -0.6453 -1.1450
  120OSM   C18S12705   1.579   2.021   8.562 -0.2322 -0.0124  0.4655
  120OSM   H18S12706   1.475   1.986   8.545  0.1413 -2.1064  2.0314
  120OSM   H18T12707   1.656   1.945   8.537 -0.0765  0.0220  0.8238
  120OSM   H18U12708   1.593   2.117   8.507  0.1479  0.7965  1.9093
  120OSM    C1F12709   2.216   1.991  10.406 -0.1249  0.3346 -0.0084
  120OSM     OF12710   2.258   1.874  10.390  0.2922 -0.8246 -0.3809
  120OSM    C2F12711   2.304   2.091  10.464 -0.1443  0.7961 -1.5914
  120OSM    H2F12712   2.314   2.049  10.566 -1.4359 -0.4655 -1.9485
  120OSM    H2G12713   2.263   2.194  10.471 -0.7010  0.5128 -0.5150
  120OSM    C3F12714   2.436   2.084  10.387 -0.1958  0.9892 -0.4736
  120OSM    H3F12715   2.470   1.979  10.383 -3.2922 -0.0911 -1.3623
  120OSM    H3G12716   2.500   2.137  10.460 -0.2991  0.2350  0.1767
  120OSM    C4F12717   2.421   2.155  10.254 -0.3133 -0.5713  0.0500
  120OSM    H4F12718   2.381   2.258  10.267 -0.1693 -0.0455 -3.0063
  120OSM    H4G12719   2.356   2.097  10.185  0.4878  0.4950 -1.6495
  120OSM    C5F12720   2.554   2.173  10.187  0.3123 -0.1001  0.9987
  120OSM    H5F12721   2.587   2.076  10.145 -0.8495  0.2096 -0.6865
  120OSM    H5G12722   2.628   2.217  10.259  0.4669  0.1325  0.6993
  120OSM    C6F12723   2.536   2.276  10.066 -0.3971  0.7349  0.0838
  120OSM    H6F12724   2.526   2.371  10.122 -0.8844 -0.9155  3.0754
  120OSM    H6G12725   2.446   2.247  10.007 -1.1883 -0.8967  1.9308
  120OSM    C7F12726   2.653   2.277   9.964 -0.5107 -0.2380 -0.3508
  120OSM    H7F12727   2.682   2.170   9.955  0.8369  0.1152 -0.4287
  120OSM    H7G12728   2.738   2.340   9.998  1.4920 -2.7447 -0.3933
  120OSM    C8F12729   2.608   2.326   9.823 -0.2687 -0.2626  0.0430
  120OSM    H8F12730   2.525   2.262   9.786 -0.0207  0.7816 -2.5000
  120OSM    H8G12731   2.690   2.316   9.749 -0.3092  2.1045 -0.4183
  120OSM    C9F12732   2.560   2.469   9.828 -0.0368 -0.3391  0.9537
  120OSM    H9F12733   2.468   2.472   9.888  0.2888  2.8451  1.4761
  120OSM   C10F12734   2.591   2.584   9.758  0.1229  0.0776 -0.6706
  120OSM   H10F12735   2.536   2.677   9.777  2.0539  0.6940  2.8665
  120OSM   C11F12736   2.705   2.596   9.665 -0.0914  0.4162 -0.8429
  120OSM   H11F12737   2.777   2.516   9.693 -1.2528  0.4778  2.8950
  120OSM   H11G12738   2.764   2.686   9.691  1.4390 -1.3581  2.4028
  120OSM   C12F12739   2.680   2.596   9.513  0.1032  0.2376  0.2929
  120OSM   H12F12740   2.773   2.600   9.453  1.1302  0.1277  1.8189
  120OSM   H12G12741   2.615   2.686   9.504  0.9063  1.1572  2.7528
  120OSM   C13F12742   2.607   2.468   9.467 -0.1084 -0.3218  0.3854
  120OSM   H13F12743   2.502   2.465   9.502  0.0181  1.5764  1.0416
  120OSM   H13G12744   2.656   2.384   9.521  1.3866  0.8290  0.8864
  120OSM   C14F12745   2.615   2.436   9.313  0.1605 -0.1688 -0.2716
  120OSM   H14F12746   2.612   2.326   9.301 -0.5151 -0.0107 -1.6681
  120OSM   H14G12747   2.710   2.476   9.271  1.9351 -1.5479  2.1804
  120OSM   C15F12748   2.505   2.511   9.245 -0.3589 -0.1754  0.2062
  120OSM   H15F12749   2.524   2.620   9.243 -2.1487  0.1464 -1.4349
  120OSM   H15G12750   2.412   2.493   9.304  0.1668  0.2642  1.1994
  120OSM   C16F12751   2.484   2.459   9.098  0.0422 -0.3584  0.4948
  120OSM   H16F12752   2.401   2.516   9.052  1.4419  0.0445 -1.6750
  120OSM   H16G12753   2.451   2.353   9.103  0.8778 -0.5874  1.4168
  120OSM   C17F12754   2.615   2.478   9.012  0.2087  0.0920  0.3986
  120OSM   H17F12755   2.698   2.420   9.056 -0.7701 -0.6667  1.3058
  120OSM   H17G12756   2.632   2.588   9.004 -1.4781  0.3151 -0.5344
  120OSM   C18F12757   2.587   2.434   8.868 -0.4617 -0.1193  0.4130
  120OSM   H18F12758   2.670   2.446   8.794 -1.1484 -1.1528 -0.5639
  120OSM   H18G12759   2.496   2.482   8.826 -1.0926 -2.1448 -0.6729
  120OSM   H18H12760   2.555   2.327   8.868 -2.9846  0.5722  0.7783
  121OSM      N12761   5.684   4.756  11.281 -0.4601  0.2727  0.0344
  121OSM    C1512762   5.830   4.743  11.331  0.2173 -0.4248  0.4404
  121OSM   H15A12763   5.888   4.682  11.263  0.4697  1.0102 -0.6673
  121OSM   H15B12764   5.826   4.703  11.432 -0.2009  0.7428  0.9079
  121OSM   H15C12765   5.872   4.842  11.330 -0.6979 -0.0318 -0.9235
  121OSM    C1412766   5.593   4.644  11.325  0.2112 -0.1440  0.0794
  121OSM   H14A12767   5.587   4.636  11.433  1.1133  0.8989  0.2364
  121OSM   H14B12768   5.619   4.548  11.283 -1.5580 -1.1049  1.0588
  121OSM   H14C12769   5.488   4.659  11.306 -0.3927 -0.2166  2.8561
  121OSM    C1312770   5.637   4.889  11.332 -0.4748 -0.3921  0.0553
  121OSM   H13A12771   5.641   4.912  11.437  0.8114  1.4978 -0.3562
  121OSM   H13B12772   5.536   4.918  11.305 -0.3385  0.9580  0.8900
  121OSM   H13C12773   5.701   4.969  11.297 -1.6210  1.3942  1.8042
  121OSM    C1212774   5.680   4.759  11.131 -0.3683  0.3783 -0.2201
  121OSM   H12A12775   5.577   4.771  11.102 -1.0322 -2.7589  0.4436
  121OSM   H12B12776   5.703   4.659  11.099 -0.9047  0.2100 -0.0780
  121OSM    C1112777   5.780   4.857  11.061  0.9523  0.0182 -0.2530
  121OSM   H11A12778   5.776   4.963  11.091 -2.7263  0.7426 -2.6825
  121OSM   H11B12779   5.762   4.854  10.951  0.6444  1.4204 -0.2574
  121OSM      P12780   6.009   4.717  10.990  0.3430  0.4266 -0.1284
  121OSM    O1312781   6.131   4.699  11.066  0.6837 -0.4426  1.0585
  121OSM    O1412782   5.938   4.591  10.952 -0.3924  0.3344  0.1816
  121OSM    O1112783   6.021   4.802  10.862  0.2172 -0.1882  0.1298
  121OSM    O1212784   5.914   4.810  11.082  0.0965 -0.1104 -0.2021
  121OSM    C1S12785   6.122   4.776  10.764  0.9176  0.2896 -0.1375
  121OSM    H1S12786   6.090   4.686  10.708  0.7510 -0.7947  1.6384
  121OSM    H1T12787   6.227   4.762  10.798  0.9737  2.6540  0.9114
  121OSM     NF12788   6.237   4.856  10.558  0.5969 -0.1923  0.4418
  121OSM    HNF12789   6.326   4.885  10.594  1.6915 -2.3405 -0.3646
  121OSM    C2S12790   6.125   4.888  10.655 -0.6699 -0.6098 -0.5952
  121OSM    H2S12791   6.030   4.893  10.597 -0.2051  0.8732 -1.2796
  121OSM    C3S12792   6.146   5.020  10.728 -0.3130  0.1505 -0.2659
  121OSM    H3S12793   6.234   5.019  10.796 -1.9966  1.1977  2.0782
  121OSM     O312794   6.031   5.050  10.798  0.1417  0.1678  0.2669
  121OSM    HO312795   5.988   4.967  10.816  0.4158  0.5376  3.0229
  121OSM    C4S12796   6.156   5.133  10.624 -0.0621  0.0309  0.2744
  121OSM    H4S12797   6.073   5.135  10.551 -0.4740  0.9567  0.7478
  121OSM    C5S12798   6.258   5.220  10.605 -0.1393 -0.6017  0.4103
  121OSM    H5S12799   6.356   5.215  10.653  0.4431  3.1617 -0.0886
  121OSM    C6S12800   6.259   5.324  10.488 -0.1130  0.0863  0.1562
  121OSM    H6S12801   6.364   5.350  10.461 -0.1682 -0.0562 -0.2015
  121OSM    H6T12802   6.231   5.423  10.527 -1.3277  0.9235 -2.5861
  121OSM    C7S12803   6.185   5.287  10.358 -0.0858 -0.2071 -0.1225
  121OSM    H7S12804   6.078   5.273  10.380 -0.2517  0.1573 -0.6518
  121OSM    H7T12805   6.222   5.187  10.327 -2.1912 -0.7700 -0.9510
  121OSM    C8S12806   6.204   5.402  10.254 -0.8179  1.1918  0.6349
  121OSM    H8S12807   6.313   5.425  10.251  0.0252 -1.9020  2.9960
  121OSM    H8T12808   6.143   5.489  10.288 -0.9873  0.9657  0.9084
  121OSM    C9S12809   6.164   5.361  10.117  0.9729 -0.1564 -0.0855
  121OSM    H9S12810   6.061   5.319  10.121  0.5426  0.9412  3.0421
  121OSM    H9T12811   6.231   5.282  10.075  0.6189 -0.7093  0.3811
  121OSM   C10S12812   6.173   5.476  10.014 -0.1651 -0.2077 -0.0461
  121OSM   H10S12813   6.278   5.513  10.008 -0.6795  1.7745  1.9917
  121OSM   H10T12814   6.123   5.566  10.055  0.0646  1.1312 -2.5137
  121OSM   C11S12815   6.113   5.441   9.874 -0.3092 -0.4711 -0.3234
  121OSM   H11S12816   6.002   5.448   9.885 -0.3799 -0.8732 -0.7378
  121OSM   H11T12817   6.144   5.338   9.846 -1.5755 -0.9146 -0.1540
  121OSM   C12S12818   6.157   5.538   9.769 -0.3474  0.3392  0.3667
  121OSM   H12S12819   6.268   5.552   9.772 -0.3296  0.4892 -0.6158
  121OSM   H12T12820   6.124   5.644   9.779  1.0409  0.7261  1.1492
  121OSM   C13S12821   6.128   5.485   9.629 -0.0252  0.2409  0.6984
  121OSM   H13S12822   6.019   5.465   9.629 -0.3013  1.6315 -0.3148
  121OSM   H13T12823   6.185   5.394   9.602  0.8988  0.7455  0.9068
  121OSM   C14S12824   6.173   5.575   9.510 -0.5427 -0.3924 -0.1292
  121OSM   H14S12825   6.279   5.609   9.511 -0.8164  0.7961 -2.6682
  121OSM   H14T12826   6.112   5.668   9.523  2.2326  1.6246 -0.6869
  121OSM   C15S12827   6.129   5.514   9.367 -0.0585 -0.0110  0.5099
  121OSM   H15S12828   6.023   5.482   9.371  0.1524 -0.6874  0.8248
  121OSM   H15T12829   6.187   5.420   9.352  0.6592  0.4282  0.4923
  121OSM   C16S12830   6.132   5.624   9.258 -0.1346  0.3823  0.1453
  121OSM   H16S12831   6.233   5.670   9.260  0.7142 -1.3900 -0.0406
  121OSM   H16T12832   6.048   5.694   9.276 -0.6451 -0.3880  0.8255
  121OSM   C17S12833   6.114   5.568   9.112 -0.1350  0.3185  0.5263
  121OSM   H17S12834   6.021   5.507   9.107 -0.4754  0.3961  3.8370
  121OSM   H17T12835   6.186   5.492   9.075 -0.7336  0.4839 -1.0617
  121OSM   C18S12836   6.092   5.672   9.006 -0.3145 -0.0689  1.0071
  121OSM   H18S12837   6.193   5.685   8.959 -0.1172 -0.9335  1.1873
  121OSM   H18T12838   6.066   5.777   9.031 -0.1749  0.7730 -1.9319
  121OSM   H18U12839   6.022   5.640   8.926  2.0532 -2.7666 -0.1889
  121OSM    C1F12840   6.236   4.753  10.469  0.8341  0.3407 -0.4607
  121OSM     OF12841   6.129   4.695  10.449 -0.1275 -0.7246 -0.2220
  121OSM    C2F12842   6.363   4.692  10.423 -0.4479 -0.1609 -0.8961
  121OSM    H2F12843   6.384   4.595  10.473  2.0659  0.8628  0.1792
  121OSM    H2G12844   6.443   4.752  10.473 -1.6029  0.1002  0.7397
  121OSM    C3F12845   6.372   4.693  10.272  0.3678  0.0697  0.2872
  121OSM    H3F12846   6.352   4.790  10.221 -3.4427 -0.0639  1.2845
  121OSM    H3G12847   6.289   4.624  10.246  1.3532 -1.2453  0.5313
  121OSM    C4F12848   6.493   4.620  10.205 -1.0409 -0.0514  0.3650
  121OSM    H4F12849   6.488   4.512  10.233 -1.4691 -0.0098  0.4545
  121OSM    H4G12850   6.591   4.659  10.241 -0.7609  0.2672 -0.7094
  121OSM    C5F12851   6.494   4.632  10.050 -0.0636 -0.1902 -0.1141
  121OSM    H5F12852   6.594   4.619  10.003  0.5353  2.6927  0.1573
  121OSM    H5G12853   6.465   4.734  10.017  2.9308  0.9692  0.5582
  121OSM    C6F12854   6.394   4.525   9.991 -0.4339 -0.5309  0.1141
  121OSM    H6F12855   6.293   4.538  10.034 -0.1824 -0.6801  0.7662
  121OSM    H6G12856   6.438   4.427  10.021 -0.1874 -0.0643  1.3140
  121OSM    C7F12857   6.393   4.541   9.841 -0.1411 -0.2183 -0.1411
  121OSM    H7F12858   6.495   4.506   9.811 -0.1754 -0.1566 -0.3344
  121OSM    H7G12859   6.372   4.645   9.808 -0.5792 -0.1393  0.3875
  121OSM    C8F12860   6.288   4.446   9.789  0.1650  0.4456  0.2497
  121OSM    H8F12861   6.292   4.346   9.837 -0.7043  1.6588  3.0521
  121OSM    H8G12862   6.321   4.427   9.684  1.7807  3.3700  0.1166
  121OSM    C9F12863   6.156   4.521   9.803 -0.4951 -0.2394 -0.3253
  121OSM    H9F12864   6.151   4.585   9.892 -0.0090  1.2913 -1.3634
  121OSM   C10F12865   6.050   4.522   9.717  0.3334  0.3603  0.8396
  121OSM   H10F12866   5.966   4.590   9.738  1.2974  1.4207  1.4135
  121OSM   C11F12867   6.046   4.442   9.588 -0.0755 -0.0940 -0.2146
  121OSM   H11F12868   5.940   4.419   9.564 -0.9794  0.4727  2.7820
  121OSM   H11G12869   6.088   4.341   9.610 -1.5796 -0.6559  0.2218
  121OSM   C12F12870   6.117   4.511   9.461  0.4594 -0.0501 -0.1534
  121OSM   H12F12871   6.225   4.522   9.483  0.5148  0.0899 -0.4968
  121OSM   H12G12872   6.077   4.614   9.461 -0.3581 -0.3035 -2.4711
  121OSM   C13F12873   6.098   4.423   9.340 -0.0539 -0.8250  0.1850
  121OSM   H13F12874   6.000   4.381   9.311 -0.3784  0.4169 -0.5965
  121OSM   H13G12875   6.172   4.343   9.361  0.2688 -0.6365 -0.2402
  121OSM   C14F12876   6.159   4.487   9.213  1.0310 -0.0394 -0.2818
  121OSM   H14F12877   6.260   4.523   9.244  2.7873 -0.9346 -4.3290
  121OSM   H14G12878   6.102   4.577   9.181 -0.9218  0.2588  3.4784
  121OSM   C15F12879   6.177   4.395   9.097 -0.6784 -0.0094 -0.8016
  121OSM   H15F12880   6.098   4.407   9.020 -0.3350  1.7352 -0.9106
  121OSM   H15G12881   6.166   4.288   9.128 -1.1651  0.7683  1.9920
  121OSM   C16F12882   6.320   4.400   9.034 -0.3501  0.3398 -0.0082
  121OSM   H16F12883   6.407   4.363   9.093 -1.4615 -1.1514  0.8017
  121OSM   H16G12884   6.339   4.503   8.998  2.0072 -0.2510 -0.6254
  121OSM   C17F12885   6.320   4.328   8.899 -0.2604  1.1280 -0.3673
  121OSM   H17F12886   6.302   4.220   8.916  3.6598  0.1227 -1.4394
  121OSM   H17G12887   6.426   4.315   8.868 -0.4748  0.9873 -1.0792
  121OSM   C18F12888   6.234   4.379   8.788  1.0825 -0.2780 -0.1233
  121OSM   H18F12889   6.265   4.337   8.690 -2.0457 -0.6959 -1.0394
  121OSM   H18G12890   6.260   4.487   8.775  1.4578 -0.1901  1.2719
  121OSM   H18H12891   6.126   4.361   8.806  1.2645 -0.6565  0.6241
  122OSM      N12892   0.244   3.844  11.133  0.1922 -0.9852  0.2783
  122OSM    C1512893   0.211   3.987  11.113  0.2802 -0.7582 -0.4368
  122OSM   H15A12894   0.190   4.041  11.204  2.3806  0.3838 -0.5594
  122OSM   H15B12895   0.111   3.993  11.074 -0.7119  1.2209  2.2007
  122OSM   H15C12896   0.278   4.036  11.043 -1.9431 -0.1265 -2.2299
  122OSM    C1412897   0.354   3.827  11.235 -0.2091  0.9376 -0.3726
  122OSM   H14A12898   0.315   3.847  11.333  0.0076  1.0080 -0.2997
  122OSM   H14B12899   0.435   3.897  11.216  1.8521 -1.4826 -1.0988
  122OSM   H14C12900   0.399   3.729  11.234 -0.2842  0.9008 -0.1018
  122OSM    C1312901   0.127   3.759  11.173 -0.4383 -0.4328 -0.0687
  122OSM   H13A12902   0.157   3.656  11.176  2.8286  0.3519 -1.1116
  122OSM   H13B12903   0.042   3.773  11.107 -1.8084 -1.4070  1.4139
  122OSM   H13C12904   0.099   3.787  11.273 -0.7374  1.7968 -0.7167
  122OSM    C1212905   0.305   3.793  11.003  0.3657  0.2260  0.2460
  122OSM   H12A12906   0.366   3.706  11.025  1.9815  1.2050 -0.1825
  122OSM   H12B12907   0.374   3.868  10.967 -0.1315  0.5597 -0.0307
  122OSM    C1112908   0.216   3.771  10.872  0.4453  0.3311 -0.3396
  122OSM   H11A12909   0.276   3.764  10.779 -0.0939  0.7143 -0.7205
  122OSM   H11B12910   0.161   3.865  10.855 -0.0805  0.0210 -0.3849
  122OSM      P12911  -0.004   3.647  10.782 -0.1258  0.5476  0.2809
  122OSM    O1312912  -0.090   3.540  10.836  0.7209  0.1584 -0.0810
  122OSM    O1412913  -0.069   3.774  10.758  0.8746  0.5865 -0.3559
  122OSM    O1112914   0.079   3.604  10.657  0.1266  0.2381 -0.5338
  122OSM    O1212915   0.121   3.666  10.882 -0.0248 -0.4112  0.2520
  122OSM    C1S12916   0.013   3.587  10.531  0.3633  0.1261 -0.3806
  122OSM    H1S12917  -0.097   3.601  10.538  0.6724  2.7438  0.2854
  122OSM    H1T12918   0.015   3.477  10.516 -0.2837  0.1174 -0.4323
  122OSM     NF12919  -0.009   3.660  10.296  0.3635 -0.3967  0.2767
  122OSM    HNF12920   0.015   3.599  10.221 -1.2275  2.3335 -2.6562
  122OSM    C2S12921   0.082   3.650  10.403 -0.5708  0.3882 -0.0386
  122OSM    H2S12922   0.110   3.753  10.434  0.5086 -0.5072  2.1802
  122OSM    C3S12923   0.215   3.580  10.376  0.2187  0.1063 -0.0016
  122OSM    H3S12924   0.192   3.473  10.357 -1.0533  0.3594  0.0181
  122OSM     O312925   0.311   3.594  10.476  0.4961  0.4922 -0.4879
  122OSM    HO312926   0.274   3.651  10.544  0.1185  1.1383 -1.2173
  122OSM    C4S12927   0.271   3.632  10.245 -0.1211 -0.4930 -0.5469
  122OSM    H4S12928   0.255   3.561  10.163  1.8795 -1.2726 -0.3144
  122OSM    C5S12929   0.342   3.744  10.218 -0.5838 -0.2265 -0.6940
  122OSM    H5S12930   0.379   3.808  10.299  0.4869 -2.4811  0.7025
  122OSM    C6S12931   0.393   3.779  10.084  0.6279 -0.1122  0.3641
  122OSM    H6S12932   0.457   3.696  10.045  1.8334  0.0980  1.7817
  122OSM    H6T12933   0.448   3.874  10.098 -2.1349  1.6667 -0.2209
  122OSM    C7S12934   0.275   3.815   9.986 -0.1386 -0.0813 -0.0810
  122OSM    H7S12935   0.228   3.910  10.021 -1.7243 -1.2085  1.0096
  122OSM    H7T12936   0.201   3.732   9.985  0.9352 -1.0696 -1.1241
  122OSM    C8S12937   0.325   3.846   9.841  0.5448 -0.2319 -0.4123
  122OSM    H8S12938   0.378   3.757   9.800 -0.7020 -1.8730  1.3285
  122OSM    H8T12939   0.399   3.927   9.855 -1.0141  1.0020  1.1954
  122OSM    C9S12940   0.203   3.897   9.762 -0.0743  0.4045 -0.8750
  122OSM    H9S12941   0.147   3.975   9.818  1.0678  1.3006 -0.9381
  122OSM    H9T12942   0.125   3.821   9.741  1.3873 -1.7366  0.9371
  122OSM   C10S12943   0.238   3.941   9.621 -0.1239  0.6966  0.0161
  122OSM   H10S12944   0.272   3.851   9.566  0.7233  0.6243  0.6432
  122OSM   H10T12945   0.320   4.015   9.631  3.4279 -2.8162 -0.7745
  122OSM   C11S12946   0.124   3.995   9.536  0.2638 -0.0495  0.4923
  122OSM   H11S12947   0.088   4.091   9.579  1.9752  0.5559  0.6537
  122OSM   H11T12948   0.038   3.927   9.521 -1.1987  1.2986  2.3162
  122OSM   C12S12949   0.169   4.043   9.393 -0.9693  0.2589 -0.3816
  122OSM   H12S12950   0.193   3.947   9.342  0.1990 -1.4249  3.0034
  122OSM   H12T12951   0.261   4.101   9.419 -0.4408 -1.6256  2.4074
  122OSM   C13S12952   0.063   4.122   9.324  0.3215  1.0123  0.6146
  122OSM   H13S12953   0.047   4.221   9.373 -0.5851  0.9741  0.4090
  122OSM   H13T12954  -0.035   4.071   9.328 -0.3638  2.1367 -0.8938
  122OSM   C14S12955   0.090   4.139   9.174 -0.5378 -1.1084  0.5739
  122OSM   H14S12956   0.054   4.046   9.125  0.1766 -1.3210  0.4277
  122OSM   H14T12957   0.200   4.152   9.163 -0.3962 -1.1961  1.8117
  122OSM   C15S12958   0.027   4.264   9.115 -0.1815  0.1704 -0.0686
  122OSM   H15S12959   0.064   4.358   9.162 -1.4270  0.4886  0.2951
  122OSM   H15T12960  -0.083   4.258   9.127 -0.1993 -1.5098 -0.8141
  122OSM   C16S12961   0.054   4.283   8.962 -0.2288  0.3528 -0.0482
  122OSM   H16S12962  -0.025   4.240   8.898  0.7845 -2.8603  0.6496
  122OSM   H16T12963   0.150   4.244   8.922 -0.6462 -1.5268  0.6511
  122OSM   C17S12964   0.076   4.430   8.926  0.2813 -0.2259 -0.2253
  122OSM   H17S12965   0.076   4.434   8.815  0.0760  0.0661 -0.2159
  122OSM   H17T12966   0.176   4.467   8.958 -0.1479  0.6395  0.1551
  122OSM   C18S12967  -0.027   4.525   8.984  0.4851  0.1822 -0.0626
  122OSM   H18S12968  -0.061   4.601   8.910  1.0571  0.7047  0.1974
  122OSM   H18T12969   0.017   4.580   9.070  1.7353  2.6386 -2.1125
  122OSM   H18U12970  -0.119   4.468   9.008  0.2898  0.4144 -0.2460
  122OSM    C1F12971  -0.127   3.728  10.293  0.2407 -0.3774  0.3130
  122OSM     OF12972  -0.160   3.810  10.383 -0.1198 -0.1258  0.0969
  122OSM    C2F12973  -0.224   3.700  10.179 -0.4454  1.3759 -0.1870
  122OSM    H2F12974  -0.295   3.621  10.211 -0.4333  1.1093 -0.7922
  122OSM    H2G12975  -0.163   3.651  10.100 -0.4457 -0.4601  0.8943
  122OSM    C3F12976  -0.303   3.816  10.130  0.1418 -0.4382 -0.0544
  122OSM    H3F12977  -0.334   3.872  10.221 -1.2874 -1.2134 -0.0519
  122OSM    H3G12978  -0.389   3.785  10.069  0.2324  1.1528 -1.0585
  122OSM    C4F12979  -0.219   3.907  10.041  0.2946  0.2216  0.3049
  122OSM    H4F12980  -0.121   3.938  10.084  0.9264  0.8231 -1.5003
  122OSM    H4G12981  -0.275   4.002  10.036  1.7870  1.0757 -1.4814
  122OSM    C5F12982  -0.176   3.852   9.899  0.2270  0.2327  0.6549
  122OSM    H5F12983  -0.115   3.761   9.916  1.6678  1.1940  0.7849
  122OSM    H5G12984  -0.120   3.923   9.834  0.5375  0.5412  1.2480
  122OSM    C6F12985  -0.289   3.818   9.805 -0.1377  1.3246 -0.5589
  122OSM    H6F12986  -0.354   3.744   9.856 -1.4288  2.6730 -0.1624
  122OSM    H6G12987  -0.254   3.766   9.713 -2.0176 -1.5787  0.2318
  122OSM    C7F12988  -0.384   3.929   9.766  0.1992 -0.1606  0.1621
  122OSM    H7F12989  -0.428   3.970   9.860  0.1380  0.7723 -0.2620
  122OSM    H7G12990  -0.467   3.896   9.700  1.3297  1.6441 -2.3016
  122OSM    C8F12991  -0.317   4.040   9.680 -0.2837 -0.6017  0.3335
  122OSM    H8F12992  -0.236   4.092   9.735 -1.4496  3.0172 -1.0158
  122OSM    H8G12993  -0.398   4.116   9.668  0.5029  0.4176  1.2783
  122OSM    C9F12994  -0.263   3.975   9.551 -0.2033  0.6204  0.2767
  122OSM    H9F12995  -0.187   3.897   9.566  0.6545  0.7134 -2.9049
  122OSM   C10F12996  -0.308   4.004   9.427 -0.5213  0.1337 -0.1929
  122OSM   H10F12997  -0.279   3.941   9.341  0.4776 -0.3560  0.4768
  122OSM   C11F12998  -0.410   4.111   9.392 -0.0936 -0.1937  0.2768
  122OSM   H11F12999  -0.406   4.138   9.284  0.5557  0.8965  0.5634
  122OSM   H11G13000  -0.402   4.200   9.457  2.4840 -0.2501  0.1403
  122OSM   C12F13001  -0.553   4.045   9.415  0.7594  0.4281  0.7810
  122OSM   H12F13002  -0.625   4.129   9.412  1.9531  1.4723  0.9375
  122OSM   H12G13003  -0.567   4.010   9.519 -1.1948  0.9065  0.7184
  122OSM   C13F13004  -0.585   3.926   9.316  0.3021  0.2061  0.5761
  122OSM   H13F13005  -0.688   3.893   9.340 -0.5596  1.5191 -1.1039
  122OSM   H13G13006  -0.516   3.842   9.338  0.6099  0.2759 -0.1149
  122OSM   C14F13007  -0.583   3.962   9.167  0.0639  0.6901 -0.6139
  122OSM   H14F13008  -0.481   3.997   9.144  1.0098 -0.4338  1.5737
  122OSM   H14G13009  -0.650   4.049   9.147  0.3730  1.0341 -0.1718
  122OSM   C15F13010  -0.611   3.835   9.075 -0.0506 -0.1390  0.7127
  122OSM   H15F13011  -0.715   3.808   9.102 -0.0918  0.3080  1.0098
  122OSM   H15G13012  -0.539   3.752   9.092  0.9317  0.9053  1.9229
  122OSM   C16F13013  -0.590   3.871   8.932  0.5578  0.5305 -0.2810
  122OSM   H16F13014  -0.554   3.775   8.891 -1.8845 -0.1195 -1.0484
  122OSM   H16G13015  -0.508   3.945   8.916  1.8165 -1.1469 -1.9677
  122OSM   C17F13016  -0.723   3.906   8.855 -0.3955 -0.1105 -0.2713
  122OSM   H17F13017  -0.772   3.983   8.918  1.2212  0.4053  0.3984
  122OSM   H17G13018  -0.787   3.815   8.852  0.5810 -0.7923 -1.7052
  122OSM   C18F13019  -0.710   3.966   8.715 -0.1802  0.3056  0.0076
  122OSM   H18F13020  -0.693   4.075   8.722 -1.3740  0.4041  2.1896
  122OSM   H18G13021  -0.800   3.949   8.652 -0.5852 -1.0493  0.9065
  122OSM   H18H13022  -0.634   3.916   8.651  0.1617 -0.3350  0.8826
  123OSM      N13023   6.137   3.183   6.323  0.4461 -0.1436 -0.4125
  123OSM    C1513024   6.158   3.189   6.176  0.9671  0.1629 -1.1737
  123OSM   H15A13025   6.232   3.117   6.144  0.7100 -1.6934  1.9259
  123OSM   H15B13026   6.196   3.287   6.149  1.3520  0.9655  1.8262
  123OSM   H15C13027   6.064   3.164   6.131  1.3651 -3.6437 -0.2153
  123OSM    C1413028   6.266   3.202   6.413  0.0733 -0.4986  0.0592
  123OSM   H14A13029   6.340   3.128   6.386  0.6360 -0.5275  1.5656
  123OSM   H14B13030   6.247   3.202   6.520  2.1499  1.6200  0.4910
  123OSM   H14C13031   6.319   3.295   6.398  0.7733 -0.8195  0.4873
  123OSM    C1313032   6.035   3.285   6.355 -0.3303 -0.1271  0.3159
  123OSM   H13A13033   6.062   3.379   6.309 -1.3635  0.6308  1.1885
  123OSM   H13B13034   6.015   3.295   6.460 -0.2297 -0.1184  0.3337
  123OSM   H13C13035   5.942   3.249   6.313 -1.0694 -0.4491  2.1541
  123OSM    C1213036   6.077   3.041   6.353  0.5704 -0.5206  0.1278
  123OSM   H12A13037   5.977   3.030   6.313 -0.2339  1.3417  1.4772
  123OSM   H12B13038   6.058   3.033   6.459 -1.2767  0.1755 -0.1147
  123OSM    C1113039   6.165   2.918   6.315  0.1604 -0.2303 -0.2631
  123OSM   H11A13040   6.126   2.829   6.369 -0.1239 -0.5034 -0.9074
  123OSM   H11B13041   6.270   2.928   6.352  0.3460  1.5972 -1.1763
  123OSM      P13042   6.293   2.834   6.111 -0.6217  0.1293  0.2325
  123OSM    O1313043   6.257   2.772   5.978 -0.0508 -0.4557 -0.0309
  123OSM    O1413044   6.387   2.950   6.101  0.1642  0.0636  0.0255
  123OSM    O1113045   6.347   2.726   6.215 -0.2879 -0.6197 -0.1705
  123OSM    O1213046   6.166   2.895   6.176  0.5340 -0.6154  0.1863
  123OSM    C1S13047   6.473   2.733   6.285 -0.2260 -0.0957  0.4637
  123OSM    H1S13048   6.530   2.824   6.255  1.6965 -1.7101 -1.0824
  123OSM    H1T13049   6.540   2.661   6.234  1.5999  2.9224 -1.7643
  123OSM     NF13050   6.600   2.728   6.504 -0.4652 -0.6700 -0.3852
  123OSM    HNF13051   6.655   2.648   6.527  0.6341 -0.1109 -0.9969
  123OSM    C2S13052   6.467   2.711   6.444 -0.1969  0.1009  1.0066
  123OSM    H2S13053   6.396   2.787   6.484 -1.0049 -0.6112  0.9609
  123OSM    C3S13054   6.406   2.570   6.463 -0.0545  0.1785  0.2304
  123OSM    H3S13055   6.483   2.497   6.432  1.7397  1.9206  0.3668
  123OSM     O313056   6.304   2.533   6.375 -0.3166  0.0656  0.0057
  123OSM    HO313057   6.306   2.611   6.319 -0.5371 -0.3565 -0.6050
  123OSM    C4S13058   6.370   2.546   6.611 -0.6209  0.3799  1.3616
  123OSM    H4S13059   6.302   2.622   6.651 -0.0422  1.8969 -0.3643
  123OSM    C5S13060   6.412   2.452   6.691  0.2108  0.3412  0.7614
  123OSM    H5S13061   6.474   2.368   6.657  0.8425  1.1104 -0.0367
  123OSM    C6S13062   6.373   2.438   6.834 -0.1964  0.4316  0.4761
  123OSM    H6S13063   6.455   2.386   6.889  1.8922  0.3799 -2.4401
  123OSM    H6T13064   6.284   2.372   6.842  2.3728 -3.5870 -1.1664
  123OSM    C7S13065   6.353   2.578   6.913  0.1506 -0.8417  0.0052
  123OSM    H7S13066   6.280   2.636   6.853 -0.3869  1.3319  2.5918
  123OSM    H7T13067   6.449   2.634   6.916  0.0499 -0.6785  0.1656
  123OSM    C8S13068   6.309   2.559   7.058 -0.0135 -0.1526 -0.5084
  123OSM    H8S13069   6.389   2.516   7.121 -0.0299 -0.0675 -0.4288
  123OSM    H8T13070   6.230   2.481   7.047 -0.4819  0.5377 -2.5372
  123OSM    C9S13071   6.237   2.685   7.121  0.1431  0.8291  0.2772
  123OSM    H9S13072   6.138   2.717   7.081  0.4164  0.3105 -0.8470
  123OSM    H9T13073   6.299   2.774   7.098 -2.1166  2.1238 -1.2082
  123OSM   C10S13074   6.225   2.670   7.269  0.5470 -0.1437 -0.0673
  123OSM   H10S13075   6.325   2.684   7.316 -0.3261 -0.0924  1.8786
  123OSM   H10T13076   6.173   2.579   7.306 -0.0924  0.0976 -0.3483
  123OSM   C11S13077   6.126   2.771   7.320  0.1170 -0.3529 -0.3324
  123OSM   H11S13078   6.019   2.743   7.307 -0.0976  0.3032 -0.0363
  123OSM   H11T13079   6.133   2.876   7.287  0.5798 -0.0475  0.6871
  123OSM   C12S13080   6.150   2.784   7.481  0.0563  0.2475  0.3834
  123OSM   H12S13081   6.258   2.801   7.501  0.2507  0.9894 -1.1740
  123OSM   H12T13082   6.121   2.682   7.513 -1.0292 -1.2791 -4.6207
  123OSM   C13S13083   6.058   2.888   7.542 -0.2009  0.7882  0.1877
  123OSM   H13S13084   5.959   2.873   7.494 -0.5137 -1.1044  1.3049
  123OSM   H13T13085   6.087   2.988   7.504  3.1302 -0.9174 -2.2529
  123OSM   C14S13086   6.039   2.900   7.696 -0.3862 -0.2573  0.1672
  123OSM   H14S13087   6.133   2.945   7.736 -0.0882 -1.0438  0.3836
  123OSM   H14T13088   6.034   2.797   7.738 -0.2288 -0.2765  0.1432
  123OSM   C15S13089   5.915   2.981   7.742 -0.3728  0.5749 -0.5505
  123OSM   H15S13090   5.832   2.923   7.696  0.4135 -1.4446  0.4450
  123OSM   H15T13091   5.915   3.088   7.713  0.7727  0.9042  0.5730
  123OSM   C16S13092   5.896   2.977   7.899 -0.0506  0.2429  0.0352
  123OSM   H16S13093   5.883   2.869   7.920 -0.9248  0.1343 -0.9724
  123OSM   H16T13094   5.806   3.036   7.925 -1.4959 -1.7230 -0.3605
  123OSM   C17S13095   6.010   3.049   7.980 -0.2278  0.4472 -0.3863
  123OSM   H17S13096   6.108   2.998   7.971 -0.8150 -0.8345  0.3179
  123OSM   H17T13097   5.989   3.053   8.089 -0.0929 -2.2140 -0.2119
  123OSM   C18S13098   6.054   3.194   7.938  1.0571 -0.2542 -0.8482
  123OSM   H18S13099   6.135   3.237   8.000  1.6521 -1.6402 -0.6058
  123OSM   H18T13100   5.964   3.258   7.932  1.1632  0.0868  0.8776
  123OSM   H18U13101   6.101   3.193   7.837 -0.9212 -2.5703 -1.8538
  123OSM    C1F13102   6.669   2.844   6.504 -0.0023 -0.5660 -1.0206
  123OSM     OF13103   6.613   2.947   6.466 -0.1078  1.2062  0.4643
  123OSM    C2F13104   6.813   2.850   6.569 -0.2103  0.3929 -0.4459
  123OSM    H2F13105   6.877   2.907   6.498 -0.9178 -0.5598 -1.8837
  123OSM    H2G13106   6.854   2.747   6.580 -2.0156 -0.0886  3.0945
  123OSM    C3F13107   6.817   2.904   6.712  0.0929  0.0033  0.0859
  123OSM    H3F13108   6.766   3.003   6.719 -2.5944 -1.2092 -0.9307
  123OSM    H3G13109   6.922   2.894   6.748 -0.2124 -4.4847  0.2681
  123OSM    C4F13110   6.739   2.818   6.808  0.2123 -0.4456  0.2646
  123OSM    H4F13111   6.718   2.722   6.756 -1.6756  1.0994 -2.0120
  123OSM    H4G13112   6.636   2.857   6.803  1.0632  2.1529  1.4590
  123OSM    C5F13113   6.787   2.822   6.955  0.4458 -0.1293  0.6816
  123OSM    H5F13114   6.786   2.927   6.992 -2.3669 -0.1792  0.9518
  123OSM    H5G13115   6.885   2.771   6.969 -0.0835 -0.8618  1.9101
  123OSM    C6F13116   6.693   2.748   7.046 -0.2183 -0.8464 -0.2087
  123OSM    H6F13117   6.668   2.646   7.009  0.6469 -0.9173 -0.6196
  123OSM    H6G13118   6.603   2.813   7.044  0.7594  0.5664  0.2283
  123OSM    C7F13119   6.763   2.737   7.182  0.1816  0.1977 -0.1062
  123OSM    H7F13120   6.774   2.841   7.221 -0.3431 -0.3512  1.5920
  123OSM    H7G13121   6.865   2.695   7.171 -0.3517 -1.0672 -0.3343
  123OSM    C8F13122   6.672   2.654   7.274  0.1166 -0.0984 -0.1739
  123OSM    H8F13123   6.681   2.545   7.254  0.4137 -0.2261  0.6179
  123OSM    H8G13124   6.564   2.672   7.254  0.0489 -1.8324 -1.6287
  123OSM    C9F13125   6.711   2.685   7.414 -0.4037  0.0711  0.0819
  123OSM    H9F13126   6.780   2.613   7.459 -0.1554 -2.1776 -3.5158
  123OSM   C10F13127   6.673   2.789   7.496 -0.1510 -0.5481 -0.7231
  123OSM   H10F13128   6.720   2.790   7.596  5.5289 -0.8395 -3.0590
  123OSM   C11F13129   6.572   2.891   7.465  0.1884  0.0135  0.0859
  123OSM   H11F13130   6.503   2.857   7.385  0.8837 -0.7487 -0.2007
  123OSM   H11G13131   6.617   2.991   7.448  0.1623 -0.2884 -2.0499
  123OSM   C12F13132   6.480   2.933   7.584  0.2301  0.2350 -0.1955
  123OSM   H12F13133   6.423   2.844   7.617 -0.0554  0.9482  1.3183
  123OSM   H12G13134   6.400   3.005   7.556 -0.6647 -0.6737 -0.0205
  123OSM   C13F13135   6.555   2.996   7.702  0.3613 -0.5485 -0.1741
  123OSM   H13F13136   6.602   3.095   7.682 -0.5016 -0.2696 -0.8715
  123OSM   H13G13137   6.620   2.922   7.754  1.4163  1.9365  2.3189
  123OSM   C14F13138   6.452   3.032   7.809  0.0964  0.5377 -0.4556
  123OSM   H14F13139   6.395   2.940   7.831  2.4313 -0.9444 -0.2903
  123OSM   H14G13140   6.383   3.105   7.761  1.5724  0.4127 -2.9895
  123OSM   C15F13141   6.511   3.089   7.940 -0.2953  0.4175 -0.4207
  123OSM   H15F13142   6.608   3.138   7.914  1.0094 -0.7020  1.9984
  123OSM   H15G13143   6.550   3.007   8.004  0.6091  1.0380 -0.1533
  123OSM   C16F13144   6.413   3.174   8.021 -1.0520  0.2374 -0.1426
  123OSM   H16F13145   6.341   3.101   8.063  0.6717 -1.3257  0.2071
  123OSM   H16G13146   6.357   3.242   7.953 -0.2649  0.2985 -0.7398
  123OSM   C17F13147   6.486   3.253   8.126 -0.1887  0.5183  0.0827
  123OSM   H17F13148   6.536   3.345   8.088  0.8245  0.1713  0.5311
  123OSM   H17G13149   6.571   3.192   8.165 -1.2597 -0.2008  1.3521
  123OSM   C18F13150   6.401   3.293   8.241 -0.1127  0.7577 -0.6815
  123OSM   H18F13151   6.366   3.203   8.297 -2.3235  1.3908 -0.9605
  123OSM   H18G13152   6.323   3.367   8.215 -0.4829  1.4441  2.0325
  123OSM   H18H13153   6.464   3.357   8.306 -2.0990  3.3590 -1.1433
  124OSM      N13154   2.649   6.504   6.314  1.0581 -1.1406 -0.4409
  124OSM    C1513155   2.795   6.496   6.353 -0.0259 -0.6085  0.1407
  124OSM   H15A13156   2.840   6.427   6.284 -0.7179  0.0327 -0.9835
  124OSM   H15B13157   2.803   6.465   6.456  0.1946  2.1925  1.0551
  124OSM   H15C13158   2.840   6.594   6.344 -0.3790 -0.6355 -2.5523
  124OSM    C1413159   2.568   6.589   6.411  0.4080 -0.1163  0.8571
  124OSM   H14A13160   2.592   6.694   6.403 -2.9378  0.6250 -1.6714
  124OSM   H14B13161   2.588   6.564   6.514  1.7777  0.0357  0.6479
  124OSM   H14C13162   2.463   6.578   6.389  0.6743 -0.1296 -0.5225
  124OSM    C1313163   2.616   6.572   6.184 -0.2428  0.0650  0.1525
  124OSM   H13A13164   2.514   6.556   6.151  0.4449 -0.7556 -1.7861
  124OSM   H13B13165   2.669   6.522   6.104 -2.2938 -0.1485 -1.1537
  124OSM   H13C13166   2.634   6.678   6.187 -2.3046  0.4303  1.3382
  124OSM    C1213167   2.591   6.368   6.313  0.4813 -0.6437  0.8582
  124OSM   H12A13168   2.654   6.308   6.249  0.1492 -0.2801  0.1737
  124OSM   H12B13169   2.488   6.377   6.280  0.7133 -0.1094  0.2623
  124OSM    C1113170   2.583   6.284   6.442  0.1525  0.5123  0.1217
  124OSM   H11A13171   2.528   6.346   6.516 -0.4504  1.3855 -1.0153
  124OSM   H11B13172   2.682   6.261   6.486  0.4048  0.0363 -0.6661
  124OSM      P13173   2.582   6.030   6.409 -0.0293  0.3672 -0.0658
  124OSM    O1313174   2.501   5.939   6.326 -0.0343  0.3405  0.3177
  124OSM    O1413175   2.723   6.045   6.361  0.1147  0.0155 -0.3066
  124OSM    O1113176   2.580   5.965   6.556 -0.0372 -0.2610 -0.3184
  124OSM    O1213177   2.511   6.160   6.419 -0.8769  0.0402  0.2072
  124OSM    C1S13178   2.681   5.997   6.655 -0.3840  0.0525  0.7229
  124OSM    H1S13179   2.759   6.059   6.605 -0.9770  2.2885  2.4230
  124OSM    H1T13180   2.733   5.902   6.680 -0.9636 -1.1501 -2.1756
  124OSM     NF13181   2.743   6.107   6.870  0.1653  0.0306 -0.7196
  124OSM    HNF13182   2.763   6.039   6.940 -0.1141 -0.6475 -1.2888
  124OSM    C2S13183   2.634   6.070   6.782  0.7501 -0.4007 -0.4169
  124OSM    H2S13184   2.576   6.159   6.748 -1.8592  0.0550  4.2742
  124OSM    C3S13185   2.519   5.993   6.853  0.3000  0.1025  0.0802
  124OSM    H3S13186   2.544   5.888   6.877  0.4568  0.0501 -0.3027
  124OSM     O313187   2.399   5.990   6.775 -0.4374 -0.6811 -0.0575
  124OSM    HO313188   2.429   6.013   6.687  2.4597 -1.1099  0.6904
  124OSM    C4S13189   2.485   6.064   6.983  0.5903  0.4533  0.3861
  124OSM    H4S13190   2.489   5.993   7.067  0.3174 -0.1380 -0.0979
  124OSM    C5S13191   2.436   6.187   7.006  0.1736 -0.3645  0.1210
  124OSM    H5S13192   2.420   6.254   6.921  1.4685  0.0706  0.1935
  124OSM    C6S13193   2.386   6.240   7.134 -0.4139  0.0064 -0.7445
  124OSM    H6S13194   2.275   6.238   7.138 -0.3848 -0.7758  2.3129
  124OSM    H6T13195   2.417   6.347   7.134 -2.2392  0.5799 -2.0401
  124OSM    C7S13196   2.443   6.165   7.261 -0.6219  0.4686  0.1757
  124OSM    H7S13197   2.553   6.179   7.254 -0.2507 -1.0472  2.1123
  124OSM    H7T13198   2.422   6.056   7.273 -1.5748  0.4438 -1.4631
  124OSM    C8S13199   2.400   6.226   7.389 -0.2280 -0.5220  0.4911
  124OSM    H8S13200   2.289   6.229   7.393 -0.1668  0.1111  3.0556
  124OSM    H8T13201   2.435   6.331   7.391  0.8207 -0.8581  0.2926
  124OSM    C9S13202   2.462   6.160   7.512  0.0082  0.8139 -0.0761
  124OSM    H9S13203   2.570   6.187   7.519  0.9104 -2.6091  1.7495
  124OSM    H9T13204   2.459   6.049   7.513 -3.4326  0.7854  1.4803
  124OSM   C10S13205   2.392   6.221   7.630 -0.2702 -0.0730  0.5804
  124OSM   H10S13206   2.282   6.223   7.619 -0.4552 -1.9416  1.6492
  124OSM   H10T13207   2.432   6.324   7.625  1.1581 -0.6097  0.1348
  124OSM   C11S13208   2.433   6.147   7.761  0.0797 -0.0613  0.4289
  124OSM   H11S13209   2.544   6.156   7.772  0.1362  0.4431 -0.4622
  124OSM   H11T13210   2.415   6.038   7.752  0.0929 -0.1493  1.3596
  124OSM   C12S13211   2.368   6.194   7.890 -0.4658  0.0707  0.0244
  124OSM   H12S13212   2.264   6.158   7.874  0.1854 -1.5705 -0.7289
  124OSM   H12T13213   2.371   6.303   7.912 -0.3074 -0.0358  0.5376
  124OSM   C13S13214   2.422   6.127   8.021  0.0674 -0.0301  0.0828
  124OSM   H13S13215   2.528   6.148   8.044  1.0081 -1.1866 -2.7748
  124OSM   H13T13216   2.436   6.018   8.002  1.1943 -0.1757  1.5434
  124OSM   C14S13217   2.353   6.144   8.159  0.1806 -0.1127  0.4251
  124OSM   H14S13218   2.251   6.100   8.159  1.1620 -2.8041 -2.6719
  124OSM   H14T13219   2.343   6.252   8.184  0.1251 -0.0638  0.1911
  124OSM   C15S13220   2.427   6.087   8.271  0.2852 -0.4427 -0.2073
  124OSM   H15S13221   2.523   6.135   8.298 -0.8305  0.9939  1.4498
  124OSM   H15T13222   2.456   5.984   8.242  0.7767 -0.2677 -0.3484
  124OSM   C16S13223   2.336   6.093   8.399 -0.1704 -0.0594  0.4166
  124OSM   H16S13224   2.237   6.049   8.373  0.7300 -1.3152 -1.0392
  124OSM   H16T13225   2.305   6.194   8.435  0.9200  0.2451  0.5216
  124OSM   C17S13226   2.390   6.020   8.518  1.1320 -0.7128  0.6470
  124OSM   H17S13227   2.427   5.917   8.502  0.5261 -1.1092  1.6457
  124OSM   H17T13228   2.304   6.014   8.589  1.6441 -2.8603  1.1460
  124OSM   C18S13229   2.504   6.101   8.589  0.1959 -0.3841 -0.9268
  124OSM   H18S13230   2.607   6.091   8.549  1.1214 -1.5811  1.5606
  124OSM   H18T13231   2.515   6.049   8.686 -1.7636  2.2019  0.8448
  124OSM   H18U13232   2.480   6.210   8.599  0.5169 -0.2208 -1.8865
  124OSM    C1F13233   2.821   6.205   6.831  0.3308 -0.9487  0.2583
  124OSM     OF13234   2.792   6.261   6.727  0.0695 -0.3692  0.2029
  124OSM    C2F13235   2.942   6.236   6.912 -0.1924 -0.2724 -0.3630
  124OSM    H2F13236   3.024   6.272   6.847 -1.2728  1.6959 -0.7285
  124OSM    H2G13237   2.973   6.142   6.962  0.6742 -0.1458 -0.6535
  124OSM    C3F13238   2.908   6.355   7.010  1.0066  0.7517  0.4080
  124OSM    H3F13239   2.856   6.440   6.960  1.4101  0.4136 -0.6228
  124OSM    H3G13240   3.002   6.399   7.049  1.2141 -0.4377  1.3124
  124OSM    C4F13241   2.813   6.310   7.122 -0.0405  1.0547 -0.1179
  124OSM    H4F13242   2.843   6.210   7.160 -0.0668  0.2116 -2.2067
  124OSM    H4G13243   2.712   6.305   7.077  0.6635 -0.1417 -1.6420
  124OSM    C5F13244   2.819   6.415   7.238  0.7359  0.5849  0.4078
  124OSM    H5F13245   2.729   6.419   7.303 -1.0933  0.0630 -1.9694
  124OSM    H5G13246   2.814   6.515   7.189 -1.4321  0.6387  0.6448
  124OSM    C6F13247   2.949   6.400   7.324  0.4234 -0.0266 -0.2464
  124OSM    H6F13248   3.034   6.395   7.253  0.7396  1.4873 -0.0063
  124OSM    H6G13249   2.948   6.302   7.377  1.3081 -0.8920 -1.7442
  124OSM    C7F13250   2.964   6.514   7.428  0.4977  0.0930  0.0489
  124OSM    H7F13251   3.005   6.606   7.380  1.1631  0.4278  1.2012
  124OSM    H7G13252   3.045   6.497   7.502 -0.9506 -2.0134  1.2655
  124OSM    C8F13253   2.835   6.568   7.507  0.1327  0.6794  0.2731
  124OSM    H8F13254   2.771   6.618   7.431  0.3794  0.2121 -0.2461
  124OSM    H8G13255   2.870   6.647   7.578 -0.8926  2.7544 -1.4124
  124OSM    C9F13256   2.767   6.450   7.574 -0.0295 -0.2670  0.3018
  124OSM    H9F13257   2.738   6.356   7.524 -1.7331  0.4469 -0.1048
  124OSM   C10F13258   2.721   6.448   7.702  0.1150  0.0455  0.9141
  124OSM   H10F13259   2.663   6.358   7.728 -0.9692  1.1664  2.5713
  124OSM   C11F13260   2.722   6.555   7.807 -0.6501 -0.2297 -1.1258
  124OSM   H11F13261   2.625   6.609   7.816 -0.0814  0.4967  2.0760
  124OSM   H11G13262   2.798   6.632   7.782  0.2094 -1.0234 -0.9759
  124OSM   C12F13263   2.776   6.494   7.942  0.1565 -0.3424  0.1802
  124OSM   H12F13264   2.798   6.584   8.004 -2.8959 -0.1317  1.1365
  124OSM   H12G13265   2.865   6.430   7.922 -0.6746 -1.2653 -0.6918
  124OSM   C13F13266   2.672   6.418   8.020 -0.3421 -0.4718  0.7199
  124OSM   H13F13267   2.659   6.316   7.978 -1.9273  0.6115 -1.6416
  124OSM   H13G13268   2.571   6.453   7.988 -0.3821 -1.3233 -0.1270
  124OSM   C14F13269   2.690   6.409   8.168 -0.4317  0.9320  0.4277
  124OSM   H14F13270   2.776   6.343   8.194 -1.4256 -0.4628  0.3462
  124OSM   H14G13271   2.607   6.349   8.212 -0.2013 -0.1157 -0.5161
  124OSM   C15F13272   2.704   6.533   8.254  0.9092 -0.2110 -0.0933
  124OSM   H15F13273   2.777   6.607   8.215 -2.7983  3.2279 -1.1774
  124OSM   H15G13274   2.735   6.496   8.354  1.2580  1.2523  0.3621
  124OSM   C16F13275   2.571   6.611   8.269  0.0749  0.6946 -0.9659
  124OSM   H16F13276   2.498   6.542   8.319  1.9909  0.0545  1.1273
  124OSM   H16G13277   2.529   6.627   8.168 -0.6325 -0.0976 -0.8113
  124OSM   C17F13278   2.594   6.747   8.331  0.0028  0.2864 -0.8004
  124OSM   H17F13279   2.680   6.791   8.277  1.9447  0.2295  1.9985
  124OSM   H17G13280   2.608   6.725   8.439 -1.7549  0.9054 -0.4186
  124OSM   C18F13281   2.470   6.839   8.310  0.1917 -0.1282 -0.3971
  124OSM   H18F13282   2.431   6.835   8.206  1.4123  1.5598 -0.9586
  124OSM   H18G13283   2.505   6.939   8.342 -2.0167  0.7593 -0.5911
  124OSM   H18H13284   2.386   6.799   8.370 -0.1267 -1.1172 -1.4635
  125OSM      N13285   1.765   0.918   6.008 -0.8495 -0.2032  0.0514
  125OSM    C1513286   1.904   0.960   6.045 -0.2792 -0.0066  0.7392
  125OSM   H15A13287   1.968   0.882   6.083 -0.5961 -1.0154 -0.7165
  125OSM   H15B13288   1.906   1.054   6.099 -1.9360  0.8378 -0.5582
  125OSM   H15C13289   1.957   0.981   5.954 -0.6896 -1.7583  0.0493
  125OSM    C1413290   1.674   1.018   5.945  0.5657  0.6477 -0.0790
  125OSM   H14A13291   1.662   1.112   5.996 -3.6259  0.3830 -0.2669
  125OSM   H14B13292   1.577   0.971   5.948  1.8451 -2.3464 -0.8604
  125OSM   H14C13293   1.706   1.038   5.844 -1.0877  1.4479 -0.4611
  125OSM    C1313294   1.790   0.799   5.921  0.1385 -0.4236 -0.0815
  125OSM   H13A13295   1.701   0.740   5.911  0.1214 -0.7043  1.4413
  125OSM   H13B13296   1.873   0.744   5.963 -1.2490 -3.0646 -0.6066
  125OSM   H13C13297   1.826   0.820   5.822  0.4863  0.6800  0.2610
  125OSM    C1213298   1.706   0.864   6.145 -0.0072 -0.1401  0.8303
  125OSM   H12A13299   1.715   0.936   6.226 -1.0422 -1.9611  2.6459
  125OSM   H12B13300   1.768   0.779   6.168 -0.8661 -0.6676  1.2171
  125OSM    C1113301   1.571   0.796   6.141  0.1055 -0.1992 -0.0123
  125OSM   H11A13302   1.559   0.745   6.239 -0.4432 -0.1142 -0.0320
  125OSM   H11B13303   1.566   0.723   6.057 -0.3908  0.3161 -0.4358
  125OSM      P13304   1.337   0.896   6.201  0.1117  0.4266  0.2781
  125OSM    O1313305   1.266   1.021   6.160 -0.1325 -0.5201 -0.5096
  125OSM    O1413306   1.266   0.765   6.188 -0.4755 -0.7823 -0.0357
  125OSM    O1113307   1.393   0.920   6.343 -0.1915 -0.7323  0.2585
  125OSM    O1213308   1.467   0.889   6.120  0.5814 -0.5319  0.0445
  125OSM    C1S13309   1.425   1.048   6.401 -0.4361  0.1729  0.3184
  125OSM    H1S13310   1.336   1.115   6.396 -0.5766  0.2146  2.3617
  125OSM    H1T13311   1.506   1.095   6.341 -0.6279 -0.8984 -0.8127
  125OSM     NF13312   1.499   1.165   6.619 -0.2436 -0.4575  0.1295
  125OSM    HNF13313   1.592   1.162   6.655 -0.2672 -2.1187  0.1514
  125OSM    C2S13314   1.449   1.040   6.553 -0.0020  0.0058  0.0653
  125OSM    H2S13315   1.353   1.007   6.600 -0.1889  1.1658  0.5352
  125OSM    C3S13316   1.546   0.917   6.571 -0.6891  0.2304 -0.1509
  125OSM    H3S13317   1.643   0.945   6.526 -1.8821  0.5877 -2.7092
  125OSM     O313318   1.514   0.790   6.512  1.0514 -0.4770  0.1280
  125OSM    HO313319   1.457   0.814   6.438  0.0238 -0.7600  0.7960
  125OSM    C4S13320   1.582   0.900   6.716  0.1102  0.5819  0.9910
  125OSM    H4S13321   1.668   0.959   6.750 -0.5621  1.6335  0.9131
  125OSM    C5S13322   1.522   0.826   6.809 -0.5035 -0.2101 -0.5886
  125OSM    H5S13323   1.422   0.784   6.791 -1.8291  2.1226  0.7774
  125OSM    C6S13324   1.570   0.827   6.948 -0.7697 -0.1499 -0.3106
  125OSM    H6S13325   1.596   0.724   6.978 -1.4230  0.8058  4.2679
  125OSM    H6T13326   1.488   0.858   7.016  0.3161 -2.9164  2.4679
  125OSM    C7S13327   1.689   0.913   6.997 -0.5309 -0.5523  0.3880
  125OSM    H7S13328   1.660   1.020   6.986 -0.6939 -0.7030 -0.7603
  125OSM    H7T13329   1.771   0.893   6.926  1.1231 -0.9983  2.3344
  125OSM    C8S13330   1.745   0.881   7.141  0.2587  0.4327 -0.2595
  125OSM    H8S13331   1.845   0.927   7.154  0.7555 -1.1081  1.7511
  125OSM    H8T13332   1.755   0.774   7.169  0.8228 -0.2066 -2.6625
  125OSM    C9S13333   1.674   0.958   7.252 -0.0759 -0.6654 -0.3273
  125OSM    H9S13334   1.572   0.922   7.275 -1.3036  2.2051 -0.8439
  125OSM    H9T13335   1.670   1.063   7.216  0.1687  0.2796  2.2089
  125OSM   C10S13336   1.747   0.951   7.390 -0.4177  0.2622 -0.6413
  125OSM   H10S13337   1.838   1.015   7.383  1.6715 -2.5155 -0.6101
  125OSM   H10T13338   1.772   0.847   7.419 -1.5705  0.8524  2.9369
  125OSM   C11S13339   1.663   1.009   7.503 -0.0959  0.5586 -0.4696
  125OSM   H11S13340   1.562   0.962   7.507  0.5976 -0.9005  1.8898
  125OSM   H11T13341   1.634   1.115   7.488  0.1931  0.3382 -2.9688
  125OSM   C12S13342   1.729   0.987   7.636 -0.4171 -0.2567 -1.2202
  125OSM   H12S13343   1.833   1.026   7.634 -1.3060  2.2256 -1.6161
  125OSM   H12T13344   1.711   0.882   7.669 -2.2614  0.5199  0.4225
  125OSM   C13S13345   1.667   1.073   7.744 -0.1774 -0.1178 -0.2623
  125OSM   H13S13346   1.557   1.063   7.744 -0.1561 -0.3684  0.5784
  125OSM   H13T13347   1.683   1.181   7.724  0.8659 -0.5148 -1.7972
  125OSM   C14S13348   1.717   1.019   7.887  0.3078 -0.0923 -1.3234
  125OSM   H14S13349   1.827   1.023   7.901  0.1695  0.7781 -0.3698
  125OSM   H14T13350   1.686   0.914   7.906  0.6994  0.3113  2.3457
  125OSM   C15S13351   1.657   1.095   8.002 -1.0020  0.2125  0.4122
  125OSM   H15S13352   1.556   1.052   8.014 -1.0809  0.4349  0.5717
  125OSM   H15T13353   1.637   1.202   7.980 -2.3396  0.1187  1.0754
  125OSM   C16S13354   1.715   1.085   8.140 -0.6595  0.0237  0.1128
  125OSM   H16S13355   1.717   0.975   8.156 -2.1921 -0.7207 -3.7466
  125OSM   H16T13356   1.638   1.121   8.212 -0.9434  0.2972 -0.3272
  125OSM   C17S13357   1.854   1.146   8.163  0.2163 -0.0674 -0.4401
  125OSM   H17S13358   1.855   1.255   8.144 -2.8637  0.3194  1.1218
  125OSM   H17T13359   1.928   1.097   8.095 -0.8225 -2.3968 -0.0021
  125OSM   C18S13360   1.903   1.116   8.303  0.4723 -0.5751  0.3634
  125OSM   H18S13361   1.835   1.162   8.378 -1.8128  0.1746 -1.9915
  125OSM   H18T13362   2.008   1.153   8.313  1.3583 -2.9734  0.6027
  125OSM   H18U13363   1.903   1.007   8.323 -0.4732 -1.0388 -1.8975
  125OSM    C1F13364   1.427   1.276   6.634 -1.0375  0.3916  0.3016
  125OSM     OF13365   1.336   1.297   6.557  0.3627 -0.1508 -0.5468
  125OSM    C2F13366   1.473   1.381   6.730  0.3410  0.0894 -0.3102
  125OSM    H2F13367   1.404   1.468   6.730 -0.5662 -0.6025 -1.0458
  125OSM    H2G13368   1.575   1.420   6.708 -0.7478  2.8599 -0.7324
  125OSM    C3F13369   1.471   1.320   6.876 -0.0159  0.3414  0.1440
  125OSM    H3F13370   1.541   1.234   6.882 -0.6971 -0.2161  0.2682
  125OSM    H3G13371   1.373   1.276   6.906  0.0313  1.7514  2.6439
  125OSM    C4F13372   1.510   1.425   6.985  0.0259  0.0261  0.0094
  125OSM    H4F13373   1.452   1.517   6.968  0.6705  0.0115 -2.6216
  125OSM    H4G13374   1.620   1.441   6.982  0.2335 -0.9485  1.3734
  125OSM    C5F13375   1.501   1.365   7.124 -0.5895 -0.1078  0.3717
  125OSM    H5F13376   1.569   1.278   7.132  0.1815  0.5080  0.5766
  125OSM    H5G13377   1.394   1.339   7.141 -1.0502  1.2416 -0.3694
  125OSM    C6F13378   1.540   1.473   7.223  0.1702  0.8580 -0.7337
  125OSM    H6F13379   1.490   1.570   7.203  0.9191  1.7668  1.5133
  125OSM    H6G13380   1.651   1.481   7.219  0.1922  1.5303  0.6287
  125OSM    C7F13381   1.491   1.436   7.362 -0.4940 -0.2458 -0.3229
  125OSM    H7F13382   1.529   1.336   7.392  0.2072  0.2849  0.5749
  125OSM    H7G13383   1.381   1.418   7.360 -0.7617  0.8822  1.7045
  125OSM    C8F13384   1.528   1.529   7.477  0.7527  0.2119  0.3521
  125OSM    H8F13385   1.482   1.499   7.573 -2.0560  2.1459 -0.2568
  125OSM    H8G13386   1.475   1.621   7.445  2.3214  1.4135  1.0871
  125OSM    C9F13387   1.672   1.562   7.483 -0.3012  0.3281  0.6300
  125OSM    H9F13388   1.708   1.603   7.387 -2.2582  0.7390  0.0282
  125OSM   C10F13389   1.742   1.553   7.598  0.4252 -0.0216 -0.2001
  125OSM   H10F13390   1.844   1.593   7.595 -0.4428  2.3170 -1.0275
  125OSM   C11F13391   1.696   1.521   7.741  0.1904 -0.0468 -0.2000
  125OSM   H11F13392   1.706   1.413   7.766 -2.1991 -0.3275 -0.2392
  125OSM   H11G13393   1.591   1.551   7.757  0.6976  1.3945  0.5340
  125OSM   C12F13394   1.780   1.595   7.844  0.4403 -0.1375 -0.2131
  125OSM   H12F13395   1.782   1.701   7.811 -1.0150 -0.8594 -2.9669
  125OSM   H12G13396   1.881   1.548   7.836  0.1150 -1.2908  1.8536
  125OSM   C13F13397   1.737   1.578   7.989  0.5760  0.2494 -0.3868
  125OSM   H13F13398   1.768   1.478   8.027 -0.2680  0.4689  0.9666
  125OSM   H13G13399   1.630   1.602   8.008  1.1971  1.3760  2.1110
  125OSM   C14F13400   1.821   1.673   8.077  0.2839 -0.3860  0.4772
  125OSM   H14F13401   1.788   1.773   8.041  0.0947 -0.4076  0.5879
  125OSM   H14G13402   1.925   1.667   8.038 -0.0717 -0.3042 -0.5107
  125OSM   C15F13403   1.785   1.674   8.224  0.5259 -0.0461 -0.0494
  125OSM   H15F13404   1.675   1.673   8.239  0.1749 -0.7999 -2.2295
  125OSM   H15G13405   1.823   1.770   8.264  1.3412 -0.2317 -0.3687
  125OSM   C16F13406   1.847   1.555   8.301  0.5625 -0.3500  0.1018
  125OSM   H16F13407   1.949   1.543   8.257  1.1775  2.7078  0.4598
  125OSM   H16G13408   1.790   1.462   8.279 -0.5065  0.4217 -0.4779
  125OSM   C17F13409   1.843   1.567   8.457 -0.4366 -0.2302 -1.4101
  125OSM   H17F13410   1.737   1.575   8.490  0.0806 -0.0865  0.2864
  125OSM   H17G13411   1.892   1.660   8.491 -1.2877  0.2867 -1.5848
  125OSM   C18F13412   1.926   1.454   8.510  0.2128  0.3227  0.4493
  125OSM   H18F13413   2.023   1.465   8.455 -0.9275 -0.9694 -1.9655
  125OSM   H18G13414   1.875   1.358   8.488  0.8713  0.4922 -2.2386
  125OSM   H18H13415   1.942   1.454   8.620  1.0470 -0.3845  0.3360
  126OSM      N13416   4.990   1.036   6.450 -0.2825  0.4815 -0.0742
  126OSM    C1513417   5.049   0.898   6.410  0.1588  0.6248  0.5444
  126OSM   H15A13418   5.011   0.877   6.311 -1.5883 -0.4446  1.3955
  126OSM   H15B13419   5.016   0.820   6.477 -0.1124  0.0575 -0.2255
  126OSM   H15C13420   5.157   0.898   6.408  0.2641 -2.4887  0.9529
  126OSM    C1413421   5.052   1.137   6.359  0.3664 -0.7043  0.1771
  126OSM   H14A13422   5.005   1.235   6.367 -1.2181 -1.3618 -0.5790
  126OSM   H14B13423   5.043   1.113   6.254 -0.5593  0.3035  0.0026
  126OSM   H14C13424   5.159   1.144   6.366  0.4812 -0.3529 -1.4359
  126OSM    C1313425   4.846   1.036   6.438  0.0105  0.2038 -0.2970
  126OSM   H13A13426   4.830   1.055   6.333  1.1032  3.3141  0.0068
  126OSM   H13B13427   4.780   1.105   6.487 -1.1171  0.3789 -1.9756
  126OSM   H13C13428   4.805   0.939   6.462  0.0184  0.1877 -0.3461
  126OSM    C1213429   5.025   1.074   6.594 -0.3422 -0.0882 -0.5366
  126OSM   H12A13430   5.133   1.083   6.603 -0.4865  0.4962  0.8727
  126OSM   H12B13431   5.009   0.987   6.656  3.1253 -0.8357 -0.4903
  126OSM    C1113432   4.982   1.210   6.652  0.0126 -0.0349  0.0461
  126OSM   H11A13433   4.988   1.207   6.763 -0.9028  1.7110  0.1896
  126OSM   H11B13434   4.878   1.242   6.629 -0.1668 -1.2098 -0.8909
  126OSM      P13435   5.209   1.330   6.664 -0.6700  0.1368 -0.0516
  126OSM    O1313436   5.288   1.211   6.628  0.2746 -0.4152  0.1186
  126OSM    O1413437   5.260   1.460   6.632 -0.8171 -0.8401 -0.0222
  126OSM    O1113438   5.180   1.332   6.819  0.4967  0.3963 -0.2379
  126OSM    O1213439   5.062   1.319   6.605 -0.7039  0.2046  0.4346
  126OSM    C1S13440   5.270   1.397   6.906 -0.3218  1.1601 -0.1212
  126OSM    H1S13441   5.245   1.505   6.907  0.0145  1.2535  1.5500
  126OSM    H1T13442   5.372   1.391   6.863 -0.1744 -0.8247  0.3873
  126OSM     NF13443   5.358   1.431   7.139  0.2580  0.1566 -0.2075
  126OSM    HNF13444   5.451   1.397   7.154 -0.1633 -0.4119  1.2745
  126OSM    C2S13445   5.271   1.340   7.051 -0.7657 -0.3648  0.1369
  126OSM    H2S13446   5.169   1.351   7.093 -0.5730  0.5638  0.3999
  126OSM    C3S13447   5.322   1.191   7.060 -0.0545 -0.2677  0.3028
  126OSM    H3S13448   5.424   1.182   7.017 -0.9878 -1.2239 -1.8462
  126OSM     O313449   5.244   1.096   6.988  0.2659 -0.1117  0.0866
  126OSM    HO313450   5.175   1.154   6.954 -1.4134 -0.8085  2.1158
  126OSM    C4S13451   5.331   1.152   7.207  0.4085  0.0426 -0.2685
  126OSM    H4S13452   5.234   1.135   7.255  1.5115 -1.8944  1.4388
  126OSM    C5S13453   5.446   1.134   7.280  0.2674  0.3087 -0.4037
  126OSM    H5S13454   5.543   1.170   7.242  0.2047 -0.1139 -0.9970
  126OSM    C6S13455   5.456   1.087   7.425  0.2840 -0.4974 -0.7686
  126OSM    H6S13456   5.552   1.128   7.463 -2.3844  3.2041  2.8435
  126OSM    H6T13457   5.464   0.976   7.427 -2.0048 -0.7114 -0.9164
  126OSM    C7S13458   5.346   1.128   7.525  0.5240 -0.5713 -0.4796
  126OSM    H7S13459   5.252   1.072   7.508  0.2582 -0.1157 -0.5282
  126OSM    H7T13460   5.325   1.237   7.521 -2.8343 -1.1049  0.1004
  126OSM    C8S13461   5.387   1.092   7.666 -0.8058 -1.0413 -0.5745
  126OSM    H8S13462   5.494   1.110   7.689 -1.3447 -1.3255  2.6625
  126OSM    H8T13463   5.366   0.983   7.675  0.4772 -1.1481  2.2961
  126OSM    C9S13464   5.301   1.161   7.772 -0.4705  0.6655 -0.2354
  126OSM    H9S13465   5.192   1.142   7.762 -0.4105  0.2128 -0.0140
  126OSM    H9T13466   5.321   1.271   7.771 -0.6065  0.6875 -0.7552
  126OSM   C10S13467   5.337   1.102   7.911  0.4692 -0.4999 -0.5330
  126OSM   H10S13468   5.443   1.133   7.921  0.3558  0.0715 -1.0481
  126OSM   H10T13469   5.323   0.991   7.909 -2.0581 -0.3621  2.0514
  126OSM   C11S13470   5.257   1.165   8.025 -0.1362  0.0286 -0.5377
  126OSM   H11S13471   5.153   1.126   8.019 -0.4671  0.4344  1.7179
  126OSM   H11T13472   5.255   1.273   7.998 -0.0347 -0.1502 -1.3100
  126OSM   C12S13473   5.327   1.153   8.160 -0.0676  0.4862 -0.1573
  126OSM   H12S13474   5.287   1.218   8.241  0.9133  1.9634 -0.8202
  126OSM   H12T13475   5.424   1.206   8.147 -0.2131  0.5534 -1.0054
  126OSM   C13S13476   5.341   1.007   8.219 -0.5821 -0.5734 -0.4416
  126OSM   H13S13477   5.419   0.957   8.158  0.6394 -0.8747  1.3030
  126OSM   H13T13478   5.248   0.948   8.206 -1.3197  0.1709  1.1355
  126OSM   C14S13479   5.386   1.012   8.369 -0.1281 -0.3701  0.8209
  126OSM   H14S13480   5.464   1.092   8.374 -0.7543  0.3317 -0.4176
  126OSM   H14T13481   5.435   0.919   8.404  1.0101 -0.3159 -0.5444
  126OSM   C15S13482   5.280   1.051   8.467  0.2499  0.1718 -0.6483
  126OSM   H15S13483   5.191   0.986   8.450 -0.5679  0.8078  1.0173
  126OSM   H15T13484   5.237   1.151   8.444 -2.0699 -0.4379  0.6821
  126OSM   C16S13485   5.313   1.027   8.613  0.5052  0.2001 -0.0162
  126OSM   H16S13486   5.421   1.047   8.630  0.9764 -0.3410 -2.1006
  126OSM   H16T13487   5.296   0.923   8.649  0.6243  0.3511  0.4790
  126OSM   C17S13488   5.223   1.124   8.704 -0.6063 -0.2815 -0.1338
  126OSM   H17S13489   5.118   1.125   8.671 -0.4375 -0.6850 -0.7003
  126OSM   H17T13490   5.277   1.220   8.691  0.5542 -0.8974 -0.0734
  126OSM   C18S13491   5.225   1.073   8.845  0.1140 -0.1479  0.1388
  126OSM   H18S13492   5.143   1.115   8.907 -2.4765 -0.0704 -3.0948
  126OSM   H18T13493   5.325   1.086   8.892  0.4761 -0.1800 -0.6229
  126OSM   H18U13494   5.222   0.962   8.837  0.5114 -0.1219 -0.3782
  126OSM    C1F13495   5.307   1.545   7.181 -0.0054 -0.4423  0.4080
  126OSM     OF13496   5.187   1.559   7.191  0.0987 -0.2524 -0.2102
  126OSM    C2F13497   5.406   1.653   7.213  0.2929 -0.5928 -0.4632
  126OSM    H2F13498   5.400   1.721   7.126  0.0944  0.8597  0.6555
  126OSM    H2G13499   5.509   1.612   7.216 -0.3721 -2.3181  0.6632
  126OSM    C3F13500   5.385   1.721   7.350  0.0631 -1.0820 -0.5523
  126OSM    H3F13501   5.304   1.794   7.330 -0.1043 -1.7349 -2.4143
  126OSM    H3G13502   5.479   1.774   7.374 -1.6289  0.5084  3.6074
  126OSM    C4F13503   5.357   1.616   7.470 -0.8639  1.0602 -0.1884
  126OSM    H4F13504   5.429   1.532   7.456  2.4402  3.7923 -0.7448
  126OSM    H4G13505   5.254   1.573   7.462 -0.1721 -0.7415  0.0014
  126OSM    C5F13506   5.392   1.661   7.616  0.4449 -0.3551  0.0491
  126OSM    H5F13507   5.342   1.598   7.693 -1.9956  0.2256 -0.9824
  126OSM    H5G13508   5.346   1.761   7.631 -0.0370 -0.6049  0.2544
  126OSM    C6F13509   5.538   1.666   7.657 -0.2346 -1.0746 -0.4049
  126OSM    H6F13510   5.575   1.762   7.615 -3.3063  0.8685  0.9576
  126OSM    H6G13511   5.597   1.583   7.612 -0.4744 -1.0731 -0.7355
  126OSM    C7F13512   5.556   1.658   7.809  0.2943 -0.8040 -1.0904
  126OSM    H7F13513   5.530   1.558   7.850 -1.7642 -0.2129 -0.8545
  126OSM    H7G13514   5.487   1.725   7.865 -1.2061 -1.9445 -1.5069
  126OSM    C8F13515   5.701   1.679   7.854 -0.1953 -0.4180 -0.7504
  126OSM    H8F13516   5.738   1.777   7.814  0.8691 -0.2707  0.5337
  126OSM    H8G13517   5.764   1.596   7.815  0.4330  0.0441 -0.7557
  126OSM    C9F13518   5.712   1.694   8.011 -0.1247  0.3793  0.0751
  126OSM    H9F13519   5.672   1.786   8.057  4.1601  1.0542  2.9420
  126OSM   C10F13520   5.767   1.595   8.091  0.3043 -0.1486 -0.3358
  126OSM   H10F13521   5.749   1.620   8.197 -0.6692 -0.5532 -0.3927
  126OSM   C11F13522   5.820   1.453   8.051 -0.0726 -0.1775 -0.9898
  126OSM   H11F13523   5.931   1.455   8.056 -0.0638  0.4996 -1.3069
  126OSM   H11G13524   5.782   1.435   7.948 -0.2886  0.2448 -0.9874
  126OSM   C12F13525   5.760   1.340   8.142  0.3772  0.5901  0.6179
  126OSM   H12F13526   5.653   1.325   8.114  0.3186  2.3579 -0.2643
  126OSM   H12G13527   5.759   1.376   8.247 -0.2351 -0.3464  0.9446
  126OSM   C13F13528   5.828   1.201   8.144  0.5739  0.0770 -0.3544
  126OSM   H13F13529   5.836   1.173   8.036 -2.2114  0.3611 -0.7209
  126OSM   H13G13530   5.752   1.133   8.187  2.2223 -0.9512  1.0097
  126OSM   C14F13531   5.959   1.193   8.226  0.3506  0.0222 -0.0359
  126OSM   H14F13532   6.034   1.263   8.184  1.5702 -1.4705 -0.3960
  126OSM   H14G13533   5.992   1.088   8.212 -0.0833 -0.3554  1.5191
  126OSM   C15F13534   5.935   1.200   8.375 -0.6214  0.0268  0.4952
  126OSM   H15F13535   5.852   1.129   8.395 -1.3961  0.1233 -2.0705
  126OSM   H15G13536   5.894   1.298   8.405 -1.1450  0.3191 -1.0766
  126OSM   C16F13537   6.051   1.152   8.461 -0.8887  0.9080 -0.1404
  126OSM   H16F13538   6.093   1.058   8.419  1.1802  1.1753  1.1672
  126OSM   H16G13539   6.008   1.124   8.559 -1.7279 -1.2020 -1.0531
  126OSM   C17F13540   6.165   1.247   8.481 -0.1830 -0.2080 -0.2390
  126OSM   H17F13541   6.131   1.347   8.515  0.3411  0.1713 -0.8177
  126OSM   H17G13542   6.206   1.273   8.381 -0.6455  1.1836 -0.0815
  126OSM   C18F13543   6.271   1.198   8.584 -0.1646  0.0533  0.2428
  126OSM   H18F13544   6.227   1.146   8.671 -2.9523 -0.4621 -1.3410
  126OSM   H18G13545   6.332   1.283   8.620 -0.7997  0.2295  0.9155
  126OSM   H18H13546   6.337   1.123   8.534 -0.7712 -2.1347  2.5178
  127OSM      N13547   1.139   5.609   5.977  0.2858  0.0307  0.4303
  127OSM    C1513548   1.025   5.688   6.041  0.1151  0.3047  0.4840
  127OSM   H15A13549   0.976   5.631   6.119 -2.5127  2.5522  0.6124
  127OSM   H15B13550   0.950   5.736   5.981 -0.5319  0.9870  1.8098
  127OSM   H15C13551   1.080   5.765   6.091 -0.8001  1.7759 -0.7006
  127OSM    C1413552   1.076   5.501   5.895 -0.2661 -0.0762 -0.3685
  127OSM   H14A13553   1.148   5.444   5.839  0.5982 -0.2222  0.8356
  127OSM   H14B13554   1.005   5.549   5.829  1.4236  0.3631 -1.9504
  127OSM   H14C13555   1.031   5.423   5.954  2.1285 -2.3359 -1.3516
  127OSM    C1313556   1.208   5.699   5.882 -0.4327 -0.4920  0.9415
  127OSM   H13A13557   1.154   5.732   5.794 -0.0383 -0.5326  0.6801
  127OSM   H13B13558   1.295   5.647   5.845 -0.7443 -0.1466 -0.3262
  127OSM   H13C13559   1.236   5.792   5.929  0.4307 -0.9192  1.2985
  127OSM    C1213560   1.236   5.557   6.079 -0.2281 -0.2935 -0.6069
  127OSM   H12A13561   1.326   5.520   6.033  1.7868 -1.1659  3.5992
  127OSM   H12B13562   1.191   5.475   6.132  0.7563 -1.9458 -2.1949
  127OSM    C1113563   1.290   5.659   6.178  0.1352 -0.0183  0.2640
  127OSM   H11A13564   1.340   5.593   6.252  0.5728  2.8881  2.7715
  127OSM   H11B13565   1.205   5.716   6.221 -2.2200 -0.8271 -2.9210
  127OSM      P13566   1.539   5.728   6.141 -0.2496 -0.1563  0.1007
  127OSM    O1313567   1.589   5.611   6.072 -0.9243 -0.3314 -0.0526
  127OSM    O1413568   1.602   5.862   6.116 -0.5179  0.6594  0.1585
  127OSM    O1113569   1.548   5.706   6.293 -0.1089 -0.3960 -0.2063
  127OSM    O1213570   1.383   5.747   6.122  0.0499 -0.1082  0.6889
  127OSM    C1S13571   1.655   5.661   6.366 -0.5465 -0.2005 -0.5391
  127OSM    H1S13572   1.713   5.750   6.397  1.2131 -1.4090 -0.1569
  127OSM    H1T13573   1.724   5.590   6.315 -1.0682 -1.5048  0.5148
  127OSM     NF13574   1.720   5.624   6.600  0.3656 -0.4795  0.7157
  127OSM    HNF13575   1.799   5.564   6.589  1.8229  1.6108 -1.0020
  127OSM    C2S13576   1.612   5.601   6.508 -0.3655 -0.5329  0.4755
  127OSM    H2S13577   1.523   5.659   6.539  0.5452  0.5251  1.1727
  127OSM    C3S13578   1.580   5.455   6.489  0.3896  0.0277  0.1453
  127OSM    H3S13579   1.670   5.410   6.442  0.1507 -0.4293  0.1165
  127OSM     O313580   1.473   5.424   6.391 -0.4490 -0.0103 -0.3747
  127OSM    HO313581   1.460   5.509   6.348  1.0591 -0.4330 -1.7604
  127OSM    C4S13582   1.551   5.388   6.623  0.3312 -0.3186  0.3303
  127OSM    H4S13583   1.640   5.359   6.681  1.1140  0.5873 -0.3836
  127OSM    C5S13584   1.426   5.366   6.678  0.1083  0.0060  0.1721
  127OSM    H5S13585   1.335   5.405   6.631  1.4001  3.0834  0.0066
  127OSM    C6S13586   1.418   5.316   6.817 -0.1001  0.1752 -0.1778
  127OSM    H6S13587   1.506   5.262   6.858  0.1199 -0.6900 -1.7447
  127OSM    H6T13588   1.334   5.245   6.833 -0.8533  1.4652  2.1313
  127OSM    C7S13589   1.381   5.435   6.909 -0.3963  0.2003  0.3982
  127OSM    H7S13590   1.282   5.467   6.869  0.1661 -0.5487 -1.7181
  127OSM    H7T13591   1.445   5.523   6.885  1.9119 -1.7586 -1.0452
  127OSM    C8S13592   1.375   5.393   7.056  0.2629 -0.4028  0.4543
  127OSM    H8S13593   1.475   5.410   7.100  0.6240 -0.3401 -0.3683
  127OSM    H8T13594   1.357   5.285   7.079 -3.3927  0.3789  2.0247
  127OSM    C9S13595   1.272   5.474   7.141  0.0173 -1.3614 -0.0988
  127OSM    H9S13596   1.175   5.448   7.093  1.0058 -2.8013 -1.4144
  127OSM    H9T13597   1.293   5.582   7.123 -0.1875 -1.5436 -1.5980
  127OSM   C10S13598   1.283   5.450   7.292 -0.4448  0.3724  0.7932
  127OSM   H10S13599   1.381   5.460   7.345  0.2028 -0.3539 -0.2330
  127OSM   H10T13600   1.260   5.344   7.318 -0.6665  0.3652  0.5738
  127OSM   C11S13601   1.179   5.539   7.370  0.1594 -0.1945 -0.5069
  127OSM   H11S13602   1.083   5.505   7.326 -1.1379 -1.4798  2.8906
  127OSM   H11T13603   1.197   5.645   7.343  0.8286 -0.3439 -0.6654
  127OSM   C12S13604   1.171   5.519   7.525 -0.0104  0.1706  0.2027
  127OSM   H12S13605   1.253   5.580   7.570  0.8715 -1.3193  0.6754
  127OSM   H12T13606   1.189   5.415   7.559  1.4437  1.3468  3.4155
  127OSM   C13S13607   1.032   5.573   7.584 -0.3876  0.5633 -0.1116
  127OSM   H13S13608   0.948   5.521   7.533 -0.1084  1.4661 -1.5615
  127OSM   H13T13609   1.019   5.681   7.564 -1.1952  0.7561  1.3829
  127OSM   C14S13610   1.030   5.555   7.740  0.4620  0.4321  0.4847
  127OSM   H14S13611   1.119   5.607   7.780  1.3815 -0.4275 -0.3794
  127OSM   H14T13612   1.050   5.448   7.760 -0.2721 -0.3423 -2.4058
  127OSM   C15S13613   0.904   5.606   7.810 -0.7369 -0.2858  0.0539
  127OSM   H15S13614   0.807   5.570   7.768 -1.5034  3.0980 -1.4347
  127OSM   H15T13615   0.908   5.716   7.803 -0.9295 -0.3389 -1.1327
  127OSM   C16S13616   0.902   5.566   7.960 -0.5717 -1.0187 -0.5004
  127OSM   H16S13617   1.004   5.585   8.000 -0.7599  0.7041 -0.7697
  127OSM   H16T13618   0.878   5.461   7.984 -1.8879 -0.2760  1.6437
  127OSM   C17S13619   0.804   5.652   8.037 -0.0408 -0.4465  0.6506
  127OSM   H17S13620   0.707   5.598   8.039 -0.9152  1.0399 -0.2390
  127OSM   H17T13621   0.779   5.743   7.978 -0.8395 -1.5219 -0.7347
  127OSM   C18S13622   0.831   5.683   8.182  0.6127 -0.0228 -0.3723
  127OSM   H18S13623   0.752   5.736   8.238  0.5573  0.6793 -1.0869
  127OSM   H18T13624   0.924   5.744   8.184  1.2481 -0.9163  3.0494
  127OSM   H18U13625   0.852   5.593   8.244  1.4228 -0.0237 -0.6242
  127OSM    C1F13626   1.719   5.744   6.670 -0.3929 -0.0162  0.1901
  127OSM     OF13627   1.636   5.828   6.643  0.2029  0.0288  0.3889
  127OSM    C2F13628   1.837   5.778   6.753 -0.0129  0.4635 -0.4252
  127OSM    H2F13629   1.884   5.864   6.701 -2.0463  0.6588 -2.0533
  127OSM    H2G13630   1.907   5.692   6.763 -1.0662 -0.4923 -1.0617
  127OSM    C3F13631   1.792   5.829   6.888 -0.7246  0.6416  0.3652
  127OSM    H3F13632   1.725   5.915   6.867 -2.5380 -1.3504 -2.7620
  127OSM    H3G13633   1.890   5.857   6.932 -0.0201  0.0317 -0.7526
  127OSM    C4F13634   1.711   5.726   6.969  0.5417  0.1193 -0.0325
  127OSM    H4F13635   1.750   5.626   6.940  0.3676  0.8057 -2.8739
  127OSM    H4G13636   1.608   5.727   6.930  1.3493 -1.1799 -2.3718
  127OSM    C5F13637   1.716   5.747   7.124  0.7563 -0.5335  0.4554
  127OSM    H5F13638   1.647   5.833   7.142 -0.3572 -1.4229  0.5553
  127OSM    H5G13639   1.812   5.787   7.162  0.4977  1.2748 -0.6734
  127OSM    C6F13640   1.665   5.632   7.208  0.2393 -0.7231  0.0226
  127OSM    H6F13641   1.736   5.548   7.194  2.8587  1.4165 -0.2185
  127OSM    H6G13642   1.565   5.601   7.170  1.5878 -3.1238 -1.8293
  127OSM    C7F13643   1.663   5.673   7.356 -0.1417 -0.0203 -0.5288
  127OSM    H7F13644   1.590   5.597   7.391  0.1919 -0.6095 -1.0960
  127OSM    H7G13645   1.614   5.773   7.364  0.6434  0.4582 -1.5053
  127OSM    C8F13646   1.799   5.658   7.436 -0.1671  0.4068 -0.3641
  127OSM    H8F13647   1.785   5.714   7.531  2.2727  0.3564  0.0932
  127OSM    H8G13648   1.874   5.713   7.376  0.2816  0.7670  0.5120
  127OSM    C9F13649   1.846   5.516   7.453  0.0758 -0.6483 -0.8113
  127OSM    H9F13650   1.861   5.451   7.366 -0.6116  0.5895 -1.8815
  127OSM   C10F13651   1.859   5.460   7.575  0.3819  0.6315 -0.5986
  127OSM   H10F13652   1.887   5.354   7.582  2.8987  1.1263 -2.0065
  127OSM   C11F13653   1.835   5.542   7.703 -1.3040  0.8620 -0.0483
  127OSM   H11F13654   1.876   5.645   7.698  0.2266  0.3950  1.7806
  127OSM   H11G13655   1.902   5.501   7.782 -2.1815 -1.0403 -0.2378
  127OSM   C12F13656   1.688   5.543   7.752  0.6186  0.9492  0.5030
  127OSM   H12F13657   1.623   5.601   7.684  0.6615  0.0674 -0.3078
  127OSM   H12G13658   1.696   5.589   7.853 -2.0113  1.6617  0.4580
  127OSM   C13F13659   1.620   5.403   7.772 -0.1529 -0.2915 -0.6999
  127OSM   H13F13660   1.680   5.343   7.845 -0.3745 -1.1457 -1.2166
  127OSM   H13G13661   1.609   5.354   7.674 -2.2304  0.4595 -0.8769
  127OSM   C14F13662   1.478   5.410   7.825 -0.1355  0.0265  0.3398
  127OSM   H14F13663   1.455   5.305   7.851  1.1009 -0.6499 -1.1857
  127OSM   H14G13664   1.411   5.436   7.740  0.4103 -2.2238 -0.8451
  127OSM   C15F13665   1.465   5.490   7.949  0.1665  0.4795  0.9586
  127OSM   H15F13666   1.477   5.597   7.921 -0.6257  0.0320 -1.2628
  127OSM   H15G13667   1.557   5.469   8.008 -0.0954  0.0705  1.2224
  127OSM   C16F13668   1.348   5.459   8.040  0.1235  0.2072 -0.3070
  127OSM   H16F13669   1.336   5.353   8.070  0.0840  0.1446 -0.5453
  127OSM   H16G13670   1.251   5.483   7.993 -0.5735  0.4668  1.1930
  127OSM   C17F13671   1.351   5.544   8.167 -0.2643  0.1575 -0.4234
  127OSM   H17F13672   1.391   5.642   8.134 -0.8554  0.1046 -1.3456
  127OSM   H17G13673   1.428   5.500   8.233 -0.0864  3.1396  1.5328
  127OSM   C18F13674   1.217   5.544   8.249 -0.6553  0.5059  0.2376
  127OSM   H18F13675   1.174   5.443   8.262  3.1671 -1.2164  0.8982
  127OSM   H18G13676   1.145   5.610   8.196  0.0560 -0.2323 -1.7401
  127OSM   H18H13677   1.233   5.580   8.353 -0.0047 -1.0858  0.7117
  128OSM      N13678   2.635   1.155   5.792 -0.0192  0.3521 -0.7215
  128OSM    C1513679   2.739   1.100   5.703  0.1595  0.4730  0.2211
  128OSM   H15A13680   2.765   1.177   5.632 -1.8142  0.7812 -0.2238
  128OSM   H15B13681   2.698   1.019   5.645 -0.9334  0.2384  1.2758
  128OSM   H15C13682   2.827   1.066   5.755 -0.3813  0.8012  1.3931
  128OSM    C1413683   2.602   1.068   5.910 -1.1509  0.0414  0.1685
  128OSM   H14A13684   2.506   1.096   5.950 -1.4392 -2.3862  1.4011
  128OSM   H14B13685   2.676   1.079   5.989 -1.2336 -0.1121  0.2694
  128OSM   H14C13686   2.608   0.964   5.881  1.1374  0.6297 -1.8292
  128OSM    C1313687   2.692   1.278   5.849 -0.3567  0.4823  0.3839
  128OSM   H13A13688   2.621   1.329   5.912  0.8864  1.8411  0.7475
  128OSM   H13B13689   2.718   1.346   5.770  2.5815 -1.3229 -0.3944
  128OSM   H13C13690   2.775   1.262   5.917 -0.6576  0.3340  0.7228
  128OSM    C1213691   2.505   1.184   5.717 -0.3039 -0.9533  0.0570
  128OSM   H12A13692   2.488   1.090   5.668 -1.1118 -0.5855 -0.3753
  128OSM   H12B13693   2.527   1.262   5.646 -1.7403  0.0757  0.6948
  128OSM    C1113694   2.379   1.227   5.799  0.4216  0.3761  0.1695
  128OSM   H11A13695   2.302   1.256   5.724  0.2966 -3.9935 -1.7101
  128OSM   H11B13696   2.401   1.326   5.844 -0.2395  1.7338 -2.2671
  128OSM      P13697   2.219   1.149   6.003  0.3874 -0.2140 -0.2586
  128OSM    O1313698   2.087   1.212   5.957 -0.3004 -0.7145  0.1221
  128OSM    O1413699   2.214   1.018   6.068 -0.2951  0.4427  0.5103
  128OSM    O1113700   2.293   1.241   6.094 -0.0939  0.0174 -0.2928
  128OSM    O1213701   2.325   1.132   5.882  0.0079  0.0079 -0.6281
  128OSM    C1S13702   2.331   1.225   6.229  1.1229 -0.2406  0.3152
  128OSM    H1S13703   2.303   1.126   6.272  0.6208  0.1136  0.8081
  128OSM    H1T13704   2.266   1.298   6.282 -0.3407 -0.5380 -0.9925
  128OSM     NF13705   2.506   1.249   6.418  0.1819  0.1020  0.1394
  128OSM    HNF13706   2.525   1.333   6.468  1.4536 -0.0403 -0.0543
  128OSM    C2S13707   2.483   1.258   6.265  0.3199 -0.2886  0.1681
  128OSM    H2S13708   2.549   1.180   6.221  0.9532 -0.8909  2.1086
  128OSM    C3S13709   2.526   1.391   6.205 -0.4127 -0.4172  0.1222
  128OSM    H3S13710   2.459   1.470   6.244 -2.3421 -2.6090  1.5479
  128OSM     O313711   2.495   1.409   6.069 -0.1795 -0.4465  0.6186
  128OSM    HO313712   2.431   1.340   6.050  0.5858 -0.5622 -1.8882
  128OSM    C4S13713   2.672   1.423   6.242  0.3704 -0.9087 -0.0765
  128OSM    H4S13714   2.736   1.335   6.227 -0.1406 -1.7045  2.1097
  128OSM    C5S13715   2.725   1.542   6.288  0.7834  0.1123  0.1994
  128OSM    H5S13716   2.660   1.631   6.289  0.3901 -0.1079 -1.6689
  128OSM    C6S13717   2.872   1.569   6.310  0.1849 -0.2644 -0.3391
  128OSM    H6S13718   2.917   1.631   6.230 -0.9395  0.4032 -0.4784
  128OSM    H6T13719   2.926   1.472   6.312 -0.2999 -0.5343  0.9648
  128OSM    C7S13720   2.890   1.640   6.447 -0.2549 -0.4763  0.2652
  128OSM    H7S13721   2.824   1.728   6.463 -0.5208 -0.4741 -0.7774
  128OSM    H7T13722   2.997   1.670   6.455 -0.4418  0.0840  0.7938
  128OSM    C8S13723   2.851   1.555   6.570  0.0368 -0.8503 -0.1366
  128OSM    H8S13724   2.927   1.474   6.577  3.1070  1.6018 -2.1208
  128OSM    H8T13725   2.755   1.502   6.558 -0.1150 -0.4449 -0.7794
  128OSM    C9S13726   2.856   1.625   6.709 -0.6748 -0.3077  0.5935
  128OSM    H9S13727   2.948   1.688   6.710 -0.9020  0.1102 -1.5519
  128OSM    H9T13728   2.852   1.558   6.798  3.0701  0.0356  1.1850
  128OSM   C10S13729   2.741   1.728   6.727  0.7998 -0.9796  0.7248
  128OSM   H10S13730   2.644   1.673   6.725 -0.1923  0.6156 -3.0534
  128OSM   H10T13731   2.735   1.799   6.642 -0.1662  0.0117  1.5987
  128OSM   C11S13732   2.749   1.826   6.847  0.2124  0.5121 -0.2603
  128OSM   H11S13733   2.672   1.905   6.835 -0.4380  0.4235  2.6694
  128OSM   H11T13734   2.843   1.881   6.825 -1.2738  3.4132  0.1763
  128OSM   C12S13735   2.750   1.767   6.990 -0.2519  0.3769  0.0410
  128OSM   H12S13736   2.831   1.692   6.986  0.3465  1.0365 -0.6718
  128OSM   H12T13737   2.660   1.704   7.005 -0.3667  0.2252 -1.1880
  128OSM   C13S13738   2.767   1.868   7.100  0.0100 -0.0510  0.1119
  128OSM   H13S13739   2.672   1.925   7.112  0.4191  0.1483  3.1150
  128OSM   H13T13740   2.853   1.936   7.085  1.2730 -1.2876  1.4343
  128OSM   C14S13741   2.798   1.795   7.232  0.6354  0.0845  0.1029
  128OSM   H14S13742   2.902   1.754   7.227  1.2046  1.5949 -1.2686
  128OSM   H14T13743   2.725   1.713   7.249  0.5857 -0.0660 -0.7905
  128OSM   C15S13744   2.788   1.887   7.356  0.8398 -0.0131 -0.1245
  128OSM   H15S13745   2.692   1.940   7.336 -0.2314 -1.7842  0.0874
  128OSM   H15T13746   2.867   1.964   7.355  2.1224 -1.2794  0.1349
  128OSM   C16S13747   2.778   1.818   7.494  0.1875 -0.0199  0.2690
  128OSM   H16S13748   2.685   1.758   7.504  0.1818 -0.3633 -1.4282
  128OSM   H16T13749   2.780   1.896   7.573 -0.8157 -1.3147  1.6329
  128OSM   C17S13750   2.900   1.737   7.523  0.5393  0.4771  0.2040
  128OSM   H17S13751   2.996   1.782   7.488  0.4346  0.1753 -0.4788
  128OSM   H17T13752   2.898   1.641   7.467  0.7895  0.5059  0.1434
  128OSM   C18S13753   2.903   1.690   7.666 -0.8021 -0.8888 -0.2132
  128OSM   H18S13754   2.966   1.601   7.685 -1.4111 -0.7732  3.0511
  128OSM   H18T13755   2.802   1.667   7.706 -0.2794 -0.7492  1.2402
  128OSM   H18U13756   2.941   1.769   7.734 -2.6657  0.5266 -0.7188
  128OSM    C1F13757   2.489   1.137   6.485 -0.3339 -0.3119 -1.0909
  128OSM     OF13758   2.500   1.031   6.426 -0.2660  0.2513  0.1416
  128OSM    C2F13759   2.466   1.160   6.634  0.3777 -0.2984 -0.0110
  128OSM    H2F13760   2.384   1.234   6.643 -1.4769 -1.9721 -1.9702
  128OSM    H2G13761   2.561   1.191   6.683 -1.2524  1.3710  2.3511
  128OSM    C3F13762   2.412   1.043   6.720 -0.1784 -0.0039 -0.1455
  128OSM    H3F13763   2.479   0.955   6.707 -1.5185 -1.3460  1.6159
  128OSM    H3G13764   2.312   1.016   6.679 -0.8537  0.9072  0.8260
  128OSM    C4F13765   2.402   1.076   6.869 -0.0360 -0.0959  0.0765
  128OSM    H4F13766   2.371   1.181   6.888 -1.5022 -0.6329  0.8358
  128OSM    H4G13767   2.506   1.072   6.908  0.7779  0.3367 -1.8911
  128OSM    C5F13768   2.305   0.978   6.938  0.5305  0.2782  0.1094
  128OSM    H5F13769   2.329   0.873   6.911  1.3064  0.1945  1.0667
  128OSM    H5G13770   2.202   0.984   6.897 -1.1916 -2.1847  3.5738
  128OSM    C6F13771   2.296   0.993   7.085  0.4957 -0.6566  0.2928
  128OSM    H6F13772   2.249   1.092   7.103  0.5908 -0.0392 -2.4748
  128OSM    H6G13773   2.398   0.995   7.127  0.8199 -0.3196 -0.4950
  128OSM    C7F13774   2.214   0.889   7.160  0.4729  0.8531 -0.6418
  128OSM    H7F13775   2.258   0.787   7.160 -0.9155  0.2282 -1.4635
  128OSM    H7G13776   2.113   0.877   7.115  0.2155 -1.4889  0.4223
  128OSM    C8F13777   2.202   0.918   7.308 -0.3156 -0.1662 -0.3709
  128OSM    H8F13778   2.135   1.005   7.321 -0.1433 -0.2270  1.0062
  128OSM    H8G13779   2.305   0.955   7.331 -0.2371 -1.0669  0.7664
  128OSM    C9F13780   2.165   0.808   7.402  1.0607  0.2853 -0.4095
  128OSM    H9F13781   2.075   0.752   7.371  0.2729  0.8706  0.7727
  128OSM   C10F13782   2.233   0.772   7.513  0.2050  0.0492  0.0720
  128OSM   H10F13783   2.199   0.690   7.578 -1.3178  0.9976  0.5246
  128OSM   C11F13784   2.358   0.839   7.573  0.2591  0.2153  0.3786
  128OSM   H11F13785   2.363   0.949   7.560 -0.5900  0.3115  0.7907
  128OSM   H11G13786   2.445   0.793   7.522 -0.1535  0.1525 -0.2790
  128OSM   C12F13787   2.354   0.814   7.727  0.2598 -0.6559  0.8923
  128OSM   H12F13788   2.446   0.862   7.766  1.5968 -0.7460 -1.8673
  128OSM   H12G13789   2.368   0.711   7.767  1.6678 -0.6923  0.3495
  128OSM   C13F13790   2.233   0.872   7.794 -0.3605 -0.2308  0.3204
  128OSM   H13F13791   2.136   0.837   7.752 -1.7422  1.9066  1.5469
  128OSM   H13G13792   2.226   0.983   7.795 -2.2341 -0.3044 -0.3512
  128OSM   C14F13793   2.226   0.854   7.945  0.4641 -0.0730  0.1181
  128OSM   H14F13794   2.194   0.752   7.974 -0.2536  0.6255  1.9209
  128OSM   H14G13795   2.150   0.925   7.982 -0.6613 -0.4970 -1.2718
  128OSM   C15F13796   2.357   0.886   8.022 -0.2106  0.5830  0.3359
  128OSM   H15F13797   2.389   0.989   7.998  1.0245 -0.0518 -0.9188
  128OSM   H15G13798   2.443   0.825   7.986  0.5113  1.4428  0.5592
  128OSM   C16F13799   2.339   0.872   8.171  0.0108  0.5797 -0.0252
  128OSM   H16F13800   2.252   0.934   8.199 -0.9697 -0.0286 -1.6165
  128OSM   H16G13801   2.435   0.913   8.210  0.4362 -0.7528  0.3789
  128OSM   C17F13802   2.339   0.727   8.217  0.0568  0.5844  0.1381
  128OSM   H17F13803   2.385   0.658   8.144  0.5350 -0.3644  1.2966
  128OSM   H17G13804   2.234   0.696   8.239 -0.2107  1.3458 -0.0436
  128OSM   C18F13805   2.417   0.710   8.350 -0.1334  0.6564  0.0764
  128OSM   H18F13806   2.411   0.602   8.375 -1.6261  0.9397  1.0690
  128OSM   H18G13807   2.375   0.781   8.424 -2.2889  0.4502 -0.8651
  128OSM   H18H13808   2.520   0.733   8.316 -0.4489  1.3047 -0.4788
  129OSM      N13809   0.862   4.920   6.114 -0.5310  0.0820  0.4759
  129OSM    C1513810   0.784   4.841   6.014 -0.4878  0.0297  0.7329
  129OSM   H15A13811   0.838   4.751   5.989  2.3902  1.1179  2.5518
  129OSM   H15B13812   0.781   4.886   5.916  0.3926 -1.9966 -0.2895
  129OSM   H15C13813   0.683   4.813   6.040 -0.0565 -1.3605  1.0177
  129OSM    C1413814   0.863   4.844   6.246  0.0239  0.2265  0.2842
  129OSM   H14A13815   0.939   4.767   6.245  1.4903  1.6288 -0.0131
  129OSM   H14B13816   0.771   4.793   6.270  0.0929  0.8170  1.9180
  129OSM   H14C13817   0.886   4.920   6.319 -2.1047  1.4161 -0.2121
  129OSM    C1313818   0.999   4.963   6.069  0.4862  0.2787  0.4905
  129OSM   H13A13819   1.066   4.880   6.051  0.4432  0.7162 -2.0566
  129OSM   H13B13820   1.050   5.023   6.142  3.4300 -1.3794 -0.0539
  129OSM   H13C13821   0.995   5.012   5.973  0.4821  0.4229  0.5640
  129OSM    C1213822   0.777   5.052   6.130  0.0386  0.2257 -0.3015
  129OSM   H12A13823   0.673   5.022   6.126 -0.2321  1.2407 -2.5812
  129OSM   H12B13824   0.796   5.126   6.053  0.6119  2.4004  1.7880
  129OSM    C1113825   0.789   5.138   6.267 -0.0372  0.1871  0.6323
  129OSM   H11A13826   0.752   5.076   6.352 -1.0337 -1.0752 -0.6612
  129OSM   H11B13827   0.729   5.231   6.259  1.0324  0.7265 -2.5977
  129OSM      P13828   0.984   5.298   6.213  0.2516 -0.2361  0.0583
  129OSM    O1313829   1.126   5.311   6.232  0.1493  0.7057 -0.1243
  129OSM    O1413830   0.931   5.300   6.079 -0.5241 -0.3243  0.3834
  129OSM    O1113831   0.923   5.421   6.289 -0.2752 -0.0647 -0.2409
  129OSM    O1213832   0.927   5.170   6.288  0.6387 -0.0232 -0.6053
  129OSM    C1S13833   0.914   5.411   6.439  0.5386  0.4458  0.1137
  129OSM    H1S13834   0.892   5.307   6.472 -3.0136  0.0713 -2.8176
  129OSM    H1T13835   0.821   5.454   6.482 -0.1245 -1.0972  0.2958
  129OSM     NF13836   1.046   5.444   6.656  0.2141 -0.5155  0.0373
  129OSM    HNF13837   1.033   5.515   6.726  0.8802  1.2758 -1.5566
  129OSM    C2S13838   1.035   5.481   6.514  0.3504 -0.3202 -0.0541
  129OSM    H2S13839   1.129   5.445   6.465  1.6792  2.1493  0.5124
  129OSM    C3S13840   1.025   5.633   6.484  0.2304  0.0814 -1.3073
  129OSM    H3S13841   0.940   5.661   6.549 -0.0587 -1.9487 -0.7343
  129OSM     O313842   0.993   5.667   6.345  0.6318  0.1228  0.4452
  129OSM    HO313843   0.974   5.579   6.312 -0.6232 -0.2073  1.9351
  129OSM    C4S13844   1.152   5.698   6.526  0.3442  0.5056  0.3252
  129OSM    H4S13845   1.249   5.678   6.479 -0.6665 -0.7008 -1.3430
  129OSM    C5S13846   1.147   5.796   6.619 -1.1157  0.6111 -0.1292
  129OSM    H5S13847   1.050   5.817   6.666 -1.7841 -0.7087 -0.8444
  129OSM    C6S13848   1.271   5.870   6.660  0.1481  0.2109  0.7249
  129OSM    H6S13849   1.257   5.976   6.630  1.0932 -0.0995 -1.0185
  129OSM    H6T13850   1.360   5.829   6.607 -0.7578  1.2068 -1.7669
  129OSM    C7S13851   1.296   5.862   6.809  0.6225 -0.1310 -0.0407
  129OSM    H7S13852   1.351   5.768   6.833 -1.4752 -1.6439 -0.8117
  129OSM    H7T13853   1.196   5.850   6.857 -1.4521  1.6409 -3.5451
  129OSM    C8S13854   1.364   5.977   6.882  0.2531 -0.0396 -0.1206
  129OSM    H8S13855   1.304   6.066   6.856  1.4162  0.6862 -0.3856
  129OSM    H8T13856   1.464   5.992   6.836 -0.5770 -0.6978 -2.2440
  129OSM    C9S13857   1.367   5.957   7.032  0.7488  0.0280 -0.5615
  129OSM    H9S13858   1.414   5.861   7.059  0.2590  0.0611  0.4532
  129OSM    H9T13859   1.261   5.948   7.063  0.3313 -0.5293 -2.0654
  129OSM   C10S13860   1.434   6.069   7.116 -0.2282 -0.1080  0.9249
  129OSM   H10S13861   1.374   6.158   7.089 -0.1866 -0.6308 -1.0161
  129OSM   H10T13862   1.536   6.084   7.075  0.0528 -2.0823  0.8203
  129OSM   C11S13863   1.447   6.034   7.270  1.5752 -0.2670  0.2048
  129OSM   H11S13864   1.524   6.084   7.332  0.1245  1.0043  1.0526
  129OSM   H11T13865   1.478   5.928   7.263  1.0222 -0.3921 -5.0375
  129OSM   C12S13866   1.315   6.030   7.338 -0.4121  0.2896 -0.0651
  129OSM   H12S13867   1.235   6.010   7.264 -0.1348  0.5517 -0.4385
  129OSM   H12T13868   1.287   6.132   7.373 -1.4135 -0.0003  0.0047
  129OSM   C13S13869   1.311   5.926   7.445 -0.4826 -0.0740  0.7694
  129OSM   H13S13870   1.417   5.910   7.474 -0.2921 -2.2221 -0.8863
  129OSM   H13T13871   1.275   5.829   7.404  1.2127 -0.3098 -0.2697
  129OSM   C14S13872   1.226   5.966   7.560  0.0163 -0.0643 -0.1256
  129OSM   H14S13873   1.124   5.926   7.543 -0.8683  1.6108  0.9949
  129OSM   H14T13874   1.210   6.074   7.578  0.8231  0.3728 -1.8538
  129OSM   C15S13875   1.287   5.911   7.694  0.0235  0.5143 -0.0213
  129OSM   H15S13876   1.387   5.958   7.709  0.1521 -0.1980  1.5224
  129OSM   H15T13877   1.304   5.803   7.674  0.3635  0.7027 -0.8216
  129OSM   C16S13878   1.191   5.928   7.810  1.0218 -0.3485  0.7877
  129OSM   H16S13879   1.093   5.879   7.795  0.2905  1.6778 -1.9820
  129OSM   H16T13880   1.172   6.036   7.825 -0.3295 -0.4062 -0.2830
  129OSM   C17S13881   1.236   5.872   7.945 -0.5512 -0.2950  0.5380
  129OSM   H17S13882   1.340   5.897   7.972 -0.1113 -0.5354 -0.8668
  129OSM   H17T13883   1.230   5.761   7.949  1.1682 -0.3828  1.9839
  129OSM   C18S13884   1.156   5.906   8.070  0.2551  0.0368  0.2342
  129OSM   H18S13885   1.052   5.870   8.056 -0.3006  1.6695 -0.1453
  129OSM   H18T13886   1.146   6.016   8.087 -0.0304  0.5708 -2.8623
  129OSM   H18U13887   1.199   5.866   8.164 -0.1155  2.8232  1.6886
  129OSM    C1F13888   1.053   5.321   6.690 -0.4300 -0.6280 -0.2619
  129OSM     OF13889   1.069   5.231   6.611  0.2131  0.4001  0.1751
  129OSM    C2F13890   1.050   5.291   6.837 -0.1451 -0.1181  0.2935
  129OSM    H2F13891   1.080   5.384   6.891 -1.0671  1.9379 -2.5102
  129OSM    H2G13892   1.120   5.207   6.855  2.0391  1.1382 -1.6878
  129OSM    C3F13893   0.901   5.258   6.876 -0.1068 -0.4350  1.1369
  129OSM    H3F13894   0.868   5.171   6.815 -3.2047 -0.9954  3.3413
  129OSM    H3G13895   0.830   5.340   6.850 -1.5843 -2.2699 -1.0485
  129OSM    C4F13896   0.877   5.221   7.019  0.4362 -0.2571  0.8342
  129OSM    H4F13897   0.866   5.318   7.072  0.2436 -1.2161  2.6199
  129OSM    H4G13898   0.971   5.170   7.050  0.1071 -1.1548  0.3894
  129OSM    C5F13899   0.754   5.133   7.042  0.0720 -0.4862  0.0625
  129OSM    H5F13900   0.759   5.045   6.974 -1.3829  0.6153 -1.5838
  129OSM    H5G13901   0.661   5.191   7.022 -1.1621 -1.6774  1.9876
  129OSM    C6F13902   0.754   5.087   7.192 -0.2352 -0.9752  0.2964
  129OSM    H6F13903   0.837   5.018   7.216  1.5389  0.6403 -0.8946
  129OSM    H6G13904   0.657   5.040   7.220 -1.0879  1.7752  2.4417
  129OSM    C7F13905   0.761   5.208   7.292 -0.7217 -0.0326  0.1541
  129OSM    H7F13906   0.671   5.271   7.276 -0.6276 -0.3489 -1.9022
  129OSM    H7G13907   0.846   5.280   7.285  0.9554 -1.8820  0.5806
  129OSM    C8F13908   0.785   5.153   7.433 -0.0289 -0.3416 -0.3016
  129OSM    H8F13909   0.844   5.224   7.494 -2.2325  3.1891 -1.9186
  129OSM    H8G13910   0.837   5.055   7.424 -1.2715 -0.9432 -1.2974
  129OSM    C9F13911   0.654   5.111   7.496  0.3334 -0.9394 -0.2918
  129OSM    H9F13912   0.596   5.030   7.448 -0.0703 -1.6255  1.3020
  129OSM   C10F13913   0.602   5.177   7.604 -0.0127  0.9305  0.8018
  129OSM   H10F13914   0.500   5.149   7.635  0.7532 -2.0577  0.8679
  129OSM   C11F13915   0.663   5.288   7.684  0.0209  0.9863 -0.0130
  129OSM   H11F13916   0.580   5.353   7.717 -0.3111  0.1880  0.7598
  129OSM   H11G13917   0.726   5.354   7.620  0.8481  0.6810  0.4631
  129OSM   C12F13918   0.726   5.239   7.812 -0.6442 -0.0109  0.2143
  129OSM   H12F13919   0.766   5.330   7.861 -2.1146  0.3221  0.8392
  129OSM   H12G13920   0.819   5.182   7.790  0.5190  2.1114 -0.7454
  129OSM   C13F13921   0.624   5.173   7.906  0.6570  0.5084 -0.2748
  129OSM   H13F13922   0.607   5.067   7.879  0.5894  0.4810 -0.1252
  129OSM   H13G13923   0.524   5.220   7.906  0.1897 -0.4712  0.4708
  129OSM   C14F13924   0.669   5.180   8.054  0.5648  0.1161  0.3104
  129OSM   H14F13925   0.773   5.141   8.063 -0.2961 -2.3355  0.3579
  129OSM   H14G13926   0.598   5.111   8.104 -1.1173  1.3057 -0.3660
  129OSM   C15F13927   0.649   5.311   8.132  0.1117  0.4294  1.0569
  129OSM   H15F13928   0.549   5.347   8.102  0.0403 -0.3370  0.3509
  129OSM   H15G13929   0.719   5.381   8.081 -0.0716  1.0552  1.6524
  129OSM   C16F13930   0.666   5.295   8.287 -0.2717 -0.2540 -0.0252
  129OSM   H16F13931   0.592   5.218   8.319  0.9069 -0.9770  1.0542
  129OSM   H16G13932   0.635   5.387   8.343 -3.5967 -0.4982 -1.2111
  129OSM   C17F13933   0.804   5.260   8.321  0.6298  0.0087  1.1446
  129OSM   H17F13934   0.870   5.336   8.273 -1.3687  0.2181 -1.5222
  129OSM   H17G13935   0.842   5.170   8.268  0.5642  0.9363 -0.5588
  129OSM   C18F13936   0.822   5.236   8.463 -0.1185  0.1008 -0.3889
  129OSM   H18F13937   0.766   5.310   8.523 -0.6841  0.2760 -1.1234
  129OSM   H18G13938   0.930   5.237   8.491  0.3524 -0.1228 -2.0930
  129OSM   H18H13939   0.795   5.134   8.499  2.0261  0.3043  2.1486
  130OSM      N13940   3.553   1.156   5.651  0.3130  0.0990 -0.1031
  130OSM    C1513941   3.586   1.212   5.515  0.0227  0.4320  0.6081
  130OSM   H15A13942   3.630   1.141   5.447 -2.0890  0.4169 -0.8209
  130OSM   H15B13943   3.645   1.302   5.525 -1.4713  1.5496 -0.4071
  130OSM   H15C13944   3.495   1.247   5.471 -0.4140 -1.1773  0.1812
  130OSM    C1413945   3.512   1.275   5.738 -0.1554 -0.1379 -0.6590
  130OSM   H14A13946   3.411   1.294   5.703 -0.5987 -2.6601 -0.9840
  130OSM   H14B13947   3.581   1.356   5.722  0.7754 -0.4014  1.6560
  130OSM   H14C13948   3.510   1.245   5.842  1.9219  1.2612 -0.1643
  130OSM    C1313949   3.433   1.068   5.634 -0.2156  0.4298 -0.6206
  130OSM   H13A13950   3.356   1.115   5.575  0.5415  2.3647 -0.1461
  130OSM   H13B13951   3.398   1.063   5.736  0.5197  4.6069 -0.0053
  130OSM   H13C13952   3.453   0.966   5.605 -0.9968 -0.9385  3.0188
  130OSM    C1213953   3.670   1.081   5.705 -0.8876 -0.5344 -0.2961
  130OSM   H12A13954   3.748   1.153   5.725 -0.4160 -0.4352 -2.2812
  130OSM   H12B13955   3.703   1.011   5.629 -1.0659  0.5600 -1.4295
  130OSM    C1113956   3.647   0.994   5.831  0.0380  0.1890 -0.2959
  130OSM   H11A13957   3.741   0.935   5.839  0.7319  1.3620  0.8551
  130OSM   H11B13958   3.569   0.917   5.812  0.6790 -0.4527 -0.3547
  130OSM      P13959   3.702   1.167   6.026  0.1262  0.2139  0.0559
  130OSM    O1313960   3.845   1.155   5.980  0.1170  0.2543  0.1414
  130OSM    O1413961   3.641   1.307   6.030 -0.3317  0.5065 -0.5715
  130OSM    O1113962   3.701   1.114   6.171  0.1936 -0.2264 -0.4042
  130OSM    O1213963   3.609   1.068   5.948  0.7422  0.4007  0.4670
  130OSM    C1S13964   3.586   1.146   6.258 -0.3557  0.2760 -0.1173
  130OSM    H1S13965   3.505   1.090   6.207  1.5377 -1.0821 -1.7794
  130OSM    H1T13966   3.571   1.256   6.252 -2.4571  0.0357 -0.1186
  130OSM     NF13967   3.511   1.090   6.490 -0.4297 -0.1101 -0.0551
  130OSM    HNF13968   3.498   1.152   6.568  1.8374  0.4046  0.0011
  130OSM    C2S13969   3.630   1.111   6.404  0.0219 -0.3809 -0.0644
  130OSM    H2S13970   3.693   1.020   6.415  0.8928  0.3244  1.1296
  130OSM    C3S13971   3.724   1.219   6.461  0.1378  0.1788  0.2311
  130OSM    H3S13972   3.664   1.310   6.483 -1.7167 -0.3310 -2.2810
  130OSM     O313973   3.816   1.254   6.361 -0.2242 -0.1755 -0.6800
  130OSM    HO313974   3.808   1.184   6.296  0.6524 -1.1235  0.2139
  130OSM    C4S13975   3.791   1.179   6.591 -0.1242 -0.0014 -0.0518
  130OSM    H4S13976   3.866   1.100   6.572 -1.1581 -0.3253 -3.2525
  130OSM    C5S13977   3.767   1.220   6.721  0.4447 -0.2658  0.4709
  130OSM    H5S13978   3.683   1.289   6.736  1.1223  0.6997 -0.0751
  130OSM    C6S13979   3.834   1.165   6.838  0.3457 -0.0568 -0.1978
  130OSM    H6S13980   3.930   1.215   6.860  0.8626 -0.6618 -1.0212
  130OSM    H6T13981   3.863   1.060   6.818  0.6628 -0.0779  0.3641
  130OSM    C7S13982   3.727   1.168   6.952 -0.1069 -0.0864 -0.0932
  130OSM    H7S13983   3.630   1.125   6.919 -0.4621  0.1961  0.5729
  130OSM    H7T13984   3.711   1.275   6.974  0.1660 -0.1236  0.3000
  130OSM    C8S13985   3.779   1.100   7.078 -0.1101  0.2340 -0.1288
  130OSM    H8S13986   3.884   1.126   7.102 -0.5167 -0.9222  3.5448
  130OSM    H8T13987   3.780   0.989   7.070  0.0244  0.2479 -0.3093
  130OSM    C9S13988   3.689   1.135   7.201 -0.0882 -0.4874 -0.6301
  130OSM    H9S13989   3.584   1.114   7.171 -0.5484  1.3994 -0.4469
  130OSM    H9T13990   3.698   1.245   7.206  2.7686 -0.7006  0.9959
  130OSM   C10S13991   3.745   1.073   7.328 -0.6647  0.7852  1.1784
  130OSM   H10S13992   3.853   1.093   7.344 -0.4915  0.2308  0.7586
  130OSM   H10T13993   3.748   0.962   7.325  1.0961  0.8000 -2.4836
  130OSM   C11S13994   3.676   1.118   7.456 -0.3379  0.4847 -0.0622
  130OSM   H11S13995   3.567   1.119   7.439 -0.6102  1.0973  1.4840
  130OSM   H11T13996   3.715   1.221   7.469  2.2173 -0.5205  1.0254
  130OSM   C12S13997   3.719   1.035   7.579 -0.3891 -0.8966  0.1591
  130OSM   H12S13998   3.830   1.043   7.588 -0.5063  0.7998  0.5052
  130OSM   H12T13999   3.697   0.927   7.565 -3.1850 -0.2831 -0.7927
  130OSM   C13S14000   3.682   1.093   7.717 -0.1626 -0.3815  0.3949
  130OSM   H13S14001   3.575   1.066   7.729  0.0681 -1.5514 -0.0917
  130OSM   H13T14002   3.693   1.204   7.715 -2.2855 -0.1371  0.7053
  130OSM   C14S14003   3.767   1.031   7.828  0.0945  0.1943  0.1061
  130OSM   H14S14004   3.864   1.086   7.827  0.8818 -0.9648 -3.8854
  130OSM   H14T14005   3.791   0.927   7.797 -1.9642  0.4117 -2.5528
  130OSM   C15S14006   3.698   1.028   7.962  0.2566  0.9825  0.3954
  130OSM   H15S14007   3.597   0.983   7.957  0.8067 -0.2132 -0.4730
  130OSM   H15T14008   3.684   1.135   7.990  1.1413  1.6740 -1.5975
  130OSM   C16S14009   3.785   0.957   8.070  0.2066  0.2549 -0.2700
  130OSM   H16S14010   3.854   1.033   8.113  1.2117  0.2761 -1.8381
  130OSM   H16T14011   3.834   0.866   8.029  0.8784  0.0762  0.8901
  130OSM   C17S14012   3.705   0.918   8.197 -0.7423 -0.4274 -0.0192
  130OSM   H17S14013   3.774   0.886   8.278  0.2286  0.7023 -0.3775
  130OSM   H17T14014   3.630   0.841   8.167 -1.6052  0.5580 -0.4558
  130OSM   C18S14015   3.631   1.032   8.257  0.2871 -0.5453 -0.2894
  130OSM   H18S14016   3.582   1.101   8.186 -2.7068  0.2612  2.3040
  130OSM   H18T14017   3.695   1.084   8.331  1.0838  0.0056 -1.3398
  130OSM   H18U14018   3.551   0.986   8.319 -0.0582 -0.6456 -0.8111
  130OSM    C1F14019   3.421   0.996   6.463 -0.1726 -0.0251  0.4669
  130OSM     OF14020   3.441   0.904   6.384  0.5805 -0.2971  0.0891
  130OSM    C2F14021   3.292   1.007   6.539 -0.3118  0.3594  0.6837
  130OSM    H2F14022   3.217   1.061   6.477 -1.0526 -2.7069 -1.2887
  130OSM    H2G14023   3.313   1.065   6.632 -1.3586 -0.2117  1.3010
  130OSM    C3F14024   3.218   0.876   6.582 -0.3335 -0.3110 -0.2755
  130OSM    H3F14025   3.189   0.828   6.487  0.4588 -2.0849  0.3418
  130OSM    H3G14026   3.121   0.904   6.627 -0.2360 -1.2860  0.5794
  130OSM    C4F14027   3.305   0.795   6.685  0.8226  0.8272  0.1335
  130OSM    H4F14028   3.390   0.750   6.631 -1.5143 -2.8900 -0.8662
  130OSM    H4G14029   3.247   0.705   6.716  0.7347  1.3374  1.5406
  130OSM    C5F14030   3.366   0.864   6.810  0.2008 -0.4424 -0.3928
  130OSM    H5F14031   3.278   0.892   6.872 -0.4094 -1.2296 -0.8751
  130OSM    H5G14032   3.420   0.958   6.785 -1.4717  0.8007  0.4392
  130OSM    C6F14033   3.465   0.786   6.892 -0.2999  0.1021  0.0257
  130OSM    H6F14034   3.561   0.793   6.837 -0.9717  0.7714 -1.0845
  130OSM    H6G14035   3.437   0.681   6.911  1.1777 -0.1494  1.0468
  130OSM    C7F14036   3.505   0.852   7.023 -0.1610  0.2978 -0.2335
  130OSM    H7F14037   3.520   0.962   7.021  0.5363  0.2221  0.3606
  130OSM    H7G14038   3.606   0.815   7.052 -0.4397 -1.9967 -1.9116
  130OSM    C8F14039   3.400   0.813   7.133  0.2236 -0.5769  0.1860
  130OSM    H8F14040   3.373   0.706   7.135  0.4418 -0.6908 -1.4586
  130OSM    H8G14041   3.304   0.864   7.112  0.5583 -0.3809 -0.9134
  130OSM    C9F14042   3.436   0.845   7.270 -0.3753 -0.0614 -0.0383
  130OSM    H9F14043   3.541   0.871   7.287 -0.0031 -1.2737 -0.3842
  130OSM   C10F14044   3.351   0.838   7.369 -0.0545  0.1321 -0.2161
  130OSM   H10F14045   3.382   0.853   7.473 -0.2720  0.4002 -0.1907
  130OSM   C11F14046   3.208   0.805   7.350 -0.4270  0.5797 -0.1637
  130OSM   H11F14047   3.198   0.702   7.390 -0.7472  1.3224  1.7671
  130OSM   H11G14048   3.163   0.810   7.248  1.0112  0.9060 -0.8129
  130OSM   C12F14049   3.115   0.887   7.433  0.1791 -0.5967 -0.1186
  130OSM   H12F14050   3.010   0.868   7.403 -0.7607  3.0093  0.3869
  130OSM   H12G14051   3.133   0.995   7.412  0.7919 -0.8308 -0.8118
  130OSM   C13F14052   3.115   0.858   7.588 -0.1441 -0.1026  0.0012
  130OSM   H13F14053   3.217   0.869   7.631 -0.2495  0.0868  0.2071
  130OSM   H13G14054   3.072   0.757   7.603 -0.1639 -0.0648  0.2072
  130OSM   C14F14055   3.021   0.961   7.654  0.8692 -0.1662 -0.5746
  130OSM   H14F14056   2.924   0.976   7.602  0.4374 -2.5588 -0.5995
  130OSM   H14G14057   3.072   1.060   7.657  2.3571 -0.7952 -2.6811
  130OSM   C15F14058   2.985   0.915   7.794  0.0125  0.5525 -0.8951
  130OSM   H15F14059   3.073   0.934   7.858 -0.7048 -1.5305  0.8136
  130OSM   H15G14060   2.982   0.804   7.795  1.6540  0.4940 -1.0220
  130OSM   C16F14061   2.848   0.976   7.842  0.1102  0.5056 -0.5740
  130OSM   H16F14062   2.764   0.912   7.808  0.2597  1.5963 -3.1864
  130OSM   H16G14063   2.815   1.074   7.801  0.6547  1.2774  0.7579
  130OSM   C17F14064   2.847   1.009   7.991  1.1163 -0.2429  0.0703
  130OSM   H17F14065   2.934   1.074   8.015  1.4338 -0.0609 -1.4665
  130OSM   H17G14066   2.849   0.915   8.050 -1.8529 -0.8436 -0.6150
  130OSM   C18F14067   2.711   1.073   8.029  0.1189  0.3109 -0.3999
  130OSM   H18F14068   2.629   1.002   8.007 -1.8020  2.1810  0.4360
  130OSM   H18G14069   2.678   1.155   7.963 -0.2824  0.6883  0.2681
  130OSM   H18H14070   2.700   1.095   8.137 -0.0702  1.6604 -0.6823
  131OSM      N14071   0.474   3.925   6.022  0.3079 -0.2466 -0.0746
  131OSM    C1514072   0.576   3.979   5.936 -0.2257 -0.0908  0.1964
  131OSM   H15A14073   0.551   3.958   5.833  0.9746  0.5869 -0.2558
  131OSM   H15B14074   0.676   3.941   5.957  0.4186  1.9466  1.0440
  131OSM   H15C14075   0.586   4.086   5.940 -1.8320  0.0743  0.1589
  131OSM    C1414076   0.484   3.992   6.156 -0.1451  0.2214  0.0730
  131OSM   H14A14077   0.582   3.986   6.201 -0.6667  1.8347  1.5851
  131OSM   H14B14078   0.414   3.954   6.229 -0.1347  0.2751  0.1117
  131OSM   H14C14079   0.459   4.097   6.141 -0.2504  0.1955  0.0677
  131OSM    C1314080   0.352   3.961   5.958  0.2203 -0.1232  0.8218
  131OSM   H13A14081   0.346   4.069   5.958  3.1729  0.1323 -0.3178
  131OSM   H13B14082   0.267   3.929   6.017  1.5959  0.3981  3.2267
  131OSM   H13C14083   0.348   3.917   5.860  2.3278 -0.2495  0.7575
  131OSM    C1214084   0.481   3.778   6.047  0.1282 -0.0449 -0.2738
  131OSM   H12A14085   0.475   3.725   5.953 -0.0019 -0.2270 -0.1626
  131OSM   H12B14086   0.407   3.754   6.122  1.3514  0.8124  1.2730
  131OSM    C1114087   0.612   3.734   6.104 -1.1104 -0.0549  0.3285
  131OSM   H11A14088   0.612   3.626   6.133  1.3013 -0.3201 -0.4147
  131OSM   H11B14089   0.649   3.786   6.196  0.9023 -1.2414  0.2589
  131OSM      P14090   0.764   3.640   5.915 -0.1106  0.3640  0.2946
  131OSM    O1314091   0.649   3.557   5.881 -0.1795 -0.1641 -0.0607
  131OSM    O1414092   0.840   3.706   5.808  0.0470  0.4373 -0.7425
  131OSM    O1114093   0.870   3.572   6.013 -0.5332 -0.6702  0.1863
  131OSM    O1214094   0.718   3.752   6.010  0.0851 -0.0809  0.1909
  131OSM    C1S14095   0.962   3.653   6.094  0.0471  0.1878 -0.3736
  131OSM    H1S14096   0.987   3.756   6.061 -0.4968  0.4407 -0.0154
  131OSM    H1T14097   1.061   3.602   6.097 -0.0336  0.0441 -0.1454
  131OSM     NF14098   1.029   3.725   6.326  0.7385  0.6063 -0.0902
  131OSM    HNF14099   1.081   3.662   6.383 -1.2230 -1.1206 -0.1182
  131OSM    C2S14100   0.925   3.652   6.251 -0.3378 -0.0822 -0.2805
  131OSM    H2S14101   0.836   3.718   6.242  0.2731  0.6697 -0.9812
  131OSM    C3S14102   0.893   3.511   6.298  0.4837 -0.1725  0.7431
  131OSM    H3S14103   0.974   3.439   6.275 -0.6839 -1.1060 -0.6277
  131OSM     O314104   0.785   3.446   6.229  0.2054  0.2343  0.1415
  131OSM    HO314105   0.793   3.492   6.146 -1.7902  1.3771  0.5310
  131OSM    C4S14106   0.857   3.512   6.445  0.2219 -0.3819 -0.0908
  131OSM    H4S14107   0.783   3.591   6.464  1.5051  1.5239 -2.4998
  131OSM    C5S14108   0.912   3.442   6.545 -0.2482  0.1398 -0.4074
  131OSM    H5S14109   0.988   3.365   6.529 -2.5134 -2.2680 -0.2526
  131OSM    C6S14110   0.867   3.445   6.688 -0.6943  0.9296  0.2953
  131OSM    H6S14111   0.932   3.505   6.756  0.0037  0.8170 -0.2550
  131OSM    H6T14112   0.868   3.339   6.722  1.2631  0.8637  0.1775
  131OSM    C7S14113   0.719   3.487   6.714  0.0533 -0.5731  0.2598
  131OSM    H7S14114   0.663   3.421   6.643  0.2060  0.2332 -0.6291
  131OSM    H7T14115   0.701   3.595   6.698 -2.2044 -0.6301  1.9631
  131OSM    C8S14116   0.678   3.475   6.860  0.1363 -0.2426 -0.5368
  131OSM    H8S14117   0.691   3.370   6.896  1.6601 -0.0886 -0.5625
  131OSM    H8T14118   0.573   3.509   6.875  0.2164  0.0407 -0.6216
  131OSM    C9S14119   0.759   3.571   6.958  0.2552 -0.3267  0.0405
  131OSM    H9S14120   0.696   3.659   6.983  0.2656  0.0166 -1.0893
  131OSM    H9T14121   0.846   3.615   6.904 -0.1022  0.2441 -0.0794
  131OSM   C10S14122   0.808   3.515   7.088  1.0515  0.3151 -0.3071
  131OSM   H10S14123   0.875   3.584   7.144 -0.8857  1.6289  0.5302
  131OSM   H10T14124   0.859   3.418   7.073 -0.1318 -0.6368  1.5375
  131OSM   C11S14125   0.686   3.493   7.189  0.0147  0.5733 -0.5723
  131OSM   H11S14126   0.622   3.413   7.148  2.0137 -0.9922 -0.7564
  131OSM   H11T14127   0.629   3.588   7.200  1.4837  1.3820  0.3692
  131OSM   C12S14128   0.738   3.444   7.322  0.2229 -0.3776 -0.0147
  131OSM   H12S14129   0.792   3.532   7.364  1.3519 -1.3187  0.5555
  131OSM   H12T14130   0.815   3.365   7.310  0.4035 -0.2257  0.1346
  131OSM   C13S14131   0.633   3.411   7.432 -0.4323  0.2157 -0.4970
  131OSM   H13S14132   0.544   3.365   7.385 -0.4886 -1.4541  1.1500
  131OSM   H13T14133   0.578   3.500   7.470 -3.4815 -1.8654  0.3836
  131OSM   C14S14134   0.689   3.321   7.549  0.0094 -0.5293 -0.6963
  131OSM   H14S14135   0.767   3.379   7.603 -1.0719 -0.4247  0.8145
  131OSM   H14T14136   0.729   3.225   7.512 -0.4279 -1.7112  1.6893
  131OSM   C15S14137   0.583   3.280   7.656 -0.6933 -0.1670  0.0606
  131OSM   H15S14138   0.616   3.193   7.716  0.2866 -0.6763 -1.1648
  131OSM   H15T14139   0.484   3.263   7.610 -0.7613  0.6371 -0.1142
  131OSM   C16S14140   0.562   3.387   7.755  0.0012  0.1308 -0.0984
  131OSM   H16S14141   0.538   3.488   7.714 -0.8229 -1.2764 -3.3339
  131OSM   H16T14142   0.655   3.399   7.815 -0.2388 -1.0899  0.5458
  131OSM   C17S14143   0.447   3.357   7.853 -0.6158 -0.3685  0.4547
  131OSM   H17S14144   0.473   3.270   7.917  0.1246  0.1329  0.8576
  131OSM   H17T14145   0.353   3.336   7.797 -0.3601 -0.0922 -0.0846
  131OSM   C18S14146   0.415   3.479   7.951 -0.0319 -0.1667 -1.1301
  131OSM   H18S14147   0.515   3.522   7.975  0.1797  1.6873 -4.6131
  131OSM   H18T14148   0.381   3.441   8.050  0.1460 -0.1346 -1.0554
  131OSM   H18U14149   0.354   3.565   7.917 -1.6045 -1.2927 -1.2777
  131OSM    C1F14150   1.055   3.850   6.305 -0.7049 -0.3186  0.4741
  131OSM     OF14151   0.971   3.921   6.259  0.5432 -0.4144 -0.3573
  131OSM    C2F14152   1.188   3.913   6.337 -0.2139  0.1646 -0.9136
  131OSM    H2F14153   1.229   3.953   6.242  0.5097 -0.5930 -0.9300
  131OSM    H2G14154   1.246   3.829   6.381 -0.3730  1.5907  2.2395
  131OSM    C3F14155   1.187   4.021   6.449  0.6592 -0.3227 -0.1286
  131OSM    H3F14156   1.128   4.107   6.410 -1.2075 -0.2809  2.5086
  131OSM    H3G14157   1.286   4.058   6.482 -0.9193  2.4144  1.9231
  131OSM    C4F14158   1.122   3.981   6.581 -0.4039  0.2213 -1.0011
  131OSM    H4F14159   1.017   3.955   6.558 -0.6688  1.6156 -1.4696
  131OSM    H4G14160   1.124   4.062   6.657  0.4540  0.0649 -0.8387
  131OSM    C5F14161   1.184   3.859   6.660 -0.8458  0.1093 -0.8417
  131OSM    H5F14162   1.254   3.792   6.606  0.3082 -0.1490  0.9006
  131OSM    H5G14163   1.092   3.799   6.678  0.2767 -2.2327 -2.4127
  131OSM    C6F14164   1.251   3.884   6.798  0.0634  0.4953 -1.3825
  131OSM    H6F14165   1.168   3.920   6.862  1.1396 -0.4699  0.6773
  131OSM    H6G14166   1.320   3.971   6.786  1.4041 -0.4361 -0.6333
  131OSM    C7F14167   1.325   3.771   6.863 -0.3190  0.1518 -0.3379
  131OSM    H7F14168   1.415   3.760   6.798 -0.8147  3.7136 -1.8112
  131OSM    H7G14169   1.272   3.673   6.869  0.6770 -0.3950 -0.0859
  131OSM    C8F14170   1.379   3.798   7.004 -0.4130 -0.4221 -0.7633
  131OSM    H8F14171   1.435   3.894   6.996  0.3388 -0.7827 -0.0814
  131OSM    H8G14172   1.447   3.714   7.030 -0.1687 -0.3796 -1.2472
  131OSM    C9F14173   1.277   3.809   7.115 -0.4344 -0.1624  0.0536
  131OSM    H9F14174   1.186   3.748   7.101  0.5808 -1.8666  0.5941
  131OSM   C10F14175   1.275   3.902   7.212  0.1163  0.5313  0.1782
  131OSM   H10F14176   1.193   3.898   7.285 -0.4501 -0.9803 -0.5083
  131OSM   C11F14177   1.379   4.007   7.241  0.5405 -0.4117  0.2025
  131OSM   H11F14178   1.323   4.101   7.260  0.1172 -0.4239 -0.9121
  131OSM   H11G14179   1.441   4.027   7.151 -1.0020 -0.8033 -0.9814
  131OSM   C12F14180   1.469   3.982   7.362 -0.5976  0.3245 -0.9555
  131OSM   H12F14181   1.535   4.069   7.384  0.0576 -0.1611 -0.9741
  131OSM   H12G14182   1.533   3.896   7.334 -0.5117 -0.1161  0.4938
  131OSM   C13F14183   1.384   3.933   7.489 -0.0016  0.3605  0.0764
  131OSM   H13F14184   1.321   3.845   7.463 -1.3731  1.6360 -1.1472
  131OSM   H13G14185   1.309   4.012   7.513 -0.9320 -0.3657 -0.3362
  131OSM   C14F14186   1.461   3.910   7.620 -0.3317 -0.5493  0.4053
  131OSM   H14F14187   1.497   4.006   7.664 -2.0649 -0.6914  2.2755
  131OSM   H14G14188   1.550   3.852   7.586  2.5418  1.8961  3.0891
  131OSM   C15F14189   1.386   3.826   7.724 -0.6947  0.3184 -0.1165
  131OSM   H15F14190   1.379   3.726   7.677 -0.1810 -0.0142  0.5041
  131OSM   H15G14191   1.283   3.867   7.735  0.5200  3.3220  1.3422
  131OSM   C16F14192   1.456   3.814   7.865 -0.0443  0.4672  0.0849
  131OSM   H16F14193   1.386   3.765   7.936  0.9904  2.3006  2.5384
  131OSM   H16G14194   1.482   3.919   7.893  1.9155  1.0237 -3.2750
  131OSM   C17F14195   1.585   3.725   7.862 -0.0593 -0.9897 -0.2070
  131OSM   H17F14196   1.662   3.761   7.791  0.0553  0.5592  0.6474
  131OSM   H17G14197   1.551   3.629   7.817  0.1779 -0.6528 -1.1370
  131OSM   C18F14198   1.647   3.697   8.004 -0.6304 -0.4760  0.4084
  131OSM   H18F14199   1.676   3.796   8.046 -0.7777 -0.1156 -0.3128
  131OSM   H18G14200   1.738   3.635   8.004 -0.2123  0.1122  1.6676
  131OSM   H18H14201   1.574   3.645   8.070  0.1738 -0.2614  1.4840
  132OSM      N14202   2.986   4.925   6.112  0.0336 -0.2999 -0.1425
  132OSM    C1514203   2.904   5.046   6.143 -0.2698 -0.1528  0.5044
  132OSM   H15A14204   2.946   5.123   6.207 -0.6625 -0.7608  1.5152
  132OSM   H15B14205   2.811   5.023   6.191  0.1791 -2.3899  0.3908
  132OSM   H15C14206   2.874   5.078   6.045 -0.4462 -3.2322 -0.5387
  132OSM    C1414207   2.903   4.814   6.052 -0.5604 -0.2025  0.2962
  132OSM   H14A14208   2.948   4.716   6.060 -0.8587 -0.4025 -0.4295
  132OSM   H14B14209   2.883   4.848   5.951  0.4545  0.8138  0.4143
  132OSM   H14C14210   2.813   4.803   6.110 -0.8846 -0.5313 -0.2609
  132OSM    C1314211   3.094   4.967   6.020  0.2451 -0.0027  0.2425
  132OSM   H13A14212   3.160   4.882   6.005  0.7037  0.3215  0.4110
  132OSM   H13B14213   3.146   5.044   6.075 -0.8261  1.4653 -0.7161
  132OSM   H13C14214   3.060   4.996   5.922 -2.3774 -0.7849  0.8337
  132OSM    C1214215   3.030   4.868   6.245 -0.4625 -0.6589 -0.0333
  132OSM   H12A14216   3.087   4.778   6.226 -1.3310 -1.7082  1.9427
  132OSM   H12B14217   2.936   4.843   6.293 -2.3566  1.1499 -2.5746
  132OSM    C1114218   3.097   4.965   6.346  0.1608  0.1372 -0.1541
  132OSM   H11A14219   3.132   4.913   6.438  2.9842  0.7494 -0.7674
  132OSM   H11B14220   3.024   5.041   6.383  0.4957  0.3919 -0.0076
  132OSM      P14221   3.355   4.991   6.276 -0.0293 -0.4076  0.2657
  132OSM    O1314222   3.376   4.919   6.149  0.1982 -0.1741  0.6118
  132OSM    O1414223   3.454   5.096   6.304  0.6029  0.0003 -0.1862
  132OSM    O1114224   3.363   4.888   6.393 -0.4778 -0.3282 -0.0403
  132OSM    O1214225   3.207   5.044   6.283  0.7785 -0.0304  0.0843
  132OSM    C1S14226   3.406   4.927   6.523  0.6728  0.5630 -0.2131
  132OSM    H1S14227   3.322   4.983   6.567 -1.2128 -2.3434  0.1775
  132OSM    H1T14228   3.510   4.968   6.528  0.6393  0.7018 -0.6011
  132OSM     NF14229   3.434   4.870   6.756  0.0625 -0.5568  0.1415
  132OSM    HNF14230   3.528   4.864   6.789  0.9274 -1.2785 -2.2974
  132OSM    C2S14231   3.415   4.814   6.635  0.1655 -0.6072  0.0435
  132OSM    H2S14232   3.315   4.764   6.634  0.2550 -0.8376 -1.9396
  132OSM    C3S14233   3.519   4.704   6.602  0.4691 -0.0686  0.2477
  132OSM    H3S14234   3.619   4.750   6.617  0.1366  1.5575 -1.9661
  132OSM     O314235   3.514   4.654   6.467  0.0589 -0.4729 -0.6550
  132OSM    HO314236   3.451   4.711   6.422  1.4562  1.9574  0.2520
  132OSM    C4S14237   3.513   4.596   6.697  0.4897 -0.4969 -0.3470
  132OSM    H4S14238   3.564   4.627   6.789  0.4342  0.3312 -0.5889
  132OSM    C5S14239   3.454   4.476   6.698 -0.6656 -0.2273  0.1512
  132OSM    H5S14240   3.394   4.455   6.608  1.5473  1.1503 -1.7563
  132OSM    C6S14241   3.453   4.382   6.808  0.3797  0.4166 -0.2179
  132OSM    H6S14242   3.543   4.408   6.869  0.1975  0.3038  0.1029
  132OSM    H6T14243   3.468   4.277   6.776  2.1869  0.5549  0.0701
  132OSM    C7S14244   3.336   4.404   6.915 -0.4661 -0.3008  0.3846
  132OSM    H7S14245   3.238   4.404   6.861 -0.7196 -0.1852  0.8451
  132OSM    H7T14246   3.347   4.506   6.957  1.3043  0.5523 -1.9325
  132OSM    C8S14247   3.339   4.290   7.025  0.4722 -0.3726  0.0523
  132OSM    H8S14248   3.440   4.266   7.065  0.8348 -1.6983 -1.5398
  132OSM    H8T14249   3.311   4.197   6.972 -1.9613  2.0817 -3.4609
  132OSM    C9S14250   3.237   4.321   7.134 -0.3138  0.0814  0.0093
  132OSM    H9S14251   3.132   4.333   7.099 -0.0111  1.7749 -0.4113
  132OSM    H9T14252   3.271   4.418   7.176 -1.9190 -0.5019  2.9624
  132OSM   C10S14253   3.250   4.220   7.248 -1.0700 -0.0952 -0.8236
  132OSM   H10S14254   3.357   4.232   7.273 -0.5370 -2.0791 -1.9459
  132OSM   H10T14255   3.234   4.119   7.206  0.0462 -0.8320  0.4578
  132OSM   C11S14256   3.184   4.246   7.383 -0.0184  0.4838 -0.1899
  132OSM   H11S14257   3.079   4.213   7.365  0.7100 -3.1856  1.4128
  132OSM   H11T14258   3.181   4.355   7.402 -0.9189  0.6316 -1.0891
  132OSM   C12S14259   3.248   4.160   7.493 -0.1808 -0.4786 -0.8518
  132OSM   H12S14260   3.354   4.192   7.500 -0.5551  0.5061  0.8175
  132OSM   H12T14261   3.250   4.053   7.465  0.7697 -0.2654 -1.6740
  132OSM   C13S14262   3.177   4.182   7.631 -0.3912 -0.5665 -0.0955
  132OSM   H13S14263   3.159   4.291   7.649 -1.2565 -0.4870 -1.2924
  132OSM   H13T14264   3.252   4.145   7.704  0.5888 -0.5818 -1.0943
  132OSM   C14S14265   3.049   4.108   7.652  1.0116  0.0070  1.1087
  132OSM   H14S14266   3.012   4.052   7.563  1.8899 -2.3330  2.1386
  132OSM   H14T14267   2.973   4.178   7.693  0.2475  0.7926 -1.4522
  132OSM   C15S14268   3.057   4.002   7.764  0.2418  1.1116 -0.2906
  132OSM   H15S14269   3.132   3.928   7.727  1.2781  1.1294  1.6326
  132OSM   H15T14270   2.964   3.940   7.758  1.5013 -1.3854  2.9284
  132OSM   C16S14271   3.080   4.048   7.912 -0.3276 -0.0407  0.8145
  132OSM   H16S14272   3.011   4.133   7.928  0.5215  0.8302 -0.0654
  132OSM   H16T14273   3.181   4.093   7.917 -1.2866  2.1298  2.4026
  132OSM   C17S14274   3.053   3.941   8.012  0.1387 -0.2001  0.2170
  132OSM   H17S14275   3.130   3.862   7.996 -0.4062 -0.0826 -4.7485
  132OSM   H17T14276   2.955   3.889   8.011  0.1363 -0.1908 -0.1974
  132OSM   C18S14277   3.067   3.999   8.155  0.1674  0.6343 -0.4201
  132OSM   H18S14278   3.035   3.920   8.226 -0.4745  2.2797  1.1910
  132OSM   H18T14279   2.994   4.081   8.166  1.8548  2.0869  0.5369
  132OSM   H18U14280   3.160   4.041   8.199  0.5931 -1.5116  0.8968
  132OSM    C1F14281   3.335   4.927   6.830  0.4279 -0.2712  0.1820
  132OSM     OF14282   3.223   4.919   6.796  0.5812 -0.7102 -0.2642
  132OSM    C2F14283   3.387   4.987   6.956  0.0936  0.5249 -0.2440
  132OSM    H2F14284   3.441   5.082   6.935 -0.0810  0.3369 -1.5951
  132OSM    H2G14285   3.453   4.912   7.006  0.3353  0.6063 -0.4408
  132OSM    C3F14286   3.274   5.005   7.064  0.3591  0.7000  0.3576
  132OSM    H3F14287   3.214   4.912   7.052  2.5320 -0.5754 -1.5934
  132OSM    H3G14288   3.214   5.092   7.032 -1.2586 -0.9739 -1.4820
  132OSM    C4F14289   3.323   5.024   7.205  0.1841  0.1450  0.2355
  132OSM    H4F14290   3.395   5.109   7.203 -0.3571  0.6431  1.1854
  132OSM    H4G14291   3.383   4.935   7.235  3.0443  2.0216  0.4816
  132OSM    C5F14292   3.222   5.067   7.313 -0.5122 -0.2775  0.4814
  132OSM    H5F14293   3.144   4.988   7.316  1.2829 -2.1082  1.8440
  132OSM    H5G14294   3.165   5.155   7.276  0.6447  0.3866  0.2146
  132OSM    C6F14295   3.276   5.065   7.457 -0.0999 -0.0590  0.0862
  132OSM    H6F14296   3.387   5.076   7.457  0.0108 -0.7416 -2.1072
  132OSM    H6G14297   3.256   4.967   7.506  0.9974  0.3200  1.3560
  132OSM    C7F14298   3.218   5.158   7.559  0.6222  0.3213  0.5033
  132OSM    H7F14299   3.108   5.155   7.548  0.8310 -0.2416 -1.9926
  132OSM    H7G14300   3.248   5.259   7.523 -0.1345  0.5149  0.4098
  132OSM    C8F14301   3.276   5.154   7.705  0.0966 -0.2148 -0.1508
  132OSM    H8F14302   3.387   5.169   7.699  0.7230 -3.5264  1.3153
  132OSM    H8G14303   3.255   5.052   7.742 -1.1757  0.3589  0.7938
  132OSM    C9F14304   3.206   5.252   7.796  0.1311  0.1950 -0.3316
  132OSM    H9F14305   3.188   5.351   7.753  0.1969  0.0906 -0.5984
  132OSM   C10F14306   3.175   5.232   7.921 -0.4572  0.7055 -0.3682
  132OSM   H10F14307   3.126   5.316   7.973  0.2650  0.9756 -0.1093
  132OSM   C11F14308   3.206   5.106   7.999 -0.2201  0.1615  0.9612
  132OSM   H11F14309   3.300   5.059   7.962 -0.5086 -0.1092  0.5778
  132OSM   H11G14310   3.123   5.040   7.969 -0.2390  1.1394 -1.3751
  132OSM   C12F14311   3.206   5.139   8.150  0.1893  0.5619 -0.3941
  132OSM   H12F14312   3.188   5.037   8.191 -2.6070  1.3968  0.6666
  132OSM   H12G14313   3.113   5.195   8.176 -0.2584 -1.1372  1.9596
  132OSM   C13F14314   3.334   5.187   8.211 -0.1686  0.2963 -0.3405
  132OSM   H13F14315   3.380   5.263   8.145  0.0089  0.4990  0.0117
  132OSM   H13G14316   3.408   5.104   8.215  0.5799  0.9983  2.3048
  132OSM   C14F14317   3.306   5.249   8.350  0.1107 -0.4622  0.7313
  132OSM   H14F14318   3.407   5.284   8.382 -0.0795 -0.4424  1.3069
  132OSM   H14G14319   3.266   5.178   8.425 -3.3995 -0.4722 -0.9845
  132OSM   C15F14320   3.214   5.367   8.337  0.6956 -0.6343 -1.0264
  132OSM   H15F14321   3.107   5.337   8.346  0.5384 -0.1820 -1.3245
  132OSM   H15G14322   3.224   5.416   8.238  2.5855  1.7742  0.2583
  132OSM   C16F14323   3.236   5.479   8.441 -0.0207 -0.0339  0.1436
  132OSM   H16F14324   3.330   5.524   8.404 -1.5104  2.0544 -1.2951
  132OSM   H16G14325   3.256   5.447   8.546  0.5325  1.7436  0.6325
  132OSM   C17F14326   3.129   5.583   8.446  0.6119  0.8152 -0.5372
  132OSM   H17F14327   3.078   5.600   8.349  0.0780  0.7632 -0.2676
  132OSM   H17G14328   3.165   5.685   8.470  3.1273 -0.2213  0.4802
  132OSM   C18F14329   3.019   5.554   8.546  0.2298 -0.3488 -0.3275
  132OSM   H18F14330   3.060   5.546   8.649 -2.4656 -3.3089  0.7244
  132OSM   H18G14331   2.980   5.452   8.525  0.3704 -0.0334 -2.3058
  132OSM   H18H14332   2.931   5.622   8.540 -0.7154 -1.5304 -0.2971
  133OSM      N14333   3.444   4.181   6.257 -0.2016  0.6688  0.7009
  133OSM    C1514334   3.575   4.137   6.200 -0.9800  0.0501 -0.2888
  133OSM   H15A14335   3.600   4.036   6.228  0.9159  0.2978 -0.9117
  133OSM   H15B14336   3.656   4.202   6.229 -0.1108 -0.2514 -1.9206
  133OSM   H15C14337   3.578   4.152   6.093 -1.4789  2.3342 -0.0337
  133OSM    C1414338   3.331   4.107   6.192 -0.2992 -0.7892 -0.2019
  133OSM   H14A14339   3.237   4.146   6.230  0.1982 -0.1217  0.3633
  133OSM   H14B14340   3.333   4.000   6.205  1.2775 -0.7136  0.2895
  133OSM   H14C14341   3.334   4.125   6.085 -0.8263  0.4841 -0.0190
  133OSM    C1314342   3.444   4.142   6.400  0.6700 -0.1105  0.2316
  133OSM   H13A14343   3.450   4.034   6.394  1.4987 -0.0513 -0.1809
  133OSM   H13B14344   3.347   4.171   6.436 -0.1663 -0.8575 -1.2965
  133OSM   H13C14345   3.528   4.192   6.445 -0.9743  0.2529  3.1035
  133OSM    C1214346   3.440   4.333   6.243  0.2273  0.3246  0.3331
  133OSM   H12A14347   3.447   4.361   6.139  2.9251 -1.3713 -0.0523
  133OSM   H12B14348   3.522   4.379   6.297  0.9597  0.6157 -0.9796
  133OSM    C1114349   3.305   4.394   6.295 -0.4448 -0.3399 -0.0397
  133OSM   H11A14350   3.332   4.502   6.301 -1.2319 -0.1449  0.0483
  133OSM   H11B14351   3.286   4.355   6.397  2.5647  0.0665  0.7999
  133OSM      P14352   3.070   4.451   6.176  0.0375 -0.3478 -0.2014
  133OSM    O1314353   3.093   4.587   6.119 -0.0495  0.2662 -0.5627
  133OSM    O1414354   2.972   4.370   6.097 -0.5346  0.2850 -0.0164
  133OSM    O1114355   3.015   4.462   6.329 -1.3379 -0.6228 -0.4164
  133OSM    O1214356   3.208   4.385   6.195 -0.3086  0.0174 -0.1175
  133OSM    C1S14357   2.981   4.352   6.414  0.5507 -1.3738  1.2106
  133OSM    H1S14358   3.049   4.267   6.392  1.3387 -0.2373 -1.0917
  133OSM    H1T14359   2.874   4.329   6.398  0.6380 -2.1111  1.6367
  133OSM     NF14360   3.015   4.285   6.651 -0.2687  0.0166  0.3699
  133OSM    HNF14361   2.965   4.283   6.737  2.7474  0.7304  2.2870
  133OSM    C2S14362   3.013   4.397   6.561  0.6059  0.0816  0.2981
  133OSM    H2S14363   3.117   4.436   6.557  1.4037 -2.0132 -3.3859
  133OSM    C3S14364   2.919   4.515   6.611  0.7400  0.0482  1.0339
  133OSM    H3S14365   2.815   4.475   6.609  0.7801 -0.2248  2.8813
  133OSM     O314366   2.922   4.631   6.524 -0.1546  0.1642 -0.4056
  133OSM    HO314367   2.961   4.591   6.446 -0.9871  0.7832 -1.1696
  133OSM    C4S14368   2.940   4.560   6.752  0.7876 -0.4545  0.0748
  133OSM    H4S14369   2.903   4.484   6.822 -2.3815  2.2317  1.5816
  133OSM    C5S14370   2.984   4.677   6.806 -0.7474 -0.4792  0.5254
  133OSM    H5S14371   2.998   4.762   6.739  0.3393 -1.3064 -0.3165
  133OSM    C6S14372   2.993   4.711   6.957 -0.3391  0.4473  0.4990
  133OSM    H6S14373   2.915   4.788   6.972 -1.5170 -0.1114 -2.1720
  133OSM    H6T14374   3.093   4.759   6.963  1.6858 -3.4309  0.9884
  133OSM    C7S14375   3.003   4.595   7.045 -0.2566  0.0203 -0.2098
  133OSM    H7S14376   3.059   4.513   6.995  0.3212 -0.1510  0.7000
  133OSM    H7T14377   2.902   4.553   7.063 -0.4265 -0.7298 -2.5668
  133OSM    C8S14378   3.059   4.636   7.183 -0.1356  0.1239  0.1532
  133OSM    H8S14379   3.166   4.667   7.172 -0.4602  0.9873 -0.7258
  133OSM    H8T14380   3.047   4.547   7.247 -1.0222  0.7240  0.8425
  133OSM    C9S14381   2.985   4.754   7.243 -0.0637 -0.0192 -0.5636
  133OSM    H9S14382   2.876   4.742   7.232 -0.3120 -1.6932  2.6209
  133OSM    H9T14383   3.014   4.842   7.180  0.7625 -1.4423 -2.2693
  133OSM   C10S14384   3.019   4.760   7.387  0.6397  0.3514 -0.2895
  133OSM   H10S14385   2.987   4.856   7.434  0.4748 -0.0642  0.4804
  133OSM   H10T14386   3.130   4.760   7.394  0.6241 -0.0708 -0.0392
  133OSM   C11S14387   2.957   4.649   7.472  0.4804 -0.0347 -0.3789
  133OSM   H11S14388   3.038   4.573   7.480  0.0383 -0.6510 -1.5514
  133OSM   H11T14389   2.871   4.606   7.416 -0.6630 -0.2505  1.4415
  133OSM   C12S14390   2.921   4.684   7.614  0.7692  0.2295  0.2115
  133OSM   H12S14391   2.847   4.610   7.652  1.1403 -0.6769 -0.7859
  133OSM   H12T14392   2.880   4.787   7.618 -1.3053 -0.5014 -0.8967
  133OSM   C13S14393   3.042   4.663   7.707  0.3170  0.0152 -0.0904
  133OSM   H13S14394   3.136   4.715   7.681 -0.2761  1.8181  1.1579
  133OSM   H13T14395   3.072   4.556   7.718  3.0204  0.7148 -0.0060
  133OSM   C14S14396   3.015   4.722   7.855  0.7695  0.0022  0.0259
  133OSM   H14S14397   2.910   4.688   7.864  0.0964  1.4024 -1.9185
  133OSM   H14T14398   3.026   4.832   7.852 -0.7410  0.1474 -1.6047
  133OSM   C15S14399   3.110   4.666   7.958  0.0272 -0.0739  0.0133
  133OSM   H15S14400   3.216   4.667   7.924  0.1225 -1.2087  0.2386
  133OSM   H15T14401   3.068   4.567   7.986 -1.1821  0.6014  0.7020
  133OSM   C16S14402   3.117   4.747   8.092  0.0939  0.3621 -0.2818
  133OSM   H16S14403   3.014   4.767   8.129 -0.2252  1.3874 -1.6277
  133OSM   H16T14404   3.154   4.849   8.068 -1.9988  0.6645 -2.6499
  133OSM   C17S14405   3.219   4.683   8.191 -0.3426 -0.2637  0.9279
  133OSM   H17S14406   3.310   4.652   8.135 -2.1057 -4.7602  0.0746
  133OSM   H17T14407   3.181   4.582   8.218 -1.0311 -0.5431 -0.9795
  133OSM   C18S14408   3.230   4.754   8.328  0.0092  0.3692 -0.2522
  133OSM   H18S14409   3.298   4.706   8.402 -0.5873  1.6543  1.1796
  133OSM   H18T14410   3.129   4.755   8.375 -0.1233  2.6646 -0.4860
  133OSM   H18U14411   3.274   4.856   8.326  1.7571 -0.2048  2.5611
  133OSM    C1F14412   3.113   4.199   6.644 -0.5013  0.6031  1.1572
  133OSM     OF14413   3.193   4.199   6.550 -0.4668 -0.2673 -0.4027
  133OSM    C2F14414   3.135   4.103   6.749 -0.2647  0.4188 -0.6534
  133OSM    H2F14415   3.069   4.134   6.833  0.5155  0.6440 -0.1211
  133OSM    H2G14416   3.243   4.104   6.775 -0.3310 -1.6667 -0.0880
  133OSM    C3F14417   3.114   3.954   6.694  0.1203  0.3469  0.0526
  133OSM    H3F14418   3.195   3.937   6.621  1.0985  2.7749  0.4849
  133OSM    H3G14419   3.008   3.937   6.664 -0.2244 -1.3334  1.9980
  133OSM    C4F14420   3.142   3.859   6.808 -0.5518  0.0892 -0.0448
  133OSM    H4F14421   3.239   3.892   6.851 -0.4588 -1.2734  0.8460
  133OSM    H4G14422   3.162   3.752   6.785 -0.5949  0.2751 -0.9852
  133OSM    C5F14423   3.042   3.868   6.925  0.3033  0.7527 -0.5522
  133OSM    H5F14424   2.938   3.846   6.894 -0.0695 -0.7962  1.5172
  133OSM    H5G14425   3.037   3.974   6.958 -1.1022  0.7835 -0.7995
  133OSM    C6F14426   3.088   3.779   7.039 -0.7921 -0.0125 -0.8645
  133OSM    H6F14427   3.179   3.814   7.091 -1.7429  0.8736  0.2533
  133OSM    H6G14428   3.118   3.675   7.013  0.7214 -0.4752  2.3247
  133OSM    C7F14429   2.975   3.776   7.145  0.0032  0.3161 -0.5764
  133OSM    H7F14430   2.897   3.701   7.119 -1.0176  0.5635  1.5491
  133OSM    H7G14431   2.930   3.877   7.138  0.8265  0.7328 -0.0259
  133OSM    C8F14432   3.025   3.761   7.292 -0.3646 -0.3465  0.3237
  133OSM    H8F14433   2.946   3.811   7.353 -1.2340  0.6579 -1.5448
  133OSM    H8G14434   3.116   3.825   7.296 -0.2434 -0.5020  0.0293
  133OSM    C9F14435   3.059   3.613   7.321 -0.6259 -0.7879 -0.2387
  133OSM    H9F14436   3.108   3.562   7.237 -0.8850 -0.3732 -0.6443
  133OSM   C10F14437   3.048   3.545   7.440 -0.3311 -0.4908  1.1348
  133OSM   H10F14438   3.070   3.437   7.444  1.6349 -0.0823  2.8346
  133OSM   C11F14439   2.992   3.601   7.567 -0.3874  0.0988 -0.3484
  133OSM   H11F14440   2.925   3.520   7.604 -1.6599  0.6149 -1.4389
  133OSM   H11G14441   2.935   3.696   7.556  1.4145  1.3932  0.8352
  133OSM   C12F14442   3.096   3.614   7.683  0.8303  0.4313 -0.5835
  133OSM   H12F14443   3.183   3.681   7.661  1.2348  0.3369  0.6376
  133OSM   H12G14444   3.148   3.516   7.684 -0.8074 -0.4636 -0.9469
  133OSM   C13F14445   3.028   3.641   7.812 -0.6093 -0.6517 -0.1158
  133OSM   H13F14446   2.935   3.698   7.790  0.1636  0.8478  0.3704
  133OSM   H13G14447   3.102   3.701   7.869  2.0417 -2.8643 -1.0136
  133OSM   C14F14448   2.979   3.519   7.878  0.1229 -0.9498  0.0793
  133OSM   H14F14449   3.061   3.450   7.910 -0.7253 -2.3940 -0.7227
  133OSM   H14G14450   2.928   3.458   7.800  0.5814 -0.9899 -0.1903
  133OSM   C15F14451   2.894   3.540   8.001  0.4528  0.6550 -0.1034
  133OSM   H15F14452   2.843   3.443   8.015  0.9977  0.4757  0.7250
  133OSM   H15G14453   2.819   3.614   7.967  1.1030  0.1692 -2.8710
  133OSM   C16F14454   2.966   3.580   8.132 -0.1439  0.2946  0.3031
  133OSM   H16F14455   2.998   3.686   8.119 -2.1265  0.9277  0.2587
  133OSM   H16G14456   3.050   3.520   8.171 -0.4068 -0.8968 -0.9047
  133OSM   C17F14457   2.874   3.606   8.258  0.4041 -0.2111 -0.0878
  133OSM   H17F14458   2.818   3.701   8.242  0.9367 -0.1771 -1.8785
  133OSM   H17G14459   2.936   3.627   8.347  0.2894  1.4997 -0.3670
  133OSM   C18F14460   2.757   3.499   8.281 -0.3240 -0.1545  0.3991
  133OSM   H18F14461   2.685   3.497   8.197 -1.5968 -0.1450  1.4493
  133OSM   H18G14462   2.694   3.527   8.369  0.5799  0.2232  0.9500
  133OSM   H18H14463   2.807   3.400   8.286 -0.4679 -0.3367 -1.2306
  134OSM      N14464   4.871   2.189   6.540 -0.1985  1.0806  0.1305
  134OSM    C1514465   4.856   2.252   6.405  0.2833 -0.2641  0.0312
  134OSM   H15A14466   4.946   2.245   6.345  0.3873 -2.4293  0.3640
  134OSM   H15B14467   4.831   2.357   6.416  0.9354  0.0869 -1.5045
  134OSM   H15C14468   4.785   2.204   6.339  1.6073 -1.0589 -0.8626
  134OSM    C1414469   4.909   2.047   6.529 -0.0596 -0.4107 -0.7671
  134OSM   H14A14470   4.965   2.014   6.615 -1.8734 -0.5149  0.4237
  134OSM   H14B14471   4.988   2.032   6.458  1.8043  0.8493  0.9261
  134OSM   H14C14472   4.827   1.981   6.501 -1.6763  1.6483 -1.1435
  134OSM    C1314473   4.978   2.266   6.610 -0.3061  1.0403  0.7727
  134OSM   H13A14474   4.955   2.371   6.621 -1.2725  0.7006  2.3429
  134OSM   H13B14475   5.075   2.239   6.572 -0.8860 -2.6916  1.5590
  134OSM   H13C14476   5.002   2.227   6.708 -0.4556 -1.5734 -0.1663
  134OSM    C1214477   4.741   2.206   6.609  0.5431  0.4185 -0.5266
  134OSM   H12A14478   4.739   2.308   6.644 -0.2204  0.7978 -1.5916
  134OSM   H12B14479   4.739   2.145   6.698 -0.1977  2.2425  0.7656
  134OSM    C1114480   4.603   2.200   6.537 -0.5254 -0.0297  0.9688
  134OSM   H11A14481   4.605   2.267   6.449 -5.5902 -0.6602  0.0317
  134OSM   H11B14482   4.519   2.227   6.605 -0.8366  0.8894  0.2352
  134OSM      P14483   4.427   2.035   6.451  0.0282  0.1422 -0.1462
  134OSM    O1314484   4.363   2.157   6.389  0.8911 -0.1124  0.2871
  134OSM    O1414485   4.422   1.907   6.381 -0.1522 -0.2201 -1.2138
  134OSM    O1114486   4.377   2.019   6.604  0.2771  0.4811  0.0279
  134OSM    O1214487   4.582   2.068   6.484  0.4496 -0.1848 -0.2334
  134OSM    C1S14488   4.443   1.930   6.686  0.0347 -0.1506  0.6873
  134OSM    H1S14489   4.549   1.963   6.678 -0.2290  0.7002  0.5754
  134OSM    H1T14490   4.423   1.823   6.665 -1.6161  0.1769  0.4642
  134OSM     NF14491   4.497   1.881   6.919 -0.1065  0.5766  0.3170
  134OSM    HNF14492   4.483   1.793   6.964  1.8014 -0.0755 -0.2617
  134OSM    C2S14493   4.403   1.946   6.833 -0.1681 -0.0846  0.5413
  134OSM    H2S14494   4.400   2.055   6.851 -0.8795  0.0163 -0.1670
  134OSM    C3S14495   4.254   1.900   6.850 -0.3419  0.5568 -0.3274
  134OSM    H3S14496   4.238   1.799   6.807  3.6429  0.0861 -1.1383
  134OSM     O314497   4.158   1.975   6.780 -0.2573 -0.0707  0.4679
  134OSM    HO314498   4.205   2.023   6.711 -0.3583 -0.9247 -0.2007
  134OSM    C4S14499   4.224   1.905   6.995 -0.0549 -0.1427  0.2993
  134OSM    H4S14500   4.220   1.811   7.052  3.7470 -1.0576 -0.6414
  134OSM    C5S14501   4.180   2.020   7.056 -0.0495  0.2278  0.8630
  134OSM    H5S14502   4.160   2.111   6.999 -3.0178 -0.2161  1.0281
  134OSM    C6S14503   4.143   2.027   7.194  0.2752 -0.4103  0.4949
  134OSM    H6S14504   4.037   2.061   7.205  1.1682  1.8339  4.0686
  134OSM    H6T14505   4.205   2.104   7.246 -0.1718 -0.6683  1.4428
  134OSM    C7S14506   4.165   1.910   7.287  0.8404 -0.3314  0.2323
  134OSM    H7S14507   4.275   1.891   7.285  1.0932  0.9783  0.6715
  134OSM    H7T14508   4.109   1.824   7.245 -1.2292  1.9692 -2.0173
  134OSM    C8S14509   4.131   1.933   7.441  0.0117 -0.5631  0.2121
  134OSM    H8S14510   4.022   1.935   7.465  0.0983 -0.9378  0.6229
  134OSM    H8T14511   4.157   2.039   7.463 -1.0091 -0.1353 -0.5238
  134OSM    C9S14512   4.188   1.834   7.535  0.0273  0.0752 -0.0670
  134OSM    H9S14513   4.298   1.838   7.519 -0.3211 -0.5967 -3.6378
  134OSM    H9T14514   4.153   1.732   7.506 -1.5596  0.3795  0.6531
  134OSM   C10S14515   4.146   1.850   7.678  0.6764 -0.3517 -0.5486
  134OSM   H10S14516   4.049   1.798   7.694  0.7314 -0.7954 -1.5966
  134OSM   H10T14517   4.122   1.957   7.698 -1.2759 -0.8206 -0.2512
  134OSM   C11S14518   4.250   1.797   7.776  0.1440  0.5111  0.0676
  134OSM   H11S14519   4.345   1.851   7.756  0.6659 -0.7367 -0.9997
  134OSM   H11T14520   4.265   1.694   7.737 -0.1887  0.9097 -1.1728
  134OSM   C12S14521   4.215   1.783   7.919  0.5282 -0.8099 -0.1192
  134OSM   H12S14522   4.183   1.877   7.968 -0.6311 -1.7931  1.0838
  134OSM   H12T14523   4.310   1.759   7.974  0.0107  2.3003  2.4310
  134OSM   C13S14524   4.107   1.680   7.959 -0.3371 -0.3343  0.9235
  134OSM   H13S14525   4.153   1.580   7.954  0.0960 -0.1767  1.6132
  134OSM   H13T14526   4.018   1.674   7.892  1.6763 -1.5320 -1.8186
  134OSM   C14S14527   4.053   1.700   8.102 -0.1012 -0.6955  0.4428
  134OSM   H14S14528   3.973   1.627   8.128 -0.4729 -0.5486 -0.2711
  134OSM   H14T14529   4.002   1.797   8.088  2.8046  0.9375  0.3391
  134OSM   C15S14530   4.157   1.700   8.213 -0.4412 -0.4630 -0.1365
  134OSM   H15S14531   4.224   1.788   8.222 -0.8543 -0.3317  2.7711
  134OSM   H15T14532   4.223   1.611   8.203  0.0913  0.1327 -2.6889
  134OSM   C16S14533   4.088   1.687   8.353  0.5374 -0.4717 -0.8638
  134OSM   H16S14534   4.013   1.605   8.349  0.1506 -0.1672 -0.0547
  134OSM   H16T14535   4.038   1.786   8.364  1.9408  0.1000  0.9060
  134OSM   C17S14536   4.172   1.667   8.482 -0.3620 -0.0552  0.2875
  134OSM   H17S14537   4.241   1.754   8.484  1.1741 -1.2527  0.8736
  134OSM   H17T14538   4.239   1.579   8.478 -1.4070 -0.8811  0.2386
  134OSM   C18S14539   4.087   1.655   8.609  0.6211 -0.8394  0.4123
  134OSM   H18S14540   4.006   1.580   8.596  0.1865 -0.3568  0.3319
  134OSM   H18T14541   4.047   1.751   8.649  0.3030 -0.2550 -1.2510
  134OSM   H18U14542   4.156   1.609   8.683 -0.5059  1.0465  2.7653
  134OSM    C1F14543   4.618   1.920   6.927 -0.0877 -0.4889  0.5570
  134OSM     OF14544   4.664   2.014   6.869 -0.5259  0.0450  0.4716
  134OSM    C2F14545   4.712   1.838   7.009  0.0772  0.1085 -0.4141
  134OSM    H2F14546   4.812   1.852   6.964 -0.7156 -0.1235 -2.3404
  134OSM    H2G14547   4.674   1.734   7.016 -1.4705  0.7339  1.5463
  134OSM    C3F14548   4.709   1.897   7.152  0.3427  0.1839  0.2024
  134OSM    H3F14549   4.609   1.892   7.200 -0.1420 -0.0729 -0.8091
  134OSM    H3G14550   4.746   2.001   7.143  0.5904  0.0315 -0.5999
  134OSM    C4F14551   4.812   1.830   7.248 -0.1399 -0.0842  0.8259
  134OSM    H4F14552   4.916   1.832   7.209  0.5451  1.8282  2.5783
  134OSM    H4G14553   4.783   1.725   7.272  0.4285 -0.8794 -1.6454
  134OSM    C5F14554   4.813   1.912   7.374  0.1334  0.3443  0.0782
  134OSM    H5F14555   4.709   1.949   7.390 -1.2382 -1.3009 -3.7404
  134OSM    H5G14556   4.868   2.006   7.353 -0.7627  0.6585 -0.9302
  134OSM    C6F14557   4.880   1.852   7.501 -0.4814 -0.1891 -0.0454
  134OSM    H6F14558   4.960   1.786   7.461 -1.2186  0.7130 -3.2925
  134OSM    H6G14559   4.807   1.777   7.540 -1.5563  0.6710 -0.3528
  134OSM    C7F14560   4.947   1.957   7.593  0.1077  0.0653 -0.3635
  134OSM    H7F14561   4.871   2.017   7.648 -0.9716  0.2207 -1.9619
  134OSM    H7G14562   5.002   2.028   7.528  0.9463  0.6604  0.9526
  134OSM    C8F14563   5.038   1.891   7.693 -0.4827 -0.3891  0.0323
  134OSM    H8F14564   5.107   1.830   7.631 -1.0280 -1.5711  0.5312
  134OSM    H8G14565   4.973   1.813   7.739  1.9048 -1.7404  1.3274
  134OSM    C9F14566   5.108   1.990   7.781 -0.2066 -0.3235 -0.4128
  134OSM    H9F14567   5.178   2.060   7.733  0.8431  1.8947  3.8791
  134OSM   C10F14568   5.109   1.983   7.916  0.1187  0.3371  0.7121
  134OSM   H10F14569   5.150   2.065   7.978 -0.4661  1.7443 -0.6981
  134OSM   C11F14570   5.037   1.880   8.007  0.2161 -0.0949  0.0706
  134OSM   H11F14571   4.987   1.804   7.942 -3.0728  0.8251  1.3383
  134OSM   H11G14572   4.951   1.930   8.057  1.2944  2.6212 -0.6421
  134OSM   C12F14573   5.118   1.799   8.112 -0.5199  0.1274 -0.2546
  134OSM   H12F14574   5.050   1.724   8.157 -1.5439  1.3323  0.2610
  134OSM   H12G14575   5.162   1.862   8.191  1.7068 -1.9115  0.2528
  134OSM   C13F14576   5.229   1.717   8.053  0.2294  0.1343  0.7977
  134OSM   H13F14577   5.307   1.787   8.018  0.3291 -1.7491 -3.3352
  134OSM   H13G14578   5.192   1.675   7.957 -0.1704  0.3156  0.8678
  134OSM   C14F14579   5.273   1.592   8.130  0.7440 -0.9173  0.0691
  134OSM   H14F14580   5.335   1.527   8.064  1.1742 -0.0534 -0.3927
  134OSM   H14G14581   5.184   1.531   8.157  0.8222 -0.7712  0.6561
  134OSM   C15F14582   5.365   1.620   8.249 -0.2196 -0.8392  0.4681
  134OSM   H15F14583   5.321   1.670   8.338  1.6565 -0.4243  1.2226
  134OSM   H15G14584   5.444   1.693   8.218  1.2952 -2.2987  0.7612
  134OSM   C16F14585   5.427   1.490   8.305  0.1347 -0.2603 -0.5732
  134OSM   H16F14586   5.491   1.448   8.225 -0.4233  0.3863 -1.3763
  134OSM   H16G14587   5.342   1.419   8.318  0.2810 -0.4846 -0.8250
  134OSM   C17F14588   5.509   1.512   8.435 -0.0562  0.3617  0.5344
  134OSM   H17F14589   5.579   1.595   8.413  1.8053 -1.3734 -0.4806
  134OSM   H17G14590   5.577   1.423   8.434 -1.6505 -0.9044  0.7601
  134OSM   C18F14591   5.438   1.516   8.566  0.1979  0.6596 -0.4269
  134OSM   H18F14592   5.373   1.427   8.584  0.3921 -0.0860 -3.0401
  134OSM   H18G14593   5.368   1.602   8.576 -0.4123  0.0027  1.3543
  134OSM   H18H14594   5.513   1.528   8.648  1.7321 -2.0596 -1.3092
  135OSM      N14595   4.624   2.865   6.203  0.4580 -0.5191  0.8748
  135OSM    C1514596   4.668   3.012   6.204  0.5146  0.1911  0.5728
  135OSM   H15A14597   4.599   3.076   6.257  0.7606 -0.2479  1.4427
  135OSM   H15B14598   4.666   3.039   6.099 -0.6224 -0.2262  0.4787
  135OSM   H15C14599   4.771   3.025   6.236  0.8779  0.0646 -0.4972
  135OSM    C1414600   4.493   2.869   6.123  0.0016  0.1147 -0.6841
  135OSM   H14A14601   4.465   2.768   6.096 -0.0495  0.5306 -2.3018
  135OSM   H14B14602   4.511   2.926   6.033  0.3085 -2.3923 -2.3025
  135OSM   H14C14603   4.418   2.916   6.185  0.8457  0.2777  0.2430
  135OSM    C1314604   4.725   2.789   6.130 -1.0257 -0.2182  0.1822
  135OSM   H13A14605   4.743   2.841   6.036  0.4671 -1.8337 -0.4764
  135OSM   H13B14606   4.689   2.690   6.104 -3.7608  0.7323  0.0450
  135OSM   H13C14607   4.817   2.773   6.184 -2.2194 -2.2634  1.7471
  135OSM    C1214608   4.600   2.815   6.342 -0.2089  0.7552 -0.4207
  135OSM   H12A14609   4.503   2.846   6.380 -0.6123 -0.5391 -0.3367
  135OSM   H12B14610   4.674   2.854   6.409 -1.0365  1.9019 -0.1522
  135OSM    C1114611   4.594   2.662   6.368 -0.2446  0.5816 -0.5570
  135OSM   H11A14612   4.530   2.624   6.286 -0.9182 -0.8996  0.5882
  135OSM   H11B14613   4.528   2.631   6.452 -1.2982 -1.4882 -2.0601
  135OSM      P14614   4.830   2.628   6.485  0.0556  0.3342  0.2178
  135OSM    O1314615   4.948   2.547   6.456  0.1276  0.7681 -0.2128
  135OSM    O1414616   4.853   2.773   6.494  0.5957 -0.0360 -0.3616
  135OSM    O1114617   4.766   2.592   6.622  0.1336  0.7767 -0.5629
  135OSM    O1214618   4.727   2.599   6.367  0.4392 -0.1415 -0.2759
  135OSM    C1S14619   4.846   2.573   6.745 -0.5859  0.1884  0.9002
  135OSM    H1S14620   4.907   2.665   6.757  0.8441 -0.1806 -2.4119
  135OSM    H1T14621   4.913   2.486   6.724  1.3634  1.6843  0.6467
  135OSM     NF14622   4.859   2.492   6.972  0.9689 -0.6057 -0.2496
  135OSM    HNF14623   4.868   2.393   6.978 -2.5512 -0.9490  2.8620
  135OSM    C2S14624   4.762   2.543   6.872  0.4394  0.4318 -0.4294
  135OSM    H2S14625   4.725   2.640   6.909  1.4500  0.4438  0.6015
  135OSM    C3S14626   4.638   2.455   6.847 -0.2655 -0.7948 -0.1888
  135OSM    H3S14627   4.681   2.363   6.801 -0.2073 -1.1528  0.5514
  135OSM     O314628   4.550   2.515   6.755  0.2181 -0.2601  0.4890
  135OSM    HO314629   4.595   2.594   6.723 -3.8180  1.2513 -2.1526
  135OSM    C4S14630   4.578   2.415   6.974  0.7897  0.9866  0.3648
  135OSM    H4S14631   4.581   2.486   7.058  2.8184  0.7093  0.5891
  135OSM    C5S14632   4.521   2.289   6.985  0.7839 -0.3015 -0.1513
  135OSM    H5S14633   4.530   2.209   6.910  0.5499 -2.7930  2.3381
  135OSM    C6S14634   4.459   2.229   7.112 -0.0152  0.3247 -0.4683
  135OSM    H6S14635   4.440   2.121   7.093  1.7009 -0.2875  0.9208
  135OSM    H6T14636   4.366   2.283   7.140  0.2118 -0.3422  1.8522
  135OSM    C7S14637   4.542   2.236   7.243  0.5263 -0.0767  0.0531
  135OSM    H7S14638   4.564   2.340   7.275 -0.0623  0.4553 -1.1917
  135OSM    H7T14639   4.644   2.195   7.232 -0.2277 -2.0646  0.1119
  135OSM    C8S14640   4.472   2.164   7.359 -0.1819  0.9779  0.8260
  135OSM    H8S14641   4.476   2.056   7.331  0.4664  1.0437  0.6683
  135OSM    H8T14642   4.367   2.200   7.371  0.3371  2.5409  0.7924
  135OSM    C9S14643   4.554   2.169   7.486  0.1160  0.2949  0.3333
  135OSM    H9S14644   4.570   2.275   7.518  1.8065 -0.2284  1.3457
  135OSM    H9T14645   4.658   2.133   7.472  0.1103  0.2284  0.4631
  135OSM   C10S14646   4.486   2.094   7.604 -0.0077  0.0562 -0.1988
  135OSM   H10S14647   4.489   1.986   7.578  0.7241  0.5104 -2.2065
  135OSM   H10T14648   4.379   2.121   7.613 -0.4441 -1.3487 -0.8575
  135OSM   C11S14649   4.566   2.124   7.735  0.6053  0.0065 -0.8012
  135OSM   H11S14650   4.549   2.231   7.759  0.4766 -0.4531  1.3158
  135OSM   H11T14651   4.672   2.092   7.726  0.2390 -1.1297 -1.2628
  135OSM   C12S14652   4.505   2.038   7.845 -0.1141  0.5738 -0.5884
  135OSM   H12S14653   4.507   1.928   7.827  0.9126  0.4877  0.0246
  135OSM   H12T14654   4.398   2.069   7.848 -1.0309 -2.3400  0.4890
  135OSM   C13S14655   4.575   2.060   7.984  0.2808  0.3682 -0.1190
  135OSM   H13S14656   4.538   2.152   8.035 -1.6930  0.6975 -2.0070
  135OSM   H13T14657   4.685   2.053   7.972  0.2862  1.7170 -1.0903
  135OSM   C14S14658   4.545   1.948   8.085 -0.1393  0.5267 -0.3532
  135OSM   H14S14659   4.436   1.932   8.097 -0.4570  1.6500 -1.4879
  135OSM   H14T14660   4.594   1.967   8.183 -0.6780 -1.7955  0.4245
  135OSM   C15S14661   4.614   1.815   8.058 -0.1879 -0.2809 -0.8981
  135OSM   H15S14662   4.721   1.835   8.034 -0.4117 -0.4341 -2.0522
  135OSM   H15T14663   4.565   1.773   7.968  1.1612 -0.8414 -1.3951
  135OSM   C16S14664   4.594   1.699   8.165  0.6678  0.1087  0.0242
  135OSM   H16S14665   4.649   1.608   8.134  0.8837 -0.1477  1.1000
  135OSM   H16T14666   4.486   1.675   8.169  0.6133  0.0673 -1.4164
  135OSM   C17S14667   4.654   1.718   8.299 -0.0928  0.1310 -0.2161
  135OSM   H17S14668   4.603   1.800   8.355 -0.5801  1.1906 -2.1146
  135OSM   H17T14669   4.761   1.743   8.283 -0.6193  2.0757 -1.0349
  135OSM   C18S14670   4.657   1.597   8.388 -0.1842 -0.1159  0.6519
  135OSM   H18S14671   4.705   1.514   8.332  2.1046  1.4025  0.2075
  135OSM   H18T14672   4.559   1.575   8.434 -0.5626 -1.1030 -0.5942
  135OSM   H18U14673   4.730   1.601   8.472  0.4822  0.5589  0.0607
  135OSM    C1F14674   4.943   2.580   7.022 -0.2920  0.0185  0.2938
  135OSM     OF14675   4.928   2.698   7.009  0.1347 -0.1078 -0.1123
  135OSM    C2F14676   5.054   2.528   7.102 -0.2721 -0.9680 -0.5293
  135OSM    H2F14677   5.136   2.604   7.109  0.8226 -2.0115 -1.5912
  135OSM    H2G14678   5.091   2.436   7.052 -0.8793 -1.2267 -0.5043
  135OSM    C3F14679   5.017   2.505   7.245  0.0528  0.1651  0.0358
  135OSM    H3F14680   4.974   2.601   7.279 -1.4505 -0.8034  0.9568
  135OSM    H3G14681   5.108   2.475   7.301  0.0950 -1.8990 -1.0204
  135OSM    C4F14682   4.901   2.405   7.282  0.3026 -0.4914 -0.2389
  135OSM    H4F14683   4.898   2.334   7.196  1.3396  1.4850 -2.0331
  135OSM    H4G14684   4.803   2.452   7.259  0.5149 -0.4901 -1.2159
  135OSM    C5F14685   4.922   2.357   7.426 -0.2321 -0.4801  0.5389
  135OSM    H5F14686   5.015   2.297   7.425  2.1671  2.9238 -1.1905
  135OSM    H5G14687   4.837   2.290   7.447 -0.9833  0.8024  1.7898
  135OSM    C6F14688   4.927   2.467   7.530  0.1742  0.0207 -0.1600
  135OSM    H6F14689   4.835   2.529   7.529  0.8770  1.0892 -0.3292
  135OSM    H6G14690   5.014   2.535   7.523  0.9991 -0.9292  0.4538
  135OSM    C7F14691   4.939   2.394   7.661  0.3440  0.4519  0.2384
  135OSM    H7F14692   5.030   2.329   7.659 -0.4459 -0.7044 -2.3339
  135OSM    H7G14693   4.856   2.321   7.673 -1.1451  1.7559 -1.6492
  135OSM    C8F14694   4.939   2.485   7.780 -0.8159 -0.4268  0.4351
  135OSM    H8F14695   4.938   2.416   7.867  0.7986 -1.4525 -0.3256
  135OSM    H8G14696   4.844   2.543   7.779 -0.8380 -0.4626 -1.3151
  135OSM    C9F14697   5.063   2.575   7.784 -0.4500 -0.2278 -0.0480
  135OSM    H9F14698   5.055   2.668   7.725 -2.1161 -0.9079 -0.9858
  135OSM   C10F14699   5.184   2.546   7.843  0.6704 -0.2682  0.4193
  135OSM   H10F14700   5.256   2.630   7.837 -0.3230  0.7480  1.9741
  135OSM   C11F14701   5.220   2.423   7.920  0.3975 -0.3073 -0.7801
  135OSM   H11F14702   5.254   2.340   7.853 -1.7203 -3.3828  1.6803
  135OSM   H11G14703   5.128   2.381   7.965  0.7128 -1.0406 -0.7980
  135OSM   C12F14704   5.312   2.423   8.047 -0.7822  0.6712  0.5169
  135OSM   H12F14705   5.274   2.487   8.130  1.2382 -1.3546  3.2071
  135OSM   H12G14706   5.410   2.472   8.031 -1.0873  0.9041 -0.7199
  135OSM   C13F14707   5.346   2.278   8.094 -0.5593  0.2271  0.0316
  135OSM   H13F14708   5.389   2.227   8.005 -2.6824  2.0053 -2.1820
  135OSM   H13G14709   5.249   2.230   8.119 -0.0617 -0.1448  1.2758
  135OSM   C14F14710   5.437   2.270   8.217 -0.0705 -0.1239  0.9202
  135OSM   H14F14711   5.386   2.331   8.295 -1.9297 -1.4559  0.8173
  135OSM   H14G14712   5.531   2.327   8.203 -2.0600  2.8954 -1.2949
  135OSM   C15F14713   5.454   2.132   8.291  0.4641 -0.4813  0.2245
  135OSM   H15F14714   5.498   2.055   8.224  1.0230 -1.0036  1.1771
  135OSM   H15G14715   5.352   2.093   8.306  0.1729  0.4186  0.6853
  135OSM   C16F14716   5.529   2.140   8.430  0.1110  0.2074  0.3851
  135OSM   H16F14717   5.468   2.208   8.493  0.4803 -0.3921  1.4036
  135OSM   H16G14718   5.624   2.192   8.403  0.5804 -1.4664 -1.4102
  135OSM   C17F14719   5.550   1.999   8.487  0.4964 -0.1397 -0.2472
  135OSM   H17F14720   5.447   1.959   8.501  0.0527  1.8112  3.4365
  135OSM   H17G14721   5.606   2.011   8.583  1.2363  0.1220 -0.7062
  135OSM   C18F14722   5.634   1.907   8.400 -0.1232 -0.6593  0.2039
  135OSM   H18F14723   5.665   1.814   8.452  1.8034 -1.1658 -1.6668
  135OSM   H18G14724   5.717   1.972   8.362 -1.8841  1.4308 -0.2961
  135OSM   H18H14725   5.576   1.871   8.313 -0.4965 -2.1389  1.0452
  136OSM      N14726   1.686   1.859   5.932  0.1815 -0.3788 -0.0293
  136OSM    C1514727   1.591   1.754   5.877  0.3136 -0.8647  0.4260
  136OSM   H15A14728   1.641   1.666   5.841 -0.8770 -1.3608 -0.0902
  136OSM   H15B14729   1.532   1.792   5.794  1.9012  0.0891 -0.3129
  136OSM   H15C14730   1.519   1.714   5.947 -1.4343 -0.2779 -0.9376
  136OSM    C1414731   1.798   1.871   5.840 -0.0020  0.5045  0.0123
  136OSM   H14A14732   1.762   1.895   5.741  0.6297  1.4383 -0.0035
  136OSM   H14B14733   1.841   1.772   5.827 -1.4387  0.0611 -1.8542
  136OSM   H14C14734   1.866   1.948   5.872 -0.1812  0.5666  0.2380
  136OSM    C1314735   1.603   1.982   5.928 -0.1435  0.2048  0.0057
  136OSM   H13A14736   1.648   2.066   5.978  0.2054 -0.6653  1.2039
  136OSM   H13B14737   1.501   1.970   5.961  0.4623 -0.9060  1.6136
  136OSM   H13C14738   1.610   2.011   5.824 -0.3660 -0.0582 -0.0863
  136OSM    C1214739   1.715   1.821   6.076 -0.4884 -0.9410  0.0656
  136OSM   H12A14740   1.792   1.746   6.083  2.0386  1.4246 -0.7427
  136OSM   H12B14741   1.621   1.781   6.112 -2.7417  3.4200 -0.3406
  136OSM    C1114742   1.762   1.935   6.172  0.3701 -0.1830  0.0901
  136OSM   H11A14743   1.751   1.896   6.275  1.8318 -1.9018 -0.3691
  136OSM   H11B14744   1.691   2.021   6.170 -0.1248 -0.5865  0.2873
  136OSM      P14745   2.018   1.978   6.240  0.4647 -0.1745 -0.4176
  136OSM    O1314746   1.999   1.874   6.347 -0.0947 -0.7381 -0.2649
  136OSM    O1414747   2.141   1.960   6.154 -0.2181  0.7134  0.6235
  136OSM    O1114748   2.000   2.125   6.296  0.0540  0.2401  0.2530
  136OSM    O1214749   1.895   1.971   6.141  0.2345 -0.3656 -0.6725
  136OSM    C1S14750   1.897   2.182   6.377 -0.6104 -0.0879  0.6499
  136OSM    H1S14751   1.798   2.137   6.354  0.4743 -2.2173 -0.1078
  136OSM    H1T14752   1.884   2.287   6.344 -1.7390 -0.2931  0.4038
  136OSM     NF14753   1.805   2.217   6.614  0.3545 -1.2167  0.2444
  136OSM    HNF14754   1.796   2.303   6.663 -2.9739 -2.1131  1.4701
  136OSM    C2S14755   1.927   2.187   6.529 -0.2256 -0.4168 -0.7415
  136OSM    H2S14756   1.968   2.087   6.555  1.1210 -0.0672 -1.4419
  136OSM    C3S14757   2.054   2.280   6.545 -0.5977 -0.5042 -0.4055
  136OSM    H3S14758   2.020   2.382   6.519 -0.5300 -0.6252 -0.9873
  136OSM     O314759   2.162   2.258   6.457 -0.6053  0.1121  0.0138
  136OSM    HO314760   2.117   2.209   6.388  0.6750 -3.1400  1.2895
  136OSM    C4S14761   2.111   2.280   6.684 -0.5545  0.3932  0.3490
  136OSM    H4S14762   2.124   2.176   6.715 -0.4362  0.6148  1.0585
  136OSM    C5S14763   2.148   2.381   6.763 -0.0393 -0.0778 -0.2277
  136OSM    H5S14764   2.140   2.485   6.728  0.5852 -0.3746 -1.3134
  136OSM    C6S14765   2.212   2.360   6.900  0.4040 -0.3170 -0.9124
  136OSM    H6S14766   2.311   2.411   6.907  0.3345 -0.2625 -0.2747
  136OSM    H6T14767   2.235   2.253   6.917 -0.4779 -0.1797  1.5201
  136OSM    C7S14768   2.123   2.409   7.017 -0.1411  0.2813  0.1637
  136OSM    H7S14769   2.022   2.364   7.006 -1.7001  2.9068  2.3300
  136OSM    H7T14770   2.102   2.518   7.015 -0.7797  0.2139  1.5288
  136OSM    C8S14771   2.181   2.371   7.154  0.4301  0.8760  0.5856
  136OSM    H8S14772   2.278   2.420   7.176  2.3708 -1.1395 -2.6741
  136OSM    H8T14773   2.201   2.262   7.146 -0.3105  0.8576 -1.9405
  136OSM    C9S14774   2.086   2.412   7.267 -0.0792 -0.9253  0.4094
  136OSM    H9S14775   1.988   2.377   7.228  0.6241  0.0511 -2.5310
  136OSM    H9T14776   2.086   2.523   7.267  0.5647 -0.9199  0.0252
  136OSM   C10S14777   2.143   2.346   7.392  0.5718  0.0489 -0.1193
  136OSM   H10S14778   2.250   2.375   7.399  0.3463  0.8243  0.2322
  136OSM   H10T14779   2.152   2.236   7.387 -0.5506  0.0082 -4.4514
  136OSM   C11S14780   2.067   2.392   7.520 -0.8209  0.6580  0.6340
  136OSM   H11S14781   1.964   2.399   7.481 -0.2337  2.7275 -0.6973
  136OSM   H11T14782   2.104   2.490   7.556  0.5716 -0.3279  2.0905
  136OSM   C12S14783   2.080   2.290   7.629  0.0266 -0.0513  0.0539
  136OSM   H12S14784   2.188   2.270   7.644 -0.1792 -0.6698  0.8023
  136OSM   H12T14785   2.032   2.196   7.595  0.2715  0.1586 -0.8996
  136OSM   C13S14786   2.012   2.341   7.748 -0.2263  0.2901  0.2724
  136OSM   H13S14787   1.902   2.356   7.744 -0.3424  0.4141  2.5230
  136OSM   H13T14788   2.042   2.445   7.773  1.8371  0.0456 -0.9641
  136OSM   C14S14789   2.033   2.247   7.873 -0.2996 -0.1859 -0.3712
  136OSM   H14S14790   2.143   2.250   7.887 -0.3543 -1.2946  0.4829
  136OSM   H14T14791   1.997   2.144   7.850 -1.5630  0.2749 -0.5550
  136OSM   C15S14792   1.964   2.308   7.997  0.4972 -0.3430  0.2527
  136OSM   H15S14793   1.854   2.301   7.984  0.4842  0.4520 -0.0806
  136OSM   H15T14794   1.992   2.415   7.996 -0.4601 -0.0400 -2.8101
  136OSM   C16S14795   1.985   2.220   8.123 -0.2541 -0.1815  0.3772
  136OSM   H16S14796   2.093   2.219   8.150 -0.0364  1.7082 -0.2881
  136OSM   H16T14797   1.955   2.120   8.086  0.1133 -0.1135 -0.1161
  136OSM   C17S14798   1.896   2.258   8.239 -0.7952  0.0858  0.6325
  136OSM   H17S14799   1.801   2.204   8.219  0.6225 -2.8151  1.3317
  136OSM   H17T14800   1.890   2.368   8.257  1.8981  0.1122  1.7924
  136OSM   C18S14801   1.944   2.198   8.370 -0.0078  0.7098  0.1441
  136OSM   H18S14802   2.043   2.237   8.404 -1.0939  3.9267 -0.0062
  136OSM   H18T14803   1.959   2.089   8.355  2.6990  0.6646  2.2588
  136OSM   H18U14804   1.869   2.214   8.451 -0.3393  0.4155 -0.1042
  136OSM    C1F14805   1.695   2.149   6.622 -0.1357  0.5856 -0.0731
  136OSM     OF14806   1.683   2.049   6.550  0.1004  0.3992 -0.2422
  136OSM    C2F14807   1.598   2.184   6.713  0.0756 -0.3615 -0.1667
  136OSM    H2F14808   1.496   2.165   6.671 -0.2420 -3.1895  1.6333
  136OSM    H2G14809   1.617   2.287   6.749  0.0665 -1.4654  3.2999
  136OSM    C3F14810   1.603   2.107   6.850  0.0768 -0.8187 -0.2076
  136OSM    H3F14811   1.594   1.999   6.827  2.1006 -1.7008  2.5356
  136OSM    H3G14812   1.512   2.143   6.904 -1.1027 -0.5789 -2.2361
  136OSM    C4F14813   1.736   2.126   6.928  0.8584 -0.5740  0.1647
  136OSM    H4F14814   1.743   2.235   6.951 -1.0594  0.0641 -1.9144
  136OSM    H4G14815   1.827   2.106   6.868  0.2890 -1.2813 -0.4766
  136OSM    C5F14816   1.762   2.045   7.054 -0.7776 -0.4841  0.6855
  136OSM    H5F14817   1.846   2.097   7.104  0.3760 -0.5356 -1.0877
  136OSM    H5G14818   1.782   1.937   7.038 -1.2346 -0.9242  2.8059
  136OSM    C6F14819   1.644   2.043   7.148 -0.4229 -0.4805 -0.2701
  136OSM    H6F14820   1.550   2.019   7.094 -0.2715  1.0850 -1.2626
  136OSM    H6G14821   1.631   2.150   7.175  0.5356 -0.1700 -0.9808
  136OSM    C7F14822   1.667   1.943   7.263 -0.4402 -0.7565  0.3073
  136OSM    H7F14823   1.683   1.843   7.218 -0.6782 -0.4656 -0.4309
  136OSM    H7G14824   1.579   1.934   7.330  1.9643  2.4035  4.3827
  136OSM    C8F14825   1.785   1.980   7.359 -0.1762 -0.4997  1.0214
  136OSM    H8F14826   1.880   1.975   7.303  0.2658 -3.2009  1.8324
  136OSM    H8G14827   1.802   1.892   7.425 -1.6201 -0.4209  1.5452
  136OSM    C9F14828   1.771   2.117   7.427 -0.4723  0.0937  0.5340
  136OSM    H9F14829   1.831   2.198   7.383  2.8828 -1.6429  1.4986
  136OSM   C10F14830   1.705   2.146   7.543  0.0745  0.6139 -0.2481
  136OSM   H10F14831   1.704   2.245   7.591 -0.0943  0.0236  1.0171
  136OSM   C11F14832   1.652   2.032   7.625  0.4843  0.3956  0.0428
  136OSM   H11F14833   1.712   1.938   7.619  0.5806  0.3546  1.4244
  136OSM   H11G14834   1.552   1.992   7.598  1.7801 -0.7695 -3.6285
  136OSM   C12F14835   1.651   2.074   7.774  0.3541 -0.4216  0.5612
  136OSM   H12F14836   1.745   2.123   7.808  0.5081  1.1728 -1.9161
  136OSM   H12G14837   1.643   1.981   7.834  3.2210  0.3364  2.3149
  136OSM   C13F14838   1.544   2.174   7.823 -0.7234 -0.5389  0.1069
  136OSM   H13F14839   1.442   2.131   7.810  0.2971 -2.8628 -0.6679
  136OSM   H13G14840   1.556   2.267   7.763 -0.5870 -0.0429  0.8976
  136OSM   C14F14841   1.571   2.206   7.970  0.0734 -0.0169  0.2454
  136OSM   H14F14842   1.673   2.250   7.982 -0.0522  0.6755 -1.0486
  136OSM   H14G14843   1.569   2.109   8.024  1.9057  0.0813  0.5703
  136OSM   C15F14844   1.470   2.298   8.026 -0.4495 -0.2891 -0.0803
  136OSM   H15F14845   1.376   2.311   7.969  0.1241 -0.9387 -1.2012
  136OSM   H15G14846   1.518   2.397   8.043 -1.7380  0.1985  0.9614
  136OSM   C16F14847   1.428   2.249   8.166  0.2602 -0.0427  0.4423
  136OSM   H16F14848   1.517   2.229   8.228  1.2119  2.8201  0.1647
  136OSM   H16G14849   1.365   2.158   8.156 -0.2031  0.1875  1.1908
  136OSM   C17F14850   1.360   2.354   8.252 -0.4523 -1.0139  0.1003
  136OSM   H17F14851   1.259   2.384   8.218  0.6500  2.3927 -0.4727
  136OSM   H17G14852   1.424   2.443   8.262 -0.6453 -0.7747 -0.7663
  136OSM   C18F14853   1.343   2.308   8.399 -0.2151  0.6157  0.5775
  136OSM   H18F14854   1.441   2.327   8.449  0.3328  2.8975 -1.2087
  136OSM   H18G14855   1.327   2.198   8.391  2.2939  0.3219 -2.3956
  136OSM   H18H14856   1.275   2.377   8.453 -0.3374  1.6086 -0.8008
  137OSM      N14857   5.279   0.491   6.218  0.0021 -0.2842 -1.0652
  137OSM    C1514858   5.422   0.451   6.216 -0.0321  0.5150 -0.0952
  137OSM   H15A14859   5.463   0.457   6.315 -2.1296 -1.4804  0.9872
  137OSM   H15B14860   5.476   0.513   6.146 -1.4703 -1.4932 -3.2001
  137OSM   H15C14861   5.441   0.349   6.186  1.2486 -0.0601  2.4388
  137OSM    C1414862   5.281   0.638   6.242 -0.7203 -0.4018  0.2517
  137OSM   H14A14863   5.364   0.683   6.190 -0.0721  2.1879  3.2721
  137OSM   H14B14864   5.302   0.662   6.345  1.8476 -1.3175  0.0092
  137OSM   H14C14865   5.195   0.688   6.200 -0.5845 -0.2580  0.1475
  137OSM    C1314866   5.218   0.474   6.088  0.1986  0.0845  0.2522
  137OSM   H13A14867   5.115   0.508   6.095 -0.8102 -2.1552 -2.1041
  137OSM   H13B14868   5.189   0.371   6.070 -1.1042 -0.0887  2.7546
  137OSM   H13C14869   5.271   0.519   6.006  0.2356 -0.5085 -0.0551
  137OSM    C1214870   5.203   0.410   6.320  0.7985  0.2181 -0.1639
  137OSM   H12A14871   5.254   0.420   6.414 -0.3687 -0.9664  0.6209
  137OSM   H12B14872   5.215   0.306   6.297 -6.9670 -0.9460 -1.9374
  137OSM    C1114873   5.052   0.430   6.342 -0.2388  0.2924  0.7766
  137OSM   H11A14874   5.026   0.345   6.407 -2.4731 -0.2236 -0.7051
  137OSM   H11B14875   4.996   0.433   6.247 -0.9586  1.1767  1.2128
  137OSM      P14876   5.035   0.572   6.557  0.5768  0.1323 -0.3048
  137OSM    O1314877   5.128   0.680   6.591 -0.1838  0.5984  0.3080
  137OSM    O1414878   4.899   0.585   6.606  0.0069 -0.3435 -0.0542
  137OSM    O1114879   5.098   0.441   6.612 -0.4502  0.0592  0.2817
  137OSM    O1214880   5.035   0.555   6.403  0.0605 -0.2966  0.0055
  137OSM    C1S14881   5.119   0.412   6.754  1.0903 -0.6882 -0.2832
  137OSM    H1S14882   5.131   0.508   6.808  1.0914 -0.6512 -0.3481
  137OSM    H1T14883   5.222   0.374   6.767  2.1267  1.7095 -0.8569
  137OSM     NF14884   5.010   0.333   6.962  0.0277  0.3522  0.2845
  137OSM    HNF14885   5.071   0.265   7.000 -0.1084 -0.1545 -0.3744
  137OSM    C2S14886   5.007   0.324   6.821 -0.4680 -0.0972  0.0821
  137OSM    H2S14887   4.908   0.362   6.788 -0.3317 -0.3241 -0.6024
  137OSM    C3S14888   5.032   0.183   6.758 -0.0614 -1.0826 -0.0572
  137OSM    H3S14889   5.137   0.147   6.766 -0.5810 -2.4740  0.8224
  137OSM     O314890   5.013   0.182   6.619 -0.0993 -0.2367  0.2976
  137OSM    HO314891   5.008   0.276   6.598 -0.8733 -0.2155  0.5314
  137OSM    C4S14892   4.939   0.082   6.816  0.1062 -0.3117  0.1066
  137OSM    H4S14893   4.834   0.096   6.785  0.0965  0.0556  0.2892
  137OSM    C5S14894   4.974  -0.016   6.902  0.2944  0.4016  0.2922
  137OSM    H5S14895   5.081  -0.019   6.928  0.8633  0.2370 -1.8093
  137OSM    C6S14896   4.894  -0.128   6.948 -0.5356  0.2613 -0.3024
  137OSM    H6S14897   4.933  -0.228   6.921 -1.5798 -0.6644  1.4179
  137OSM    H6T14898   4.793  -0.111   6.904 -0.5597  1.2179  0.0904
  137OSM    C7S14899   4.880  -0.115   7.098  0.1346 -0.2465  0.5390
  137OSM    H7S14900   4.960  -0.048   7.138 -2.6428  2.5344  1.9227
  137OSM    H7T14901   4.877  -0.217   7.142 -0.9630  0.7804  3.0338
  137OSM    C8S14902   4.741  -0.048   7.138  0.2322  0.2768  0.0909
  137OSM    H8S14903   4.657  -0.106   7.094 -0.4606 -0.0643  1.7754
  137OSM    H8T14904   4.738   0.053   7.092  2.4674 -0.2643 -1.3800
  137OSM    C9S14905   4.704  -0.043   7.288  0.2667  0.1554 -0.4467
  137OSM    H9S14906   4.786   0.006   7.346 -0.6326  0.6175  0.4651
  137OSM    H9T14907   4.698  -0.152   7.310 -0.5353  0.2998  0.0887
  137OSM   C10S14908   4.562   0.013   7.318 -0.1257 -0.6027 -0.0876
  137OSM   H10S14909   4.484  -0.053   7.274 -1.1269  1.0667 -0.9533
  137OSM   H10T14910   4.546   0.109   7.264 -2.8159 -0.4351  0.8557
  137OSM   C11S14911   4.533   0.044   7.460 -0.0790 -0.5111 -0.8700
  137OSM   H11S14912   4.429   0.082   7.462 -0.0762 -0.5429  0.0561
  137OSM   H11T14913   4.593   0.121   7.513 -1.0161  0.4705 -1.2158
  137OSM   C12S14914   4.551  -0.086   7.546  0.4206 -0.9533 -0.7516
  137OSM   H12S14915   4.659  -0.113   7.545  0.4314 -1.0791  0.7089
  137OSM   H12T14916   4.504  -0.173   7.497  2.0259 -1.2236 -1.8652
  137OSM   C13S14917   4.507  -0.066   7.693  0.0678 -0.7696  0.9191
  137OSM   H13S14918   4.397  -0.063   7.676  0.4551  1.3724 -1.9434
  137OSM   H13T14919   4.542   0.033   7.730  1.8268 -1.9218  2.4864
  137OSM   C14S14920   4.544  -0.178   7.795  0.1880 -0.0222 -0.6382
  137OSM   H14S14921   4.652  -0.204   7.797  0.4592  1.0465  0.0719
  137OSM   H14T14922   4.486  -0.270   7.773  2.2272 -2.1920  2.3435
  137OSM   C15S14923   4.495  -0.144   7.939 -0.0746 -0.5035 -0.0809
  137OSM   H15S14924   4.384  -0.133   7.939  0.0702  2.1149  2.4002
  137OSM   H15T14925   4.531  -0.041   7.956  0.8382 -0.4925 -1.8589
  137OSM   C16S14926   4.535  -0.240   8.044 -0.2455  0.1933 -0.4542
  137OSM   H16S14927   4.645  -0.237   8.055 -0.2758  1.4071 -0.2800
  137OSM   H16T14928   4.506  -0.345   8.026  0.0050  0.3031 -1.5759
  137OSM   C17S14929   4.467  -0.197   8.180 -0.4590  0.1731  0.3731
  137OSM   H17S14930   4.358  -0.184   8.167 -0.3124 -0.0378 -1.2479
  137OSM   H17T14931   4.517  -0.100   8.202 -0.1271  0.0057  0.3748
  137OSM   C18S14932   4.491  -0.304   8.293 -0.3887  0.1859  0.7363
  137OSM   H18S14933   4.429  -0.390   8.258 -2.0193  1.0299  1.4385
  137OSM   H18T14934   4.447  -0.286   8.394 -1.9811 -0.7306  0.2478
  137OSM   H18U14935   4.599  -0.331   8.296 -0.3296  0.2294 -0.4555
  137OSM    C1F14936   4.968   0.442   7.029  0.2070  0.6847  0.4605
  137OSM     OF14937   4.912   0.527   6.964  0.0518 -0.4387 -0.2309
  137OSM    C2F14938   5.010   0.459   7.169  0.4868  0.1879  0.5315
  137OSM    H2F14939   4.993   0.564   7.200 -3.2603 -0.3047  0.6251
  137OSM    H2G14940   5.118   0.438   7.178  0.9258  2.3503  0.8670
  137OSM    C3F14941   4.922   0.381   7.270 -0.0888 -0.2605  0.8342
  137OSM    H3F14942   4.922   0.275   7.239  3.7903  0.1868 -1.3922
  137OSM    H3G14943   4.824   0.434   7.264  0.0080 -0.2759 -2.8358
  137OSM    C4F14944   4.972   0.392   7.413  0.3586  1.1313 -0.7337
  137OSM    H4F14945   4.945   0.493   7.450 -1.6887 -0.2008  1.7249
  137OSM    H4G14946   5.080   0.368   7.414  0.2934  0.7445 -1.5590
  137OSM    C5F14947   4.892   0.296   7.500 -0.0078  0.3627  0.4607
  137OSM    H5F14948   4.929   0.198   7.465  0.9947  0.5683  0.8961
  137OSM    H5G14949   4.784   0.315   7.484  0.3663  2.0319 -0.3745
  137OSM    C6F14950   4.935   0.323   7.643 -0.1662 -0.2985 -0.5254
  137OSM    H6F14951   4.910   0.426   7.677  1.4993 -0.3833  1.1164
  137OSM    H6G14952   5.043   0.308   7.660 -0.2912  0.4850  1.1744
  137OSM    C7F14953   4.853   0.223   7.731 -0.3634  1.1659  0.9868
  137OSM    H7F14954   4.907   0.127   7.720 -0.0618  1.3617  0.7143
  137OSM    H7G14955   4.759   0.215   7.671 -0.7798  1.4849  1.5839
  137OSM    C8F14956   4.816   0.267   7.870 -0.5131  0.2621 -0.2423
  137OSM    H8F14957   4.778   0.371   7.859  1.3397  1.2441  1.7846
  137OSM    H8G14958   4.916   0.279   7.919 -0.4464  0.5582 -0.4453
  137OSM    C9F14959   4.721   0.178   7.946 -0.9185 -0.3270 -1.0322
  137OSM    H9F14960   4.633   0.162   7.882 -1.7306  1.3611 -0.4187
  137OSM   C10F14961   4.741   0.133   8.074 -0.0384  0.8342  0.3476
  137OSM   H10F14962   4.668   0.060   8.112  0.1015  0.6002  0.1674
  137OSM   C11F14963   4.854   0.150   8.174 -0.1216  0.4649  0.2829
  137OSM   H11F14964   4.823   0.235   8.238 -1.8583  0.1294 -0.0539
  137OSM   H11G14965   4.942   0.185   8.116 -0.5698 -0.7226 -1.1885
  137OSM   C12F14966   4.884   0.021   8.248 -0.0162  0.8422  0.0824
  137OSM   H12F14967   4.991   0.015   8.277 -0.2597 -0.8502  0.6873
  137OSM   H12G14968   4.858  -0.065   8.183  2.6436  1.7115 -2.3122
  137OSM   C13F14969   4.823   0.031   8.393 -0.4317 -0.2378  0.0599
  137OSM   H13F14970   4.712   0.043   8.393 -0.3588  1.2182  3.1041
  137OSM   H13G14971   4.846   0.125   8.447  2.1774  0.1605 -1.5715
  137OSM   C14F14972   4.849  -0.087   8.484 -0.0583  0.8983 -0.3060
  137OSM   H14F14973   4.842  -0.184   8.431  0.2952 -0.4233  1.9245
  137OSM   H14G14974   4.764  -0.093   8.556 -0.1457  0.4541 -0.4426
  137OSM   C15F14975   4.985  -0.085   8.559  0.0443  0.0599 -0.1743
  137OSM   H15F14976   5.014   0.019   8.582  0.1634  0.2282 -1.0322
  137OSM   H15G14977   5.057  -0.131   8.487 -0.9996 -0.3724 -0.9662
  137OSM   C16F14978   4.989  -0.180   8.679 -0.0737  0.2382 -0.2007
  137OSM   H16F14979   4.953  -0.285   8.671 -0.2617  0.1090  1.8734
  137OSM   H16G14980   4.920  -0.132   8.752 -3.1131 -2.5647 -0.9735
  137OSM   C17F14981   5.130  -0.185   8.735 -0.3930  0.3120  0.7743
  137OSM   H17F14982   5.140  -0.080   8.769 -1.0797  0.6231  0.0324
  137OSM   H17G14983   5.203  -0.197   8.652 -1.0502  1.2457  0.0464
  137OSM   C18F14984   5.139  -0.293   8.851  0.4064 -0.0509 -0.9228
  137OSM   H18F14985   5.098  -0.389   8.813  0.7997  0.0494 -1.6286
  137OSM   H18G14986   5.085  -0.264   8.943  1.2218 -1.0336 -0.1098
  137OSM   H18H14987   5.242  -0.316   8.885 -0.6935 -2.3859  1.1547
  138OSM      N14988   6.183   4.599   5.964 -0.1952 -0.2346  0.4925
  138OSM    C1514989   6.292   4.533   5.885 -0.0500  0.4895 -0.5636
  138OSM   H15A14990   6.288   4.560   5.781  1.4883 -0.6994 -0.9802
  138OSM   H15B14991   6.276   4.427   5.898 -0.0457  0.6167  0.5628
  138OSM   H15C14992   6.392   4.560   5.918  0.5038  0.6634 -2.2930
  138OSM    C1414993   6.162   4.738   5.925 -0.4228 -0.4619  0.6357
  138OSM   H14A14994   6.243   4.809   5.935 -1.8953  1.8397 -2.3230
  138OSM   H14B14995   6.084   4.783   5.984  1.1450  2.2196  0.8440
  138OSM   H14C14996   6.138   4.752   5.821 -2.7516  3.1159  1.4723
  138OSM    C1314997   6.052   4.541   5.922  0.9726 -0.4010 -0.9293
  138OSM   H13A14998   6.029   4.563   5.819  0.5479 -0.9006 -0.9435
  138OSM   H13B14999   5.978   4.582   5.989  0.7712  0.3388 -1.5845
  138OSM   H13C15000   6.050   4.434   5.914 -2.5338 -0.6871  1.2546
  138OSM    C1215001   6.199   4.580   6.109 -1.1621  0.2860  0.1424
  138OSM   H12A15002   6.103   4.609   6.150 -2.8849 -1.6952 -2.2572
  138OSM   H12B15003   6.283   4.636   6.148  0.6086 -0.9940 -1.6280
  138OSM    C1115004   6.229   4.433   6.150  0.0186  0.3768 -0.2337
  138OSM   H11A15005   6.274   4.419   6.251  0.1424 -3.4463 -0.6608
  138OSM   H11B15006   6.313   4.384   6.095  0.8280 -0.7782  1.8803
  138OSM      P15007   5.998   4.330   6.254  0.1526  0.1863  0.2059
  138OSM    O1315008   5.923   4.459   6.266  0.1680  0.1144 -0.5383
  138OSM    O1415009   5.911   4.213   6.230  0.2519 -0.7325  0.0014
  138OSM    O1115010   6.061   4.299   6.391  0.2004 -0.2033 -0.0563
  138OSM    O1215011   6.115   4.348   6.146 -0.2802 -0.3808  0.7257
  138OSM    C1S15012   6.136   4.180   6.403 -0.3318 -0.3497  0.3873
  138OSM    H1S15013   6.236   4.194   6.356  0.4544 -1.3383  1.6815
  138OSM    H1T15014   6.091   4.091   6.355 -0.2560 -1.1411  1.7191
  138OSM     NF15015   6.265   4.029   6.546  0.2944 -0.3265 -0.1147
  138OSM    HNF15016   6.234   3.935   6.562 -1.3078  0.0486 -0.8453
  138OSM    C2S15017   6.166   4.142   6.554 -0.6661 -0.2622  0.0397
  138OSM    H2S15018   6.214   4.228   6.606  0.0921 -1.1850  0.9135
  138OSM    C3S15019   6.028   4.112   6.626 -0.7814 -0.5079 -0.2791
  138OSM    H3S15020   5.973   4.031   6.573  0.1709 -0.6245 -1.1311
  138OSM     O315021   5.941   4.224   6.627 -0.5842  0.0521  0.2622
  138OSM    HO315022   5.973   4.289   6.565  0.7185 -1.0956 -0.3341
  138OSM    C4S15023   6.062   4.067   6.765  0.2355 -0.3656  0.4511
  138OSM    H4S15024   6.111   4.148   6.820  1.7123  0.1744 -1.5256
  138OSM    C5S15025   6.028   3.952   6.826 -0.1823  1.0535  0.8127
  138OSM    H5S15026   5.975   3.867   6.780  1.8780 -0.4666  1.0552
  138OSM    C6S15027   6.068   3.913   6.969 -0.0411  0.2604  0.0188
  138OSM    H6S15028   6.177   3.897   6.981 -0.3798 -0.5931  2.6429
  138OSM    H6T15029   6.012   3.819   6.990  0.8007 -1.1968 -3.6515
  138OSM    C7S15030   6.019   4.021   7.079 -0.1221  0.0273  0.1929
  138OSM    H7S15031   5.922   4.067   7.051  0.0907  0.3233 -0.0678
  138OSM    H7T15032   6.093   4.099   7.053 -0.1202 -0.5610 -1.6916
  138OSM    C8S15033   6.037   3.981   7.226 -0.5608  0.2719  0.2168
  138OSM    H8S15034   6.142   3.947   7.239 -1.6027 -2.5014  2.4516
  138OSM    H8T15035   5.965   3.902   7.255 -0.8489 -0.0901 -1.4102
  138OSM    C9S15036   6.017   4.107   7.316  0.0839 -0.0484 -0.3429
  138OSM    H9S15037   5.909   4.113   7.344 -0.2219  0.7687 -1.6223
  138OSM    H9T15038   6.037   4.205   7.268 -2.7140  1.3644  1.1340
  138OSM   C10S15039   6.088   4.094   7.448 -0.2042 -0.2386  0.1139
  138OSM   H10S15040   6.195   4.092   7.421  0.3438  0.9723  2.0057
  138OSM   H10T15041   6.063   3.995   7.491 -0.7148 -0.2495 -0.1957
  138OSM   C11S15042   6.060   4.209   7.558 -0.1817  0.0163  0.3558
  138OSM   H11S15043   6.063   4.299   7.494  0.1168 -0.3277 -0.1203
  138OSM   H11T15044   6.147   4.210   7.628  0.6872  2.1191 -0.6699
  138OSM   C12S15045   5.933   4.200   7.643 -0.0188 -0.3333  0.2854
  138OSM   H12S15046   5.846   4.215   7.575 -0.7162  0.3110  1.2882
  138OSM   H12T15047   5.920   4.293   7.703 -0.0627  0.8371 -1.4693
  138OSM   C13S15048   5.929   4.072   7.736 -0.2669  0.0138  0.7812
  138OSM   H13S15049   6.013   4.074   7.808 -0.0882  0.4046  0.5673
  138OSM   H13T15050   5.939   3.987   7.665  0.1071 -0.1913  1.0760
  138OSM   C14S15051   5.796   4.059   7.813  0.3268  0.4969  1.0906
  138OSM   H14S15052   5.716   4.059   7.737  0.3475 -1.2863  1.0465
  138OSM   H14T15053   5.793   4.151   7.877 -0.1496  1.0216  0.3242
  138OSM   C15S15054   5.794   3.933   7.905 -0.2518  0.3215 -0.7414
  138OSM   H15S15055   5.774   3.974   8.006 -0.0310  0.2734 -0.6794
  138OSM   H15T15056   5.898   3.895   7.905 -0.5017 -0.4119  0.7961
  138OSM   C16S15057   5.691   3.820   7.883  0.0297 -0.4320 -0.2772
  138OSM   H16S15058   5.698   3.750   7.969 -0.0234  0.7250  0.7071
  138OSM   H16T15059   5.718   3.774   7.786  1.3294 -0.7218  0.2051
  138OSM   C17S15060   5.539   3.866   7.895  0.7603 -0.6053  0.4292
  138OSM   H17S15061   5.511   3.905   7.795 -0.0783  0.4188  1.0498
  138OSM   H17T15062   5.523   3.950   7.965 -0.7484 -0.2968 -0.2603
  138OSM   C18S15063   5.436   3.753   7.909 -0.3829  0.8598  0.1641
  138OSM   H18S15064   5.434   3.676   7.829 -2.4417  1.5916 -0.5626
  138OSM   H18T15065   5.331   3.790   7.915 -0.8691 -0.6426  1.9018
  138OSM   H18U15066   5.453   3.691   8.000  0.9408 -1.8140 -1.7945
  138OSM    C1F15067   6.398   4.046   6.519 -0.2713 -0.5371 -0.2467
  138OSM     OF15068   6.440   4.158   6.496 -0.6163  0.7783 -0.1286
  138OSM    C2F15069   6.485   3.928   6.503  0.6053  0.4278 -0.0216
  138OSM    H2F15070   6.529   3.945   6.403  2.2400 -1.7685  0.2596
  138OSM    H2G15071   6.421   3.837   6.505  2.4746 -0.9530 -0.0647
  138OSM    C3F15072   6.601   3.913   6.606  0.1528  0.4493 -0.1444
  138OSM    H3F15073   6.660   4.007   6.609  0.1766  0.4344 -0.1468
  138OSM    H3G15074   6.666   3.834   6.560 -0.1246  1.1920 -1.8996
  138OSM    C4F15075   6.564   3.874   6.752 -0.2706 -0.1351  0.3213
  138OSM    H4F15076   6.655   3.836   6.802  1.2913  0.8648 -1.6351
  138OSM    H4G15077   6.482   3.800   6.743 -0.5667  0.3079 -0.8473
  138OSM    C5F15078   6.494   3.980   6.844 -0.3080 -0.5848 -0.3267
  138OSM    H5F15079   6.391   3.998   6.806 -0.2092 -0.0280 -0.3344
  138OSM    H5G15080   6.552   4.072   6.826 -1.0265 -0.1013 -0.1996
  138OSM    C6F15081   6.484   3.945   6.997  0.1562  0.1359  0.2587
  138OSM    H6F15082   6.585   3.915   7.033 -0.0765 -0.2589  0.5906
  138OSM    H6G15083   6.423   3.853   7.008  0.2471  0.3816  5.0027
  138OSM    C7F15084   6.413   4.055   7.076 -0.0507  0.0819  0.3340
  138OSM    H7F15085   6.311   4.059   7.033 -0.1467 -1.8017  0.3265
  138OSM    H7G15086   6.468   4.150   7.058  0.8402 -0.7498 -1.5351
  138OSM    C8F15087   6.404   4.038   7.233 -0.5750 -0.5806  0.0711
  138OSM    H8F15088   6.359   3.941   7.263  0.2645 -0.4904  1.7447
  138OSM    H8G15089   6.343   4.125   7.265  0.5071  1.7662 -3.6428
  138OSM    C9F15090   6.547   4.042   7.282 -0.2489  0.6310  0.5321
  138OSM    H9F15091   6.620   3.995   7.214 -0.5904  0.8625 -0.0018
  138OSM   C10F15092   6.600   4.092   7.398 -0.3564  0.5894 -0.2264
  138OSM   H10F15093   6.710   4.089   7.404 -0.4503 -1.6155  1.5003
  138OSM   C11F15094   6.522   4.149   7.518  0.2282 -0.5009 -0.2196
  138OSM   H11F15095   6.413   4.131   7.514 -0.0319  1.1531 -1.3477
  138OSM   H11G15096   6.531   4.260   7.522 -1.8642 -0.3145  0.4157
  138OSM   C12F15097   6.583   4.099   7.647 -0.6893 -0.7721 -0.5506
  138OSM   H12F15098   6.689   4.132   7.658 -1.1991  0.1754  2.5408
  138OSM   H12G15099   6.581   3.988   7.660 -1.5294 -0.6640  0.3484
  138OSM   C13F15100   6.509   4.165   7.770  0.6994 -0.2215 -0.4150
  138OSM   H13F15101   6.400   4.146   7.766  0.5835  0.5218 -1.0053
  138OSM   H13G15102   6.516   4.276   7.763  1.4775 -0.3086 -1.2625
  138OSM   C14F15103   6.567   4.109   7.903  0.3669  0.3049  0.5711
  138OSM   H14F15104   6.534   4.003   7.907  0.0742  0.3603 -0.1953
  138OSM   H14G15105   6.525   4.160   7.993 -2.6113 -0.3449 -0.3247
  138OSM   C15F15106   6.714   4.131   7.922 -0.0214  0.0870 -0.5126
  138OSM   H15F15107   6.739   4.239   7.926 -1.4002  0.3765  1.0567
  138OSM   H15G15108   6.779   4.093   7.839  1.2950 -1.4101  1.1225
  138OSM   C16F15109   6.760   4.073   8.055  0.4390  0.2616 -0.4825
  138OSM   H16F15110   6.758   3.963   8.040  0.6511  0.0314  1.0827
  138OSM   H16G15111   6.688   4.094   8.137 -1.9450  1.0804 -2.6204
  138OSM   C17F15112   6.900   4.110   8.090 -0.0601 -0.5104  0.0720
  138OSM   H17F15113   6.907   4.219   8.114 -1.3616 -0.3249 -0.3397
  138OSM   H17G15114   6.962   4.078   8.003  1.3922 -1.7403  1.4868
  138OSM   C18F15115   6.959   4.029   8.200 -0.8869  0.5524 -0.3401
  138OSM   H18F15116   6.906   4.051   8.295 -1.0568  0.8002 -0.4920
  138OSM   H18G15117   7.067   4.046   8.216 -0.6742  2.2616 -3.0308
  138OSM   H18H15118   6.950   3.920   8.181  0.9445  0.3670 -0.2957
  139OSM      N15119   3.336   3.200   5.930  0.3677 -0.9601  0.1105
  139OSM    C1515120   3.308   3.170   5.784  0.3528 -0.0828  0.4585
  139OSM   H15A15121   3.219   3.215   5.742 -0.9309 -2.8327 -0.0268
  139OSM   H15B15122   3.298   3.063   5.770 -1.9098  0.2426 -0.9938
  139OSM   H15C15123   3.385   3.209   5.719  0.6949 -1.1133  0.2260
  139OSM    C1415124   3.365   3.339   5.962 -0.0925 -0.8068 -0.2621
  139OSM   H14A15125   3.299   3.417   5.929 -0.3859 -0.3314  1.3486
  139OSM   H14B15126   3.464   3.363   5.926 -0.6601 -0.4017 -1.6104
  139OSM   H14C15127   3.365   3.348   6.070  3.1641 -0.3049 -0.2078
  139OSM    C1315128   3.215   3.169   6.015 -0.2720 -0.0145  0.8194
  139OSM   H13A15129   3.137   3.227   5.969  0.9598  1.3797  0.4206
  139OSM   H13B15130   3.223   3.191   6.121  0.2789  2.1755  0.3731
  139OSM   H13C15131   3.179   3.069   5.998 -0.6203  0.2576 -0.1062
  139OSM    C1215132   3.446   3.111   5.972 -0.2816  0.1942  0.2012
  139OSM   H12A15133   3.423   3.006   5.979  2.4282 -0.5696 -0.9206
  139OSM   H12B15134   3.459   3.133   6.077  0.5634  2.4255 -0.3112
  139OSM    C1115135   3.586   3.130   5.907 -0.1272 -0.5436 -0.2195
  139OSM   H11A15136   3.608   3.239   5.905 -0.5685 -0.4426  0.1385
  139OSM   H11B15137   3.587   3.095   5.802 -0.8130 -0.0518 -0.3948
  139OSM      P15138   3.795   3.142   6.071 -0.2007 -0.2072  0.4206
  139OSM    O1315139   3.875   3.035   6.129 -0.0131  0.0638 -0.1148
  139OSM    O1415140   3.856   3.229   5.971  0.4599  0.2911  0.2407
  139OSM    O1115141   3.718   3.222   6.183  0.3781  0.1166 -0.2746
  139OSM    O1215142   3.677   3.072   5.995  0.4827 -0.2674 -0.3507
  139OSM    C1S15143   3.639   3.158   6.286 -0.2865  0.3512  0.1419
  139OSM    H1S15144   3.643   3.047   6.291 -0.3464  0.4004  2.5265
  139OSM    H1T15145   3.530   3.179   6.283 -0.5755 -1.1567 -0.6951
  139OSM     NF15146   3.640   3.128   6.537 -0.3185 -0.7056 -0.1040
  139OSM    HNF15147   3.565   3.158   6.595 -0.8999  1.4030 -1.8285
  139OSM    C2S15148   3.686   3.212   6.430 -0.2477 -0.8037 -0.0644
  139OSM    H2S15149   3.796   3.200   6.418  0.3636  2.8789  0.6085
  139OSM    C3S15150   3.654   3.364   6.456 -0.6708  0.2425 -0.2882
  139OSM    H3S15151   3.547   3.373   6.486 -0.8809 -0.6049 -0.7466
  139OSM     O315152   3.668   3.451   6.344  0.8770 -0.4257 -0.4456
  139OSM    HO315153   3.691   3.396   6.269  1.1138  1.8370 -2.1561
  139OSM    C4S15154   3.724   3.411   6.574  0.2058 -1.0161 -0.4470
  139OSM    H4S15155   3.675   3.385   6.669 -0.9305  2.5967  0.1089
  139OSM    C5S15156   3.828   3.493   6.583  0.0134  0.2669 -0.2420
  139OSM    H5S15157   3.870   3.533   6.489  1.9114 -1.7477 -0.3381
  139OSM    C6S15158   3.904   3.532   6.707  0.7691  0.5641  0.0024
  139OSM    H6S15159   3.909   3.642   6.720 -0.4631  0.8150 -1.3744
  139OSM    H6T15160   4.006   3.489   6.696  0.5090  0.3473 -1.9610
  139OSM    C7S15161   3.851   3.498   6.847 -0.9017 -0.4562 -0.3421
  139OSM    H7S15162   3.828   3.389   6.848  1.3053 -1.1937 -4.7145
  139OSM    H7T15163   3.750   3.537   6.868  0.0611  3.2247 -1.7930
  139OSM    C8S15164   3.946   3.517   6.965  0.4711  0.2037 -0.6105
  139OSM    H8S15165   3.945   3.624   6.993  0.0171 -0.2509  1.2536
  139OSM    H8T15166   4.046   3.479   6.935 -0.4286 -1.0066 -2.2328
  139OSM    C9S15167   3.903   3.448   7.103  0.2274  0.0493  0.3653
  139OSM    H9S15168   3.906   3.338   7.087  2.5053  0.1063  0.0168
  139OSM    H9T15169   3.797   3.477   7.122  0.4396  0.8046  0.4411
  139OSM   C10S15170   3.992   3.475   7.225 -0.8353  0.0196 -0.0181
  139OSM   H10S15171   3.992   3.580   7.261  2.7856  0.3213 -0.4936
  139OSM   H10T15172   4.093   3.444   7.190 -0.4703  1.5916 -0.4346
  139OSM   C11S15173   3.966   3.392   7.342 -0.9157  0.3693  0.1325
  139OSM   H11S15174   3.997   3.293   7.302  3.2454  1.4231  0.3025
  139OSM   H11T15175   3.858   3.401   7.366 -1.3619 -1.3812 -0.9933
  139OSM   C12S15176   4.051   3.433   7.467  0.1372  0.2044 -0.7958
  139OSM   H12S15177   4.148   3.476   7.434  0.3069 -0.1510 -0.7622
  139OSM   H12T15178   4.078   3.336   7.513 -3.9350 -0.8910 -0.3589
  139OSM   C13S15179   3.962   3.525   7.556  0.0777  0.6378 -0.5338
  139OSM   H13S15180   3.868   3.466   7.563  1.1502 -1.1045 -0.3464
  139OSM   H13T15181   3.943   3.618   7.498  2.7906  1.9757  0.5789
  139OSM   C14S15182   4.018   3.541   7.698  0.1870 -0.5473  0.1513
  139OSM   H14S15183   3.958   3.625   7.738  1.2868  0.3667 -0.0603
  139OSM   H14T15184   4.120   3.585   7.694 -0.8543  1.9680 -0.3917
  139OSM   C15S15185   4.008   3.413   7.779  0.0672  0.1609 -0.2830
  139OSM   H15S15186   4.040   3.323   7.724 -3.0641 -0.7028 -0.9288
  139OSM   H15T15187   3.903   3.400   7.815 -1.0453  1.6070 -2.7538
  139OSM   C16S15188   4.090   3.415   7.905  0.2771 -0.3914 -0.6491
  139OSM   H16S15189   4.099   3.519   7.945  0.2465  0.0660 -1.7986
  139OSM   H16T15190   4.192   3.380   7.879  0.0006 -0.3079 -1.8936
  139OSM   C17S15191   4.026   3.327   8.016 -0.3355  0.2017 -0.1542
  139OSM   H17S15192   4.046   3.220   7.993  0.5455  0.6363 -1.5050
  139OSM   H17T15193   3.917   3.321   7.998 -0.2442 -2.9925 -0.3665
  139OSM   C18S15194   4.064   3.370   8.158 -0.1590  0.3927  0.4011
  139OSM   H18S15195   4.172   3.357   8.181 -0.3988  1.7483  2.6055
  139OSM   H18T15196   4.020   3.292   8.225  0.6714 -0.8883 -0.5114
  139OSM   H18U15197   4.034   3.475   8.177 -0.0857  0.4042  0.4512
  139OSM    C1F15198   3.680   3.003   6.546  1.0680 -0.3972  0.0735
  139OSM     OF15199   3.779   2.965   6.488 -0.3437 -0.5319  0.6402
  139OSM    C2F15200   3.606   2.917   6.638  0.6481  0.4650 -0.2670
  139OSM    H2F15201   3.564   2.983   6.717  1.0235  0.5419 -0.1324
  139OSM    H2G15202   3.675   2.844   6.684  1.3816  0.0584 -1.9519
  139OSM    C3F15203   3.497   2.825   6.575 -0.3240  0.5133  0.6115
  139OSM    H3F15204   3.535   2.771   6.486  2.8487  1.5088  1.2384
  139OSM    H3G15205   3.402   2.876   6.547 -0.7054 -0.0481  0.8817
  139OSM    C4F15206   3.447   2.718   6.682 -0.2902 -0.1171 -0.0631
  139OSM    H4F15207   3.537   2.655   6.702  1.5462  1.6438 -2.3022
  139OSM    H4G15208   3.356   2.667   6.644 -1.3153  0.4312  1.5741
  139OSM    C5F15209   3.405   2.778   6.817  0.3640  0.4821 -0.2103
  139OSM    H5F15210   3.313   2.840   6.807 -0.9066 -1.1230  0.8592
  139OSM    H5G15211   3.483   2.841   6.864  0.3656 -1.9505  3.4992
  139OSM    C6F15212   3.381   2.667   6.925  0.3552 -0.4761 -0.0041
  139OSM    H6F15213   3.339   2.577   6.876 -0.5212 -0.6057  0.9624
  139OSM    H6G15214   3.290   2.707   6.974 -0.6617 -1.5912 -0.9095
  139OSM    C7F15215   3.504   2.636   7.006 -0.6120 -0.4786  0.3156
  139OSM    H7F15216   3.537   2.725   7.062  0.2592 -0.9740  0.6110
  139OSM    H7G15217   3.583   2.604   6.934 -2.0033 -0.2588 -1.3746
  139OSM    C8F15218   3.478   2.519   7.105 -0.6640  0.6264 -0.1237
  139OSM    H8F15219   3.472   2.431   7.039 -2.5521 -0.1841  1.0331
  139OSM    H8G15220   3.376   2.533   7.147 -0.7018 -3.5669  1.6364
  139OSM    C9F15221   3.579   2.506   7.217  0.9550 -0.1580 -0.8092
  139OSM    H9F15222   3.681   2.537   7.190  1.1924  2.3506  2.3156
  139OSM   C10F15223   3.553   2.473   7.345  0.3943 -0.1908 -0.3099
  139OSM   H10F15224   3.643   2.477   7.408  0.1250 -1.3670  0.1828
  139OSM   C11F15225   3.425   2.424   7.413 -0.0669 -0.4034  0.6258
  139OSM   H11F15226   3.412   2.314   7.407 -1.4334 -0.1827 -1.1016
  139OSM   H11G15227   3.336   2.469   7.364  0.5298  0.3819  0.2407
  139OSM   C12F15228   3.434   2.451   7.564  0.2548 -0.1485 -0.0616
  139OSM   H12F15229   3.338   2.430   7.615 -0.5457 -1.2134 -1.8901
  139OSM   H12G15230   3.453   2.558   7.586 -0.2991 -0.5404  2.6472
  139OSM   C13F15231   3.538   2.380   7.662 -0.1939 -0.0746 -0.5824
  139OSM   H13F15232   3.638   2.423   7.637 -0.9570  2.1990  0.0681
  139OSM   H13G15233   3.533   2.270   7.645 -3.3610  0.0349 -0.8419
  139OSM   C14F15234   3.506   2.418   7.802 -0.0562 -0.3078  0.4916
  139OSM   H14F15235   3.499   2.529   7.809  0.5615 -0.1935 -0.4298
  139OSM   H14G15236   3.594   2.393   7.865 -0.3721 -1.5556  0.4646
  139OSM   C15F15237   3.383   2.346   7.856  0.1147 -0.1867 -0.1875
  139OSM   H15F15238   3.363   2.251   7.800  0.5459 -0.4396  0.0780
  139OSM   H15G15239   3.297   2.412   7.835 -0.0244 -0.5314 -0.7544
  139OSM   C16F15240   3.407   2.325   8.006  0.1579 -0.0702  0.4203
  139OSM   H16F15241   3.443   2.419   8.053 -0.3581 -0.0667  0.8161
  139OSM   H16G15242   3.481   2.243   8.014 -1.7827 -2.1103 -1.2109
  139OSM   C17F15243   3.285   2.271   8.079  0.5367 -0.3896 -0.1382
  139OSM   H17F15244   3.241   2.185   8.024 -0.9456  0.3806 -0.1883
  139OSM   H17G15245   3.203   2.345   8.087  0.1233 -0.9424  1.1485
  139OSM   C18F15246   3.314   2.228   8.217 -0.1722  0.6607 -0.4560
  139OSM   H18F15247   3.398   2.155   8.217 -1.6074 -1.0910  0.8193
  139OSM   H18G15248   3.231   2.172   8.267  0.2806  0.2369 -0.1675
  139OSM   H18H15249   3.339   2.315   8.281  0.1628  1.1710 -1.2795
  140OSM      N15250   5.070   5.403   6.107  0.6091 -0.9510 -0.1552
  140OSM    C1515251   4.975   5.508   6.089 -0.3047  0.2206  0.3342
  140OSM   H15A15252   4.953   5.525   5.985  0.3937 -0.6893  0.0263
  140OSM   H15B15253   5.007   5.604   6.127 -1.8998  0.0364  2.3232
  140OSM   H15C15254   4.878   5.498   6.138  0.5150  1.7349  2.4240
  140OSM    C1415255   5.055   5.300   6.008  0.3500  0.0466  0.1460
  140OSM   H14A15256   5.081   5.325   5.906  1.2025 -2.1418 -0.2198
  140OSM   H14B15257   4.954   5.264   6.010  1.0762 -2.1217  0.2472
  140OSM   H14C15258   5.118   5.216   6.033  0.2209  0.6028  2.5202
  140OSM    C1315259   5.210   5.456   6.104 -0.1077 -0.0561 -0.8362
  140OSM   H13A15260   5.236   5.526   6.026  0.7951 -1.2719 -1.6533
  140OSM   H13B15261   5.285   5.379   6.109  0.5645  0.5874  3.8449
  140OSM   H13C15262   5.225   5.505   6.199  1.3086 -1.0036 -0.5447
  140OSM    C1215263   5.049   5.338   6.250  0.2069 -0.1856  0.3673
  140OSM   H12A15264   5.128   5.268   6.273  1.0708  0.4444 -0.5458
  140OSM   H12B15265   4.957   5.283   6.248 -0.0801  0.2880  0.3710
  140OSM    C1115266   5.056   5.432   6.367  0.4663  0.5817 -0.3263
  140OSM   H11A15267   5.027   5.370   6.454 -0.3615  1.2598 -0.0982
  140OSM   H11B15268   4.979   5.509   6.345  1.2825  1.3034 -0.7677
  140OSM      P15269   5.291   5.443   6.465 -0.3558 -0.3813 -0.0192
  140OSM    O1315270   5.321   5.302   6.425  0.2262  0.0185  0.5572
  140OSM    O1415271   5.400   5.546   6.469 -0.0804  0.8720 -0.2166
  140OSM    O1115272   5.215   5.442   6.604 -0.3217 -0.5316  0.1238
  140OSM    O1215273   5.178   5.501   6.375  0.0702 -0.0395  0.2468
  140OSM    C1S15274   5.215   5.563   6.683  0.4057 -0.3549  0.6256
  140OSM    H1S15275   5.157   5.643   6.632  0.4394 -1.2367 -0.8444
  140OSM    H1T15276   5.319   5.599   6.693  0.9494 -1.5604 -0.3487
  140OSM     NF15277   5.194   5.697   6.893  0.3516  0.9630 -0.3861
  140OSM    HNF15278   5.281   5.697   6.941 -0.8673  1.1882  2.0193
  140OSM    C2S15279   5.172   5.562   6.828  0.1211  0.1646 -0.2747
  140OSM    H2S15280   5.063   5.543   6.823  0.3274 -2.2951  2.1390
  140OSM    C3S15281   5.239   5.448   6.902 -1.2196 -0.1724  0.7974
  140OSM    H3S15282   5.349   5.461   6.910 -0.7459 -3.5177  1.0228
  140OSM     O315283   5.223   5.319   6.849 -0.1487  0.4243 -0.2033
  140OSM    HO315284   5.206   5.340   6.757 -0.7773  0.8475 -0.0000
  140OSM    C4S15285   5.195   5.448   7.048 -0.5123  0.3752  1.0259
  140OSM    H4S15286   5.087   5.428   7.055 -0.8157  1.7645  0.4703
  140OSM    C5S15287   5.263   5.498   7.151  0.0277  0.3716 -0.3762
  140OSM    H5S15288   5.355   5.553   7.129  0.0558  1.3746  1.9244
  140OSM    C6S15289   5.207   5.521   7.293 -0.6134  0.6972  0.4163
  140OSM    H6S15290   5.246   5.435   7.352  3.6422  1.0431 -1.4733
  140OSM    H6T15291   5.097   5.535   7.297 -0.8407 -0.7421 -0.2485
  140OSM    C7S15292   5.247   5.646   7.354 -0.0926  0.0838 -0.2837
  140OSM    H7S15293   5.246   5.729   7.280  0.5816 -0.2072 -0.6291
  140OSM    H7T15294   5.344   5.645   7.408 -0.9954  0.2364  1.3867
  140OSM    C8S15295   5.159   5.691   7.481 -0.1229  0.1052  0.8021
  140OSM    H8S15296   5.062   5.706   7.429  0.7470 -1.4110 -1.3895
  140OSM    H8T15297   5.198   5.790   7.513 -0.6733  1.2032 -1.6977
  140OSM    C9S15298   5.164   5.592   7.596 -0.3337 -0.2914  0.3912
  140OSM    H9S15299   5.109   5.506   7.553 -1.7157  0.9990 -0.5177
  140OSM    H9T15300   5.097   5.633   7.675 -0.2210 -0.5728  0.6340
  140OSM   C10S15301   5.301   5.574   7.655  0.1790  0.3123 -0.3588
  140OSM   H10S15302   5.374   5.556   7.574  1.2914 -0.7022  0.8149
  140OSM   H10T15303   5.316   5.486   7.722  1.5890  1.4743  0.9148
  140OSM   C11S15304   5.362   5.696   7.731 -0.5424  0.0899  0.0770
  140OSM   H11S15305   5.296   5.735   7.812 -0.2185  0.6475  0.0790
  140OSM   H11T15306   5.362   5.765   7.644  0.3591 -1.0943 -0.8941
  140OSM   C12S15307   5.507   5.658   7.780 -0.2350 -0.2514 -0.0410
  140OSM   H12S15308   5.573   5.611   7.704  0.2419 -2.0643  1.4350
  140OSM   H12T15309   5.499   5.575   7.852  3.6880 -0.9839 -0.2265
  140OSM   C13S15310   5.572   5.778   7.847  0.5100 -0.2416 -0.0684
  140OSM   H13S15311   5.524   5.818   7.939  1.6526  0.3129  0.3040
  140OSM   H13T15312   5.573   5.868   7.782 -1.0347 -1.0387 -1.2746
  140OSM   C14S15313   5.709   5.747   7.902 -0.7448  0.0848  0.1989
  140OSM   H14S15314   5.775   5.713   7.820 -0.2377 -0.0249  0.6454
  140OSM   H14T15315   5.706   5.664   7.975  0.2840 -0.2270 -0.1079
  140OSM   C15S15316   5.773   5.878   7.954  0.2072 -0.0428  0.7581
  140OSM   H15S15317   5.773   5.951   7.870  0.8891 -0.3098  0.5183
  140OSM   H15T15318   5.878   5.861   7.984 -0.1161  1.3057  2.9062
  140OSM   C16S15319   5.711   5.945   8.077 -0.3422 -1.3502 -0.5097
  140OSM   H16S15320   5.615   5.998   8.059  0.2487  0.7677  2.0364
  140OSM   H16T15321   5.780   6.022   8.116 -0.4743 -2.2498  1.6099
  140OSM   C17S15322   5.694   5.851   8.199 -0.4577  0.7441 -0.2872
  140OSM   H17S15323   5.790   5.816   8.242 -2.0373 -0.7356  2.2808
  140OSM   H17T15324   5.649   5.756   8.162  1.2741  0.6713 -2.4659
  140OSM   C18S15325   5.608   5.912   8.309 -0.3751 -0.2173 -0.1094
  140OSM   H18S15326   5.668   5.996   8.348  0.0944 -0.7303  0.2754
  140OSM   H18T15327   5.597   5.834   8.387 -0.1549 -0.4507 -0.3086
  140OSM   H18U15328   5.506   5.938   8.273 -0.8001 -1.5226  0.0875
  140OSM    C1F15329   5.122   5.810   6.864  0.1202  0.2547  0.9801
  140OSM     OF15330   5.022   5.802   6.792 -0.1321 -0.4567  0.2955
  140OSM    C2F15331   5.178   5.937   6.918  0.4273 -0.4147 -0.2139
  140OSM    H2F15332   5.103   6.016   6.898  0.5794 -0.4727 -1.0753
  140OSM    H2G15333   5.271   5.966   6.865  1.0280 -1.2870  0.3309
  140OSM    C3F15334   5.205   5.933   7.075  0.6298 -0.0923  0.6657
  140OSM    H3F15335   5.269   5.845   7.102 -0.4745 -1.6543 -1.4739
  140OSM    H3G15336   5.106   5.915   7.121  0.0772  1.1566  0.0205
  140OSM    C4F15337   5.255   6.063   7.132 -0.3231 -0.3793  0.3953
  140OSM    H4F15338   5.204   6.147   7.081  0.5329 -1.5273 -2.5880
  140OSM    H4G15339   5.361   6.083   7.106 -0.1991 -1.6751 -0.2126
  140OSM    C5F15340   5.245   6.098   7.279  0.3922  0.6437  0.1067
  140OSM    H5F15341   5.315   6.037   7.340  0.7262  0.9088 -0.0072
  140OSM    H5G15342   5.145   6.065   7.315 -0.3985  2.8604  0.0614
  140OSM    C6F15343   5.259   6.242   7.308  0.1271 -0.5729  0.0456
  140OSM    H6F15344   5.269   6.256   7.418 -2.6443 -0.2245  0.3149
  140OSM    H6G15345   5.173   6.306   7.280 -1.6762 -2.6282  0.5715
  140OSM    C7F15346   5.384   6.302   7.242  0.5789  0.2385  0.4946
  140OSM    H7F15347   5.375   6.292   7.131 -1.1376  0.5626  0.5892
  140OSM    H7G15348   5.481   6.253   7.267  0.2657 -0.7253 -0.1410
  140OSM    C8F15349   5.423   6.445   7.278  0.1166 -0.7024  0.3136
  140OSM    H8F15350   5.521   6.472   7.234  0.6948 -0.9491  1.4193
  140OSM    H8G15351   5.426   6.448   7.389 -3.6608 -2.4941  0.6252
  140OSM    C9F15352   5.321   6.543   7.217 -0.2295  0.3319  0.1802
  140OSM    H9F15353   5.320   6.556   7.108  0.5219  1.1669  0.2585
  140OSM   C10F15354   5.228   6.616   7.285 -0.2243 -0.5380 -0.3584
  140OSM   H10F15355   5.147   6.668   7.231 -1.4249 -2.5782 -0.6511
  140OSM   C11F15356   5.213   6.627   7.438 -0.1344 -0.2953  0.2351
  140OSM   H11F15357   5.296   6.580   7.494  0.2922  1.1801  0.8821
  140OSM   H11G15358   5.122   6.566   7.455 -0.2388  0.2662  1.7759
  140OSM   C12F15359   5.209   6.784   7.469  0.3390 -0.1167  0.1421
  140OSM   H12F15360   5.179   6.786   7.576  0.9523 -0.0611  0.3172
  140OSM   H12G15361   5.120   6.819   7.413  0.2086 -1.2170 -0.3517
  140OSM   C13F15362   5.341   6.857   7.441  0.2228  0.1495 -0.3102
  140OSM   H13F15363   5.382   6.828   7.342  0.7123 -1.2071  0.2704
  140OSM   H13G15364   5.418   6.823   7.514  0.6067  1.1153 -0.2483
  140OSM   C14F15365   5.337   7.007   7.449 -1.2465 -0.1966 -0.8538
  140OSM   H14F15366   5.316   7.043   7.552  1.0299 -2.4183  0.5270
  140OSM   H14G15367   5.248   7.036   7.389 -3.1505 -1.9234  0.9613
  140OSM   C15F15368   5.470   7.076   7.405  0.5524 -0.1775 -0.2182
  140OSM   H15F15369   5.438   7.181   7.385 -0.9012 -0.7369 -1.0169
  140OSM   H15G15370   5.502   7.050   7.302 -0.9441 -0.9954 -0.5160
  140OSM   C16F15371   5.584   7.081   7.508 -0.9295 -0.9423  0.4081
  140OSM   H16F15372   5.622   6.978   7.524  1.3693 -0.0416  1.1839
  140OSM   H16G15373   5.539   7.108   7.606  2.0240  0.2534  1.5680
  140OSM   C17F15374   5.705   7.165   7.474 -0.0485 -0.3756  0.2834
  140OSM   H17F15375   5.777   7.166   7.559 -1.7526  4.3291  2.0157
  140OSM   H17G15376   5.671   7.270   7.470  0.1402 -0.3403 -0.4599
  140OSM   C18F15377   5.773   7.125   7.345  0.2219  0.5764 -0.1424
  140OSM   H18F15378   5.806   7.020   7.363  2.1838  0.7337 -2.2560
  140OSM   H18G15379   5.856   7.191   7.311 -0.7698  1.8054 -0.2266
  140OSM   H18H15380   5.701   7.116   7.261  0.1719 -1.1022  0.0433
  141OSM      N15381   3.972   1.576   6.156  0.5793 -0.3951 -0.0869
  141OSM    C1515382   3.977   1.435   6.199  0.5574 -0.4490 -0.4758
  141OSM   H15A15383   4.075   1.410   6.236 -0.2401  0.2659  2.3975
  141OSM   H15B15384   3.947   1.369   6.119 -0.5519 -0.9080  0.3003
  141OSM   H15C15385   3.912   1.416   6.283  1.2605  0.7548  0.3727
  141OSM    C1415386   4.063   1.590   6.031 -0.0096 -0.4296 -0.0003
  141OSM   H14A15387   4.053   1.695   6.010  2.3416 -0.3928 -1.2161
  141OSM   H14B15388   4.014   1.535   5.951 -0.3146  1.5174 -1.2240
  141OSM   H14C15389   4.163   1.562   6.059 -0.0872 -0.9977 -0.2575
  141OSM    C1315390   3.837   1.622   6.119  0.7565  0.2642  0.7362
  141OSM   H13A15391   3.847   1.720   6.076  1.9681 -0.1967 -0.0960
  141OSM   H13B15392   3.755   1.626   6.189 -1.2514 -0.8994 -1.4005
  141OSM   H13C15393   3.792   1.558   6.045 -3.7430  1.5479  2.0860
  141OSM    C1215394   4.031   1.664   6.266  0.3161 -0.1684 -0.2400
  141OSM   H12A15395   3.961   1.684   6.346  1.3772  1.2454  0.3701
  141OSM   H12B15396   4.046   1.763   6.226  2.4938 -0.4514 -0.2335
  141OSM    C1115397   4.159   1.609   6.328 -0.1185  0.1530  0.3040
  141OSM   H11A15398   4.126   1.527   6.395  0.0543 -0.7635 -0.7121
  141OSM   H11B15399   4.194   1.688   6.398  0.8329  2.9582 -3.0729
  141OSM      P15400   4.375   1.468   6.282  0.4062 -0.0819 -0.3329
  141OSM    O1315401   4.354   1.329   6.235  0.0206 -0.4597 -0.2378
  141OSM    O1415402   4.490   1.548   6.236  0.0132  0.5582  0.5135
  141OSM    O1115403   4.366   1.484   6.444 -0.3982  0.3236 -0.0614
  141OSM    O1215404   4.255   1.559   6.232  0.1963 -0.0649 -0.0586
  141OSM    C1S15405   4.447   1.396   6.523 -0.2047 -0.0363  0.1009
  141OSM    H1S15406   4.551   1.436   6.518  0.2974 -1.2018  0.7289
  141OSM    H1T15407   4.461   1.296   6.479 -1.0445 -1.8311  3.5614
  141OSM     NF15408   4.516   1.337   6.752  0.8474 -0.3674 -0.2240
  141OSM    HNF15409   4.508   1.242   6.780 -1.3447 -0.4783 -1.0423
  141OSM    C2S15410   4.406   1.387   6.669 -0.8161  0.0220 -0.0078
  141OSM    H2S15411   4.375   1.488   6.704  0.9383 -0.0779  2.0136
  141OSM    C3S15412   4.282   1.291   6.660  0.3451 -0.2054 -0.2470
  141OSM    H3S15413   4.309   1.198   6.606  0.7519  0.3537 -1.0291
  141OSM     O315414   4.171   1.343   6.579 -0.2672  0.7608 -0.2741
  141OSM    HO315415   4.216   1.414   6.533 -0.4431  1.3595  0.4670
  141OSM    C4S15416   4.223   1.268   6.787  0.4185 -0.2309 -0.8190
  141OSM    H4S15417   4.159   1.349   6.827 -0.6704 -0.7800 -1.3912
  141OSM    C5S15418   4.224   1.161   6.861  0.0875 -0.0082  0.0157
  141OSM    H5S15419   4.281   1.070   6.840  1.8842  0.5238  2.1447
  141OSM    C6S15420   4.151   1.148   6.994 -0.3741 -0.8374  0.3581
  141OSM    H6S15421   4.052   1.101   6.979  0.3061 -2.1360 -0.2242
  141OSM    H6T15422   4.139   1.242   7.051 -0.3364 -2.5007  3.2922
  141OSM    C7S15423   4.236   1.056   7.093  0.6082  0.8487 -0.3654
  141OSM    H7S15424   4.340   1.091   7.108  0.9884 -0.5101  0.3317
  141OSM    H7T15425   4.251   0.959   7.040 -0.0265 -2.1865  4.4282
  141OSM    C8S15426   4.155   1.026   7.220  0.8952  0.0298  0.1424
  141OSM    H8S15427   4.066   0.970   7.186  0.6951  0.7281 -0.5243
  141OSM    H8T15428   4.131   1.124   7.268  1.4216  0.4947 -0.5187
  141OSM    C9S15429   4.213   0.930   7.320  0.3676 -0.1744  0.0838
  141OSM    H9S15430   4.312   0.957   7.362  0.1773 -0.4461  0.7125
  141OSM    H9T15431   4.224   0.828   7.276 -0.8331 -1.3606  2.3759
  141OSM   C10S15432   4.119   0.929   7.447  0.6431 -0.0292 -0.2478
  141OSM   H10S15433   4.015   0.892   7.432  0.5788 -0.1003  0.3268
  141OSM   H10T15434   4.099   1.032   7.486  0.2883 -0.3098  0.3255
  141OSM   C11S15435   4.183   0.848   7.551 -0.7078  0.1000  0.4380
  141OSM   H11S15436   4.290   0.876   7.557 -0.6035 -0.1349 -0.2732
  141OSM   H11T15437   4.187   0.739   7.530 -0.2149 -0.1723  1.8433
  141OSM   C12S15438   4.115   0.861   7.691  0.1119  0.1806 -0.5603
  141OSM   H12S15439   4.007   0.834   7.691  0.6253 -2.4922  2.5749
  141OSM   H12T15440   4.119   0.968   7.723  1.2456  0.3820 -1.3029
  141OSM   C13S15441   4.183   0.765   7.797 -0.3662 -0.3838 -0.2520
  141OSM   H13S15442   4.271   0.817   7.842 -0.7136  0.7530 -0.8340
  141OSM   H13T15443   4.198   0.667   7.747 -2.5477  0.0731 -1.9759
  141OSM   C14S15444   4.089   0.747   7.910 -0.3695  0.6237  0.3603
  141OSM   H14S15445   3.994   0.692   7.889  0.7217 -1.3547  0.3291
  141OSM   H14T15446   4.068   0.848   7.952 -0.5963 -0.5868  3.4659
  141OSM   C15S15447   4.150   0.674   8.035 -0.6257  0.3067 -0.3890
  141OSM   H15S15448   4.260   0.688   8.030 -0.2955 -1.5974  0.6371
  141OSM   H15T15449   4.123   0.568   8.018  0.4442 -0.0729  0.2212
  141OSM   C16S15450   4.091   0.726   8.170 -0.6967  0.3042  0.0178
  141OSM   H16S15451   3.989   0.681   8.173  0.0578 -1.4808 -0.0765
  141OSM   H16T15452   4.092   0.837   8.165 -1.9682  0.3472  0.3808
  141OSM   C17S15453   4.166   0.690   8.300  0.0195 -0.7393  0.2646
  141OSM   H17S15454   4.269   0.726   8.277 -1.0479  1.7983 -0.8744
  141OSM   H17T15455   4.172   0.579   8.308  1.7623 -0.7227 -0.3265
  141OSM   C18S15456   4.110   0.751   8.427  0.2792 -0.9995  0.4566
  141OSM   H18S15457   4.185   0.718   8.502  0.0795 -2.5042  0.0409
  141OSM   H18T15458   4.014   0.700   8.449 -1.6049  1.4726 -1.4653
  141OSM   H18U15459   4.104   0.861   8.417 -1.1785 -1.0860  0.1445
  141OSM    C1F15460   4.614   1.416   6.795  0.5496 -0.0892 -0.7880
  141OSM     OF15461   4.620   1.535   6.756 -0.3180 -0.3676 -0.2515
  141OSM    C2F15462   4.705   1.353   6.887  0.3529 -0.4131  0.0700
  141OSM    H2F15463   4.768   1.277   6.837  3.2650  2.0056 -0.2729
  141OSM    H2G15464   4.652   1.309   6.974 -2.5475  0.5962 -1.0822
  141OSM    C3F15465   4.800   1.456   6.958  0.2039 -0.0049  0.2987
  141OSM    H3F15466   4.740   1.535   7.008 -1.2359 -0.5662 -0.4918
  141OSM    H3G15467   4.852   1.503   6.873 -2.5708  0.5314 -1.2001
  141OSM    C4F15468   4.908   1.391   7.050 -0.8218  0.1573 -0.9400
  141OSM    H4F15469   4.998   1.456   7.045  0.0769 -1.1054 -1.7942
  141OSM    H4G15470   4.936   1.289   7.017  0.2413 -0.2907  1.1937
  141OSM    C5F15471   4.853   1.371   7.185  0.2900 -0.9843  0.9469
  141OSM    H5F15472   4.758   1.314   7.174 -1.3283  1.8587 -0.9687
  141OSM    H5G15473   4.835   1.472   7.227 -0.3247 -0.7779  0.2241
  141OSM    C6F15474   4.950   1.304   7.279  0.3410  0.3988 -0.2035
  141OSM    H6F15475   5.043   1.362   7.293  1.8802 -2.0787  0.5286
  141OSM    H6G15476   4.979   1.204   7.241 -1.3534 -0.1912 -0.0071
  141OSM    C7F15477   4.880   1.283   7.416  0.2577 -0.2491  0.3178
  141OSM    H7F15478   4.943   1.212   7.474 -0.5560 -0.1510  1.3341
  141OSM    H7G15479   4.787   1.225   7.398 -0.4623  1.2157 -0.8772
  141OSM    C8F15480   4.840   1.414   7.485  0.1847  0.6363 -0.9292
  141OSM    H8F15481   4.773   1.377   7.566 -0.7959  1.6244 -1.2706
  141OSM    H8G15482   4.773   1.477   7.423 -1.2567 -0.1219 -0.1974
  141OSM    C9F15483   4.954   1.493   7.535 -0.4309  0.2643 -0.5953
  141OSM    H9F15484   5.022   1.533   7.459  2.0647 -2.6608 -0.0948
  141OSM   C10F15485   4.978   1.517   7.672  0.5593 -0.1787  0.0161
  141OSM   H10F15486   5.064   1.577   7.702  1.0305  0.6517 -2.6646
  141OSM   C11F15487   4.896   1.476   7.785 -0.2535 -0.9804 -0.4481
  141OSM   H11F15488   4.818   1.400   7.766  1.7816 -3.3672  0.2700
  141OSM   H11G15489   4.844   1.569   7.818 -1.4620 -0.3454 -3.8186
  141OSM   C12F15490   4.972   1.434   7.912  0.2237  0.6363  0.1378
  141OSM   H12F15491   5.025   1.523   7.954  2.5278 -0.5477 -0.1390
  141OSM   H12G15492   5.051   1.357   7.900 -0.6819 -0.3295  0.2446
  141OSM   C13F15493   4.879   1.364   8.012 -0.3724 -0.6965 -0.6392
  141OSM   H13F15494   4.841   1.269   7.969 -0.0346 -0.1098 -2.3001
  141OSM   H13G15495   4.780   1.414   8.028 -0.3815 -1.3903  1.9147
  141OSM   C14F15496   4.949   1.352   8.142  0.0329  0.0697  0.0428
  141OSM   H14F15497   4.963   1.451   8.190  1.2109  0.4653 -1.0392
  141OSM   H14G15498   5.048   1.301   8.137 -0.0591 -0.0759 -0.3540
  141OSM   C15F15499   4.857   1.260   8.223 -1.0367 -0.1041 -1.1849
  141OSM   H15F15500   4.853   1.163   8.170  1.7628 -2.9592  3.2003
  141OSM   H15G15501   4.752   1.291   8.238 -0.5230  0.6504  1.4183
  141OSM   C16F15502   4.916   1.212   8.357  0.7230 -0.9534 -0.6912
  141OSM   H16F15503   4.927   1.304   8.418 -0.8654  1.1700 -3.3793
  141OSM   H16G15504   5.012   1.157   8.350  0.7303 -1.0340 -0.0471
  141OSM   C17F15505   4.818   1.113   8.429  0.3469  0.2549  0.3411
  141OSM   H17F15506   4.791   1.029   8.361 -0.5496  0.8534 -0.0643
  141OSM   H17G15507   4.720   1.166   8.435 -0.4765 -1.1796  0.1636
  141OSM   C18F15508   4.854   1.045   8.559 -0.5759  0.3867 -0.8830
  141OSM   H18F15509   4.940   0.976   8.544  1.1363  2.5626 -1.7646
  141OSM   H18G15510   4.770   0.988   8.603 -0.2450  0.0375 -0.6998
  141OSM   H18H15511   4.901   1.116   8.631 -1.4156 -1.6592  1.8695
  142OSM      N15512   4.862   3.398   6.052  0.1685 -0.1603 -0.7443
  142OSM    C1515513   4.938   3.519   6.108  0.5852  0.1933 -0.1522
  142OSM   H15A15514   4.947   3.511   6.216 -0.8722 -2.9261 -0.1733
  142OSM   H15B15515   4.880   3.609   6.091  2.2950  1.8193  1.9987
  142OSM   H15C15516   5.043   3.522   6.083  1.1891  0.1541  2.1270
  142OSM    C1415517   4.863   3.404   5.902 -0.3769  0.1173 -0.1502
  142OSM   H14A15518   4.960   3.392   5.857  0.8289  3.2716  1.2792
  142OSM   H14B15519   4.824   3.499   5.869  1.7657  0.4324 -1.9919
  142OSM   H14C15520   4.788   3.338   5.861 -1.5860  0.4759  1.3593
  142OSM    C1315521   4.948   3.275   6.076 -0.1814  0.6030 -0.4801
  142OSM   H13A15522   4.952   3.239   6.178  2.5019 -1.0885 -1.0892
  142OSM   H13B15523   5.049   3.277   6.038  0.3954  1.3301  1.0037
  142OSM   H13C15524   4.897   3.195   6.024 -0.7752  0.3861  0.4183
  142OSM    C1215525   4.729   3.375   6.113 -0.4055 -0.0165  0.1008
  142OSM   H12A15526   4.691   3.278   6.085 -2.4438  1.0215 -0.9318
  142OSM   H12B15527   4.663   3.449   6.068  1.2339  2.7767  1.9565
  142OSM    C1115528   4.724   3.375   6.266  0.1445 -0.0709 -0.2889
  142OSM   H11A15529   4.619   3.356   6.296  0.0555 -0.1306 -0.6324
  142OSM   H11B15530   4.764   3.476   6.289 -1.5123 -0.0816  3.2458
  142OSM      P15531   4.911   3.310   6.429 -0.0805  0.1042  0.0285
  142OSM    O1315532   4.998   3.189   6.440  0.1101 -0.0238  0.1296
  142OSM    O1415533   4.978   3.447   6.413  0.0940 -0.3494 -0.0193
  142OSM    O1115534   4.819   3.318   6.553  0.5053 -0.8860  0.0192
  142OSM    O1215535   4.804   3.269   6.314 -0.1689  0.2519 -0.2714
  142OSM    C1S15536   4.716   3.220   6.581  0.1013 -0.5595 -0.4409
  142OSM    H1S15537   4.768   3.132   6.626 -0.3202 -1.4361 -1.6369
  142OSM    H1T15538   4.669   3.183   6.488  1.5754 -1.1454 -0.9864
  142OSM     NF15539   4.516   3.143   6.693  0.2811 -0.3787 -0.3117
  142OSM    HNF15540   4.440   3.141   6.629 -1.0821  1.3713  1.1628
  142OSM    C2S15541   4.608   3.264   6.684  0.4459  0.2070  0.1548
  142OSM    H2S15542   4.650   3.299   6.781  2.7645 -0.0868 -0.6853
  142OSM    C3S15543   4.535   3.387   6.622 -0.8254 -0.7342  0.1868
  142OSM    H3S15544   4.489   3.359   6.525  1.6757 -2.4554 -0.5976
  142OSM     O315545   4.616   3.499   6.590 -0.0940 -0.3895  0.3926
  142OSM    HO315546   4.707   3.469   6.589  0.6432  1.5945  1.3146
  142OSM    C4S15547   4.415   3.446   6.708  0.5485 -0.4058  0.3836
  142OSM    H4S15548   4.324   3.391   6.680  0.5003 -0.1359  0.0144
  142OSM    C5S15549   4.413   3.539   6.804 -0.2917 -0.2608  0.4105
  142OSM    H5S15550   4.511   3.581   6.830  0.3894 -0.4781 -1.6646
  142OSM    C6S15551   4.298   3.591   6.881  0.1740 -0.0387 -0.6230
  142OSM    H6S15552   4.201   3.579   6.830  0.9376 -0.2768 -2.0649
  142OSM    H6T15553   4.312   3.700   6.894  0.7453  0.0404 -1.7642
  142OSM    C7S15554   4.298   3.538   7.029 -0.0198  0.1077 -0.4890
  142OSM    H7S15555   4.273   3.432   7.008 -1.1558  0.1751  0.4379
  142OSM    H7T15556   4.219   3.587   7.090 -1.1729 -0.0363 -1.8129
  142OSM    C8S15557   4.430   3.558   7.113  0.6073 -0.4728  0.2847
  142OSM    H8S15558   4.479   3.657   7.094  0.3217  0.0204  1.9767
  142OSM    H8T15559   4.498   3.477   7.079 -1.2737 -1.1531 -2.1319
  142OSM    C9S15560   4.402   3.553   7.273 -0.1565  0.0642 -0.0896
  142OSM    H9S15561   4.371   3.453   7.309  0.5015 -0.4794 -0.9807
  142OSM    H9T15562   4.317   3.619   7.302 -2.0486 -1.1154 -2.5311
  142OSM   C10S15563   4.525   3.584   7.352 -0.1442  0.4443  0.5966
  142OSM   H10S15564   4.575   3.663   7.292 -2.8410  0.8450 -1.3229
  142OSM   H10T15565   4.587   3.493   7.364 -1.5956 -0.5600  0.7066
  142OSM   C11S15566   4.507   3.623   7.499 -0.2241 -1.2290 -0.0651
  142OSM   H11S15567   4.466   3.538   7.559  0.4462 -0.7885  1.0324
  142OSM   H11T15568   4.423   3.696   7.502  0.0222 -0.9032 -0.8658
  142OSM   C12S15569   4.636   3.676   7.567  0.7015  0.2727 -0.3894
  142OSM   H12S15570   4.690   3.747   7.501  0.1492  0.9160 -0.1638
  142OSM   H12T15571   4.709   3.596   7.592 -2.0191 -2.3824 -0.3820
  142OSM   C13S15572   4.597   3.755   7.698 -0.3780 -0.2910 -0.2029
  142OSM   H13S15573   4.559   3.686   7.777  3.1854 -2.5492 -0.2315
  142OSM   H13T15574   4.518   3.830   7.676 -1.0701 -0.8065  0.4342
  142OSM   C14S15575   4.717   3.824   7.755  0.4837  0.0763  0.1530
  142OSM   H14S15576   4.728   3.930   7.726 -0.6962  1.1190  3.1317
  142OSM   H14T15577   4.806   3.766   7.722 -0.1367 -0.9006  0.1481
  142OSM   C15S15578   4.708   3.833   7.907 -0.3017  0.0082  0.1540
  142OSM   H15S15579   4.697   3.729   7.943 -0.0427 -1.5475 -3.7561
  142OSM   H15T15580   4.614   3.890   7.923 -0.1508  0.2041  0.3519
  142OSM   C16S15581   4.828   3.909   7.963  0.0449  0.7416 -0.0102
  142OSM   H16S15582   4.831   4.010   7.917 -0.9537  0.2640 -1.1681
  142OSM   H16T15583   4.926   3.864   7.935  0.8071  2.4542 -0.2279
  142OSM   C17S15584   4.817   3.928   8.121  0.6277  0.0760  0.6696
  142OSM   H17S15585   4.734   3.998   8.141  1.2386 -0.0990  4.4076
  142OSM   H17T15586   4.918   3.971   8.139  0.9928 -1.5478  2.9191
  142OSM   C18S15587   4.784   3.798   8.199  0.0553 -0.7170  0.1380
  142OSM   H18S15588   4.681   3.760   8.180 -1.9505  4.0523 -0.1852
  142OSM   H18T15589   4.787   3.830   8.305 -1.0951  1.7842 -0.5054
  142OSM   H18U15590   4.864   3.725   8.176  1.7272  1.9333 -3.4266
  142OSM    C1F15591   4.537   3.040   6.775  0.4280  0.3170 -0.1769
  142OSM     OF15592   4.642   3.026   6.835 -0.2163  0.3709 -0.5712
  142OSM    C2F15593   4.423   2.938   6.780  0.2150 -0.3296 -0.1524
  142OSM    H2F15594   4.426   2.898   6.677 -2.9206  0.1136 -0.5123
  142OSM    H2G15595   4.324   2.984   6.801  0.2177  1.2225 -3.0735
  142OSM    C3F15596   4.451   2.819   6.871 -0.0504 -0.1044  0.0387
  142OSM    H3F15597   4.555   2.781   6.861 -0.5792 -1.5975 -0.0560
  142OSM    H3G15598   4.380   2.734   6.862  3.3993 -3.4024  1.4658
  142OSM    C4F15599   4.446   2.861   7.017 -0.5235 -0.6284 -0.4809
  142OSM    H4F15600   4.344   2.896   7.044 -0.5774 -0.0026 -1.4521
  142OSM    H4G15601   4.517   2.945   7.030 -1.2837 -0.0165 -0.2268
  142OSM    C5F15602   4.479   2.743   7.121 -0.3505  0.4119 -0.2635
  142OSM    H5F15603   4.590   2.751   7.119 -0.2044 -1.1447  0.3487
  142OSM    H5G15604   4.451   2.641   7.086 -1.4642  1.6179 -3.3307
  142OSM    C6F15605   4.434   2.763   7.266 -0.2188 -1.1245 -0.3984
  142OSM    H6F15606   4.327   2.735   7.267 -0.8571  0.7638  3.2109
  142OSM    H6G15607   4.440   2.867   7.304 -1.0809 -1.0843 -0.3510
  142OSM    C7F15608   4.521   2.674   7.358 -0.8265  0.0625 -0.6502
  142OSM    H7F15609   4.629   2.694   7.343 -0.6739  0.6153  1.0117
  142OSM    H7G15610   4.514   2.566   7.332  0.9924  0.2868 -2.3372
  142OSM    C8F15611   4.478   2.680   7.507 -0.7073 -0.2407  0.1156
  142OSM    H8F15612   4.367   2.682   7.514 -0.7182  2.3446  0.2062
  142OSM    H8G15613   4.517   2.778   7.544 -1.2340  0.7454 -1.7984
  142OSM    C9F15614   4.541   2.571   7.585 -0.0714  0.3562  0.0235
  142OSM    H9F15615   4.612   2.513   7.525 -0.1803  1.4493 -1.1992
  142OSM   C10F15616   4.532   2.522   7.714  0.0305 -0.2429 -0.9150
  142OSM   H10F15617   4.586   2.431   7.744 -0.6704 -0.0817  0.8974
  142OSM   C11F15618   4.454   2.595   7.824  0.2982  0.8280 -0.3739
  142OSM   H11F15619   4.358   2.541   7.840  0.6813  0.4349  0.6517
  142OSM   H11G15620   4.416   2.694   7.790  2.5553  1.3959 -1.4104
  142OSM   C12F15621   4.511   2.591   7.968  0.3374  0.5371 -0.6061
  142OSM   H12F15622   4.431   2.600   8.045  0.9831 -0.4367  0.2223
  142OSM   H12G15623   4.582   2.676   7.973 -0.4507  1.1687  0.2268
  142OSM   C13F15624   4.596   2.469   8.002  0.3150 -0.0988  0.0734
  142OSM   H13F15625   4.689   2.473   7.941 -0.0844  1.2314 -0.4949
  142OSM   H13G15626   4.527   2.383   7.987  0.4904  0.1327 -2.4859
  142OSM   C14F15627   4.642   2.479   8.145  0.1887 -0.2459 -0.4034
  142OSM   H14F15628   4.555   2.475   8.215  0.3624 -1.7816 -0.2442
  142OSM   H14G15629   4.688   2.580   8.158  0.2471 -0.2271 -0.7354
  142OSM   C15F15630   4.747   2.373   8.169  0.2842  0.2441  0.0288
  142OSM   H15F15631   4.832   2.393   8.100  1.6771  2.0127  2.1147
  142OSM   H15G15632   4.702   2.276   8.141 -1.0645  0.6611  0.6874
  142OSM   C16F15633   4.799   2.360   8.315 -0.4478 -0.1173 -0.0425
  142OSM   H16F15634   4.730   2.378   8.401  1.2895  0.1910  1.3489
  142OSM   H16G15635   4.886   2.428   8.328  2.0353 -3.3824  2.6309
  142OSM   C17F15636   4.874   2.228   8.327 -0.6652 -0.2676 -0.6637
  142OSM   H17F15637   4.803   2.143   8.318 -0.3110 -0.3614 -3.0219
  142OSM   H17G15638   4.914   2.216   8.430 -2.2401 -0.7352 -0.0877
  142OSM   C18F15639   4.987   2.206   8.221 -0.5878  0.0702  0.0450
  142OSM   H18F15640   5.032   2.303   8.191 -1.7499  1.0690  1.3557
  142OSM   H18G15641   4.941   2.164   8.129  0.1307  1.5426 -1.0267
  142OSM   H18H15642   5.071   2.141   8.252 -0.2839  0.3372 -0.2193
  143OSM      N15643   6.030   5.222   6.184 -0.0929 -0.1123  0.3286
  143OSM    C1515644   6.025   5.249   6.333  0.4016 -0.8343  0.4313
  143OSM   H15A15645   5.929   5.226   6.377  0.3734 -2.4166 -0.3619
  143OSM   H15B15646   6.036   5.355   6.350 -2.0188 -0.3453 -0.5632
  143OSM   H15C15647   6.104   5.191   6.379  0.2686 -0.2996  1.3532
  143OSM    C1415648   5.919   5.306   6.124 -0.3719 -0.4577 -0.7038
  143OSM   H14A15649   5.930   5.410   6.151 -1.5070 -0.1739 -1.2818
  143OSM   H14B15650   5.822   5.278   6.163 -0.3694  1.2357  0.5840
  143OSM   H14C15651   5.924   5.309   6.016  0.5815  0.2233 -0.6491
  143OSM    C1315652   6.164   5.265   6.131 -0.4389 -0.1275  0.0414
  143OSM   H13A15653   6.180   5.369   6.154  2.0052 -0.5227  0.4350
  143OSM   H13B15654   6.169   5.249   6.024  0.1164  2.5013 -0.4104
  143OSM   H13C15655   6.235   5.203   6.183  0.8097  0.6155 -0.7163
  143OSM    C1215656   6.024   5.069   6.157  0.0970  0.1286 -0.0170
  143OSM   H12A15657   6.008   5.061   6.050 -0.4938  2.3164 -0.1407
  143OSM   H12B15658   5.933   5.036   6.203 -0.2790 -0.8064 -1.3721
  143OSM    C1115659   6.135   4.975   6.216  0.3840 -0.4950  0.4303
  143OSM   H11A15660   6.104   4.868   6.219  2.2448 -1.0468  0.9354
  143OSM   H11B15661   6.148   5.007   6.321  2.2980 -3.2230  1.1493
  143OSM      P15662   6.389   4.913   6.196  0.2956 -0.0564  0.5751
  143OSM    O1315663   6.449   4.852   6.078  0.0161  0.3873 -0.5858
  143OSM    O1415664   6.469   5.001   6.280 -0.1985  0.0493  0.2204
  143OSM    O1115665   6.334   4.791   6.290 -0.2638 -0.3360 -0.0789
  143OSM    O1215666   6.266   4.993   6.155  0.2684 -0.4659  0.0110
  143OSM    C1S15667   6.435   4.705   6.357 -0.1001 -0.6134  0.1465
  143OSM    H1S15668   6.538   4.745   6.348  0.6304 -2.7270 -1.8799
  143OSM    H1T15669   6.430   4.607   6.304 -1.0756  0.6925 -2.3536
  143OSM     NF15670   6.530   4.639   6.574  0.7485  0.3863  0.1567
  143OSM    HNF15671   6.533   4.540   6.586 -3.0585  0.1333  0.4613
  143OSM    C2S15672   6.409   4.696   6.510 -0.1530 -0.2135 -0.0948
  143OSM    H2S15673   6.387   4.800   6.543 -0.8467 -0.4740  0.2664
  143OSM    C3S15674   6.275   4.619   6.528 -0.4306  0.1789  0.0552
  143OSM    H3S15675   6.298   4.515   6.497  0.8691  0.7509 -0.9970
  143OSM     O315676   6.170   4.659   6.451 -0.6879  0.5968  0.0709
  143OSM    HO315677   6.204   4.729   6.395 -0.9332  1.8593  1.4341
  143OSM    C4S15678   6.235   4.609   6.674  0.2305  0.1845  0.2489
  143OSM    H4S15679   6.250   4.701   6.733 -0.1918  0.6554 -0.3675
  143OSM    C5S15680   6.190   4.501   6.734 -0.4500  0.0344 -0.0418
  143OSM    H5S15681   6.162   4.414   6.674  0.8875 -0.6245  0.2450
  143OSM    C6S15682   6.145   4.483   6.880  0.0868 -0.0416  0.2576
  143OSM    H6S15683   6.069   4.402   6.876  0.5218 -0.4781  0.6753
  143OSM    H6T15684   6.097   4.569   6.931  0.4257  0.0520  0.4272
  143OSM    C7S15685   6.259   4.431   6.969  0.3013  0.1934  0.6490
  143OSM    H7S15686   6.338   4.508   6.963 -0.4242  1.0113  1.3306
  143OSM    H7T15687   6.288   4.335   6.922  2.0642  1.3285 -0.7014
  143OSM    C8S15688   6.212   4.411   7.110  1.0097  0.6209  0.3271
  143OSM    H8S15689   6.145   4.324   7.128 -1.5457  2.3371 -0.3400
  143OSM    H8T15690   6.141   4.490   7.141  1.2081  1.0313 -0.2363
  143OSM    C9S15691   6.337   4.435   7.196 -0.0346 -0.1088 -0.1584
  143OSM    H9S15692   6.369   4.536   7.162 -1.6153 -0.7602 -4.1341
  143OSM    H9T15693   6.398   4.347   7.169 -2.1253 -1.9356  0.7625
  143OSM   C10S15694   6.308   4.442   7.349 -0.1507  0.1825  0.3923
  143OSM   H10S15695   6.396   4.400   7.403 -0.3603 -4.1148 -2.1152
  143OSM   H10T15696   6.228   4.368   7.371  1.5351 -1.8342  0.0934
  143OSM   C11S15697   6.251   4.579   7.394 -1.2396 -0.4683  0.1742
  143OSM   H11S15698   6.189   4.613   7.308 -1.3171 -1.5889 -0.2187
  143OSM   H11T15699   6.343   4.641   7.399 -0.0819 -2.1910  1.0300
  143OSM   C12S15700   6.185   4.586   7.533 -0.7537  0.8369 -0.5604
  143OSM   H12S15701   6.084   4.540   7.533 -1.5955  2.4916  1.7325
  143OSM   H12T15702   6.178   4.693   7.563 -0.7108  1.0395 -1.2753
  143OSM   C13S15703   6.266   4.513   7.648  0.1801  0.0707 -0.4988
  143OSM   H13S15704   6.360   4.565   7.676  0.5029  0.0777 -1.5588
  143OSM   H13T15705   6.292   4.408   7.622  2.7935  0.9064 -1.6440
  143OSM   C14S15706   6.171   4.527   7.771 -0.2359 -0.0164 -0.5008
  143OSM   H14S15707   6.084   4.462   7.748 -0.1361 -0.4474  0.3092
  143OSM   H14T15708   6.131   4.631   7.776 -1.8236 -0.6833  2.2778
  143OSM   C15S15709   6.242   4.505   7.905  0.0036 -0.6400 -0.1163
  143OSM   H15S15710   6.298   4.593   7.942 -0.5458 -0.4279  0.2189
  143OSM   H15T15711   6.318   4.425   7.891  3.7652  2.8928 -1.9825
  143OSM   C16S15712   6.162   4.448   8.015 -0.6072 -0.3459  0.2544
  143OSM   H16S15713   6.054   4.469   7.998 -0.5317  0.4371  0.6802
  143OSM   H16T15714   6.190   4.500   8.109  1.7022 -0.6935 -0.1746
  143OSM   C17S15715   6.185   4.299   8.035  0.9705 -0.8043  0.2059
  143OSM   H17S15716   6.277   4.281   8.095  4.2225  0.5010 -3.9080
  143OSM   H17T15717   6.194   4.244   7.938 -3.0453 -1.1004 -0.1992
  143OSM   C18S15718   6.066   4.228   8.103 -0.4259  0.1964  0.2063
  143OSM   H18S15719   5.969   4.240   8.050 -0.1254 -0.6874 -0.5677
  143OSM   H18T15720   6.070   4.260   8.210 -3.3334  1.7346 -0.0501
  143OSM   H18U15721   6.096   4.121   8.101 -2.4496 -0.4373  1.0854
  143OSM    C1F15722   6.638   4.705   6.605 -0.1741  0.0292  0.3190
  143OSM     OF15723   6.645   4.825   6.581 -0.0993 -0.2942  0.0582
  143OSM    C2F15724   6.763   4.635   6.656 -0.0135  0.6846  0.8730
  143OSM    H2F15725   6.802   4.572   6.573 -0.8466  1.2727  0.0169
  143OSM    H2G15726   6.732   4.563   6.735 -1.1847  0.3288  0.1320
  143OSM    C3F15727   6.872   4.730   6.712 -0.3434  0.4746 -0.4298
  143OSM    H3F15728   6.841   4.760   6.814  0.1028  1.8179 -0.6696
  143OSM    H3G15729   6.882   4.822   6.650  2.7167  0.1868 -0.4895
  143OSM    C4F15730   7.010   4.675   6.721 -0.3523 -0.3142  1.3622
  143OSM    H4F15731   7.054   4.671   6.619  0.2722 -2.2744  1.6600
  143OSM    H4G15732   7.005   4.579   6.776  1.1092 -0.7986  0.6866
  143OSM    C5F15733   7.109   4.759   6.807 -0.4243 -0.3768  0.8141
  143OSM    H5F15734   7.128   4.852   6.750 -1.6008 -1.0324 -0.7306
  143OSM    H5G15735   7.201   4.697   6.816  0.5001  0.6235 -1.0379
  143OSM    C6F15736   7.062   4.804   6.942 -0.0004 -0.0832  0.0156
  143OSM    H6F15737   7.034   4.710   6.994 -0.4937  0.1247  0.1376
  143OSM    H6G15738   6.981   4.880   6.941  1.7638  1.8548 -0.5230
  143OSM    C7F15739   7.176   4.873   7.023 -0.5437 -0.3519  0.0194
  143OSM    H7F15740   7.203   4.967   6.970  4.0746 -0.9380  0.8824
  143OSM    H7G15741   7.267   4.809   7.011 -0.0431  0.0772  1.3618
  143OSM    C8F15742   7.149   4.904   7.177 -0.4167 -0.3356 -0.3633
  143OSM    H8F15743   7.237   4.961   7.213 -0.4212 -1.5598  1.7789
  143OSM    H8G15744   7.157   4.810   7.237  2.5574  0.6226  0.9348
  143OSM    C9F15745   7.023   4.977   7.210 -0.8010  0.0690  0.1168
  143OSM    H9F15746   6.976   5.039   7.132  0.4231  3.0978  1.6435
  143OSM   C10F15747   6.966   4.989   7.326 -0.2196  0.3407  0.1192
  143OSM   H10F15748   6.885   5.063   7.326  1.0438  1.8219  1.5470
  143OSM   C11F15749   6.989   4.931   7.467  0.1028 -0.5887  0.0352
  143OSM   H11F15750   7.075   4.861   7.454  0.8258 -0.0234  1.4933
  143OSM   H11G15751   6.897   4.878   7.498 -0.6628  0.4215 -0.4743
  143OSM   C12F15752   7.033   5.025   7.581  0.1820 -0.1223 -0.1193
  143OSM   H12F15753   6.951   5.097   7.601  0.4474  0.4592 -1.0206
  143OSM   H12G15754   7.119   5.089   7.548 -1.0346  0.4410 -2.4737
  143OSM   C13F15755   7.047   4.940   7.711 -0.1852  0.0847 -0.0726
  143OSM   H13F15756   7.136   4.875   7.703 -0.7503 -0.9934  1.7214
  143OSM   H13G15757   6.950   4.886   7.709  0.4871 -1.4085  2.4546
  143OSM   C14F15758   7.040   5.020   7.843  0.4922  0.4344  0.1332
  143OSM   H14F15759   6.940   5.067   7.827 -0.5094 -1.9852 -1.1853
  143OSM   H14G15760   7.116   5.099   7.863 -1.0867  1.3698  2.9645
  143OSM   C15F15761   7.036   4.921   7.962  0.8759 -0.1932 -0.0637
  143OSM   H15F15762   7.138   4.878   7.975  1.6364  1.6284  0.3124
  143OSM   H15G15763   6.966   4.840   7.933 -1.0160  1.8505 -1.4920
  143OSM   C16F15764   6.990   4.992   8.092 -0.6009 -0.1498  0.7756
  143OSM   H16F15765   6.944   4.922   8.164 -0.5643 -0.1449  0.8044
  143OSM   H16G15766   6.906   5.055   8.056 -0.5296 -2.0152 -3.1791
  143OSM   C17F15767   7.084   5.089   8.165 -1.2156 -0.3738  0.0286
  143OSM   H17F15768   7.102   5.179   8.103  1.2359 -2.2956 -2.2807
  143OSM   H17G15769   7.181   5.034   8.162 -1.1143 -0.1330 -1.3268
  143OSM   C18F15770   7.050   5.125   8.311 -0.0974  0.1636  0.6264
  143OSM   H18F15771   7.131   5.175   8.369 -0.5584  0.8252  0.7062
  143OSM   H18G15772   7.024   5.030   8.361 -0.6534 -1.0972 -1.9119
  143OSM   H18H15773   6.956   5.184   8.312 -0.6761 -0.7511  1.7441
  144OSM      N15774   5.424   4.484   6.478  0.7666 -0.7436 -0.2011
  144OSM    C1515775   5.486   4.347   6.449 -0.0463 -0.1496  0.7015
  144OSM   H15A15776   5.512   4.331   6.346 -1.3609  0.3514  0.2707
  144OSM   H15B15777   5.414   4.269   6.470 -0.4310 -1.1042 -3.3615
  144OSM   H15C15778   5.579   4.338   6.503 -0.5615 -1.0889  1.4630
  144OSM    C1415779   5.290   4.497   6.414  0.2998  0.5124 -0.0116
  144OSM   H14A15780   5.225   4.574   6.450 -0.8920 -0.0763 -0.8419
  144OSM   H14B15781   5.247   4.398   6.419 -0.2196  0.6361 -1.5193
  144OSM   H14C15782   5.296   4.512   6.307  0.5930 -3.0667 -0.6549
  144OSM    C1315783   5.404   4.501   6.628 -0.0978  0.6825  0.7107
  144OSM   H13A15784   5.500   4.492   6.676  0.1915  2.0152  0.4373
  144OSM   H13B15785   5.332   4.427   6.659 -0.5384 -0.0464 -1.8286
  144OSM   H13C15786   5.356   4.595   6.653  0.3417  0.9863  0.4310
  144OSM    C1215787   5.506   4.603   6.428 -0.7900 -0.2035 -0.1773
  144OSM   H12A15788   5.599   4.596   6.482 -0.2760 -0.3313 -1.0551
  144OSM   H12B15789   5.457   4.692   6.465 -2.1609 -1.6854  1.8243
  144OSM    C1115790   5.530   4.619   6.276  0.3519 -0.0590  0.2768
  144OSM   H11A15791   5.537   4.524   6.218  1.1921  1.5629 -2.4892
  144OSM   H11B15792   5.624   4.673   6.254  0.3522  0.2141  0.9357
  144OSM      P15793   5.440   4.815   6.119 -0.3070  0.2141 -0.1512
  144OSM    O1315794   5.520   4.792   5.999  0.0346 -0.0527 -0.4558
  144OSM    O1415795   5.305   4.847   6.093  0.3829 -0.1695 -0.3015
  144OSM    O1115796   5.506   4.931   6.195  0.2909  0.0606 -0.2136
  144OSM    O1215797   5.426   4.686   6.212 -0.4047 -0.5332 -0.0418
  144OSM    C1S15798   5.470   4.957   6.330  0.2657 -0.7796  0.1708
  144OSM    H1S15799   5.381   4.898   6.362  0.6045 -1.3838  0.0136
  144OSM    H1T15800   5.432   5.061   6.335  0.2207 -0.7712 -0.2466
  144OSM     NF15801   5.539   4.986   6.570 -1.0448 -0.1435 -0.2370
  144OSM    HNF15802   5.573   5.078   6.589 -0.0547  0.0003 -2.3927
  144OSM    C2S15803   5.580   4.938   6.441 -0.2682 -0.0617  0.8822
  144OSM    H2S15804   5.598   4.829   6.444  1.8323  0.2560  1.2452
  144OSM    C3S15805   5.711   5.009   6.393  0.2501  0.5530  0.3310
  144OSM    H3S15806   5.693   5.116   6.370  0.0346  0.6170  0.8004
  144OSM     O315807   5.762   4.963   6.268  0.1552  0.5217  0.0895
  144OSM    HO315808   5.680   4.949   6.219 -0.5333 -2.1102  1.8079
  144OSM    C4S15809   5.820   5.006   6.499 -0.6409 -0.8741  0.0140
  144OSM    H4S15810   5.825   5.101   6.555 -2.2503  0.3832 -1.8199
  144OSM    C5S15811   5.920   4.917   6.513 -0.0442 -0.2887  0.1612
  144OSM    H5S15812   5.908   4.822   6.458 -2.5524 -0.5473  1.0013
  144OSM    C6S15813   6.025   4.944   6.615 -0.6494 -0.3453 -0.1631
  144OSM    H6S15814   6.057   5.050   6.617 -0.2088 -0.4842  1.2056
  144OSM    H6T15815   6.120   4.888   6.599  0.8539  2.0084  0.1456
  144OSM    C7S15816   5.974   4.907   6.754 -0.1221  0.0841  0.3771
  144OSM    H7S15817   5.942   4.801   6.757  0.1887 -0.0193  0.1576
  144OSM    H7T15818   5.890   4.973   6.781  0.3246  0.3026  1.2687
  144OSM    C8S15819   6.074   4.940   6.860 -0.2329  0.2305 -0.2459
  144OSM    H8S15820   6.112   5.044   6.853  1.1654 -0.3027 -1.0255
  144OSM    H8T15821   6.168   4.889   6.830 -1.3593 -0.1790 -3.4995
  144OSM    C9S15822   6.028   4.921   6.997 -0.5774  0.2255  0.3684
  144OSM    H9S15823   5.993   4.815   7.003  0.1748  0.0432  2.0562
  144OSM    H9T15824   5.934   4.977   7.013 -2.3889 -1.5509 -2.9314
  144OSM   C10S15825   6.134   4.936   7.104 -0.5782  0.0471  0.0700
  144OSM   H10S15826   6.162   5.043   7.107 -0.9094  0.1142  1.4160
  144OSM   H10T15827   6.223   4.870   7.090 -0.2947 -0.2350  2.6785
  144OSM   C11S15828   6.072   4.894   7.235 -0.0587 -0.1849  0.0308
  144OSM   H11S15829   6.077   4.784   7.252 -0.3522  0.0046  1.4535
  144OSM   H11T15830   5.972   4.942   7.241  1.1215  2.6007 -0.6856
  144OSM   C12S15831   6.149   4.957   7.348  0.3706 -0.8626 -0.4803
  144OSM   H12S15832   6.160   5.065   7.324 -1.2392 -0.4392  0.5351
  144OSM   H12T15833   6.250   4.910   7.355  1.5448  1.4408 -0.8204
  144OSM   C13S15834   6.068   4.944   7.477  0.8542  0.1386 -0.1069
  144OSM   H13S15835   6.027   4.840   7.475  0.3540  0.2830 -3.5494
  144OSM   H13T15836   5.982   5.015   7.481  0.2630 -0.5974  2.8243
  144OSM   C14S15837   6.151   4.975   7.610 -0.2982 -0.6827 -0.5543
  144OSM   H14S15838   6.176   5.083   7.610 -1.8248 -0.2226  2.3219
  144OSM   H14T15839   6.241   4.911   7.600 -0.4225 -1.0238  0.4391
  144OSM   C15S15840   6.065   4.954   7.736  0.5905  1.6637 -0.4404
  144OSM   H15S15841   6.006   4.862   7.719  1.8761 -0.2138  3.9339
  144OSM   H15T15842   5.984   5.029   7.743 -1.9355 -0.7651 -1.8413
  144OSM   C16S15843   6.153   4.911   7.859  0.0423  0.1320  0.2621
  144OSM   H16S15844   6.234   4.983   7.882  2.1894 -2.0394 -0.0861
  144OSM   H16T15845   6.212   4.822   7.830 -0.1200 -0.9080  2.8109
  144OSM   C17S15846   6.069   4.872   7.982  0.5091 -0.2211  0.3842
  144OSM   H17S15847   6.021   4.776   7.953 -0.6129 -0.0130  1.4911
  144OSM   H17T15848   5.982   4.937   8.002 -0.1191 -1.3415  1.4141
  144OSM   C18S15849   6.154   4.850   8.109  0.4882  0.8245  0.5983
  144OSM   H18S15850   6.223   4.933   8.135 -1.4391  3.9107 -3.0254
  144OSM   H18T15851   6.237   4.778   8.093  0.9282  1.3495  0.4872
  144OSM   H18U15852   6.086   4.828   8.194  0.2608  2.0266  0.7432
  144OSM    C1F15853   5.449   4.927   6.645 -0.7610  0.6535  0.2697
  144OSM     OF15854   5.393   4.829   6.602  0.7277 -0.1254  0.1671
  144OSM    C2F15855   5.427   4.969   6.780  0.5264 -0.0031 -0.8139
  144OSM    H2F15856   5.394   5.074   6.765  2.9673  0.7223 -1.6092
  144OSM    H2G15857   5.522   4.976   6.838  1.5456  2.3586 -2.6338
  144OSM    C3F15858   5.313   4.898   6.862 -0.3250  0.4825  0.1315
  144OSM    H3F15859   5.338   4.792   6.880 -0.2992  0.5211  0.3220
  144OSM    H3G15860   5.216   4.903   6.808 -1.5195 -0.6877  2.0533
  144OSM    C4F15861   5.285   4.967   6.996  0.0765 -0.2533 -0.0724
  144OSM    H4F15862   5.272   5.076   6.979  1.5340  0.1859  1.3048
  144OSM    H4G15863   5.373   4.954   7.064 -0.3422  0.9454  0.7197
  144OSM    C5F15864   5.147   4.911   7.059  0.4283  0.3220  0.0342
  144OSM    H5F15865   5.162   4.805   7.088 -0.0812  0.5040  0.9914
  144OSM    H5G15866   5.077   4.895   6.974  2.1123  0.9984 -1.5540
  144OSM    C6F15867   5.099   5.000   7.170 -0.1102  0.2214 -0.5909
  144OSM    H6F15868   5.025   4.947   7.235  1.2792  1.3892  2.1021
  144OSM    H6G15869   5.054   5.087   7.118  1.3899  0.9759 -0.6754
  144OSM    C7F15870   5.212   5.052   7.272  0.5283 -0.0723 -0.0832
  144OSM    H7F15871   5.279   5.115   7.210 -0.5587  1.0835 -0.1071
  144OSM    H7G15872   5.273   4.962   7.294 -1.0400 -1.2013 -0.1668
  144OSM    C8F15873   5.171   5.144   7.384  0.5556  0.5508  0.4746
  144OSM    H8F15874   5.134   5.238   7.338  2.2553  0.0473 -2.1499
  144OSM    H8G15875   5.264   5.164   7.443  1.8709 -3.8734  0.2988
  144OSM    C9F15876   5.066   5.088   7.480  0.7472  0.5487  0.5942
  144OSM    H9F15877   4.979   5.047   7.427  1.8856 -1.4061  0.1501
  144OSM   C10F15878   5.074   5.065   7.611  0.1662 -0.2056  0.0539
  144OSM   H10F15879   4.989   5.019   7.664 -0.0994  1.2197  0.9407
  144OSM   C11F15880   5.196   5.103   7.694  0.3940 -0.0920  0.3139
  144OSM   H11F15881   5.294   5.119   7.644  0.8046  1.0199  1.4051
  144OSM   H11G15882   5.210   5.020   7.766 -2.0705  0.0207  1.0066
  144OSM   C12F15883   5.168   5.233   7.775  0.2943  0.0630  0.7985
  144OSM   H12F15884   5.064   5.245   7.811 -0.6493  2.7646 -2.3563
  144OSM   H12G15885   5.175   5.308   7.694  1.9492 -2.2071 -1.3098
  144OSM   C13F15886   5.284   5.270   7.868  0.4844 -0.3855 -0.4049
  144OSM   H13F15887   5.284   5.380   7.887  1.3407 -0.1846 -1.4707
  144OSM   H13G15888   5.380   5.248   7.816  0.1151 -0.4034 -1.0913
  144OSM   C14F15889   5.289   5.197   8.002 -0.0484 -0.2966 -0.1457
  144OSM   H14F15890   5.387   5.222   8.050 -0.5172  1.3279  0.0421
  144OSM   H14G15891   5.286   5.090   7.976 -0.7397 -0.5887  1.0327
  144OSM   C15F15892   5.166   5.209   8.090  0.2074 -0.5104 -0.2769
  144OSM   H15F15893   5.112   5.112   8.089  2.1280 -1.6292 -1.4090
  144OSM   H15G15894   5.097   5.290   8.058  2.3818  1.5139 -0.0871
  144OSM   C16F15895   5.194   5.260   8.233  0.5401  0.1391 -0.4371
  144OSM   H16F15896   5.235   5.363   8.232 -0.8306  0.7172  0.2261
  144OSM   H16G15897   5.274   5.194   8.273  0.1782 -0.2767 -0.3936
  144OSM   C17F15898   5.082   5.252   8.343  1.1908 -0.7221  1.5406
  144OSM   H17F15899   5.124   5.255   8.445  1.2818 -0.4634  1.4976
  144OSM   H17G15900   5.026   5.158   8.325 -0.8329  0.6033  0.5429
  144OSM   C18F15901   4.981   5.374   8.334  0.2270 -0.3674 -0.8338
  144OSM   H18F15902   4.965   5.400   8.441  1.8128  0.4876 -0.7657
  144OSM   H18G15903   4.887   5.339   8.287 -0.5895  0.0260  0.4414
  144OSM   H18H15904   5.010   5.460   8.269 -1.1241  0.3659 -0.4900
  145SAPE     N15905   2.300   4.982  10.697  0.0731  0.6353  0.8752
  145SAPE   HN115906   2.209   5.010  10.656 -0.1500  1.4441  1.8693
  145SAPE   HN215907   2.360   4.935  10.627 -1.1506 -1.2506  1.0164
  145SAPE   HN315908   2.303   4.923  10.783  1.0891  1.6387  1.5676
  145SAPE   C1215909   2.373   5.113  10.734 -0.3551  0.5078  0.1528
  145SAPE  H12A15910   2.303   5.178  10.791  0.1788  1.5645 -0.3673
  145SAPE  H12B15911   2.392   5.159  10.635  1.0061 -0.7241 -0.1919
  145SAPE   C1115912   2.517   5.090  10.781  0.3070 -0.1580  0.2229
  145SAPE  H11A15913   2.518   5.040  10.880  2.2717 -0.4982  0.0727
  145SAPE  H11B15914   2.548   5.196  10.784 -2.4217  0.8221 -1.9085
  145SAPE     P15915   2.734   5.003  10.642 -0.3764 -0.2879 -0.0482
  145SAPE   O1315916   2.825   5.036  10.757 -0.2544 -0.2744 -0.2474
  145SAPE   O1415917   2.752   4.867  10.580  0.4040  0.1932 -0.1101
  145SAPE   O1215918   2.583   5.004  10.685  0.8699  0.6963 -0.5652
  145SAPE   O1115919   2.735   5.114  10.529  0.1902 -0.2155  0.3393
  145SAPE    C115920   2.650   5.098  10.414 -0.0955 -0.5973  0.3305
  145SAPE    HA15921   2.659   4.998  10.368 -2.0373  0.2281 -2.0069
  145SAPE    HB15922   2.542   5.104  10.440  0.1103  2.2751  0.8902
  145SAPE    C215923   2.684   5.215  10.311 -0.5165  0.6186  0.3381
  145SAPE    HS15924   2.595   5.273  10.279  0.6061  0.6424 -3.2627
  145SAPE   O2115925   2.741   5.157  10.191 -0.1067  0.5708 -0.4677
  145SAPE   C2115926   2.652   5.099  10.113 -0.2106  0.2811 -0.0167
  145SAPE   O2215927   2.538   5.064  10.146 -0.1996  0.3621  0.1250
  145SAPE   C2215928   2.722   5.055   9.980  0.2691  0.5403  0.2880
  145SAPE   H2R15929   2.774   5.137   9.925  2.7566 -0.8922  0.3337
  145SAPE   H2S15930   2.811   5.000  10.016 -0.0467 -0.7277 -0.8009
  145SAPE    C315931   2.764   5.332  10.370  0.6946 -0.5382  0.3083
  145SAPE    HX15932   2.862   5.302  10.413 -0.3340 -0.8222  2.5842
  145SAPE    HY15933   2.706   5.371  10.456 -0.3172 -1.5702  0.1182
  145SAPE   O3115934   2.775   5.446  10.273  0.2938  0.2807  0.0491
  145SAPE   C3115935   2.885   5.445  10.212 -0.5982 -0.0190  0.1012
  145SAPE   O3215936   2.968   5.355  10.215  0.3146  0.3432 -0.1247
  145SAPE   C3215937   2.893   5.573  10.128 -0.5365 -0.4059  0.4217
  145SAPE   H2X15938   2.966   5.571  10.045  1.8106  3.4850  2.1023
  145SAPE   H2Y15939   2.917   5.645  10.209 -1.9968 -2.2411  2.6334
  145SAPE   C2315940   2.624   4.980   9.887  0.5338  0.3075 -0.5888
  145SAPE   H3R15941   2.558   5.047   9.828 -3.3976  0.5015  3.4686
  145SAPE   H3S15942   2.567   4.918   9.960  0.9799  3.3144  2.5541
  145SAPE   C2415943   2.702   4.893   9.783 -0.6295  0.1047 -0.5493
  145SAPE   H4R15944   2.762   4.814   9.834  0.2854  1.1382 -0.0003
  145SAPE   H4S15945   2.775   4.957   9.728  1.0048 -1.3978 -0.2402
  145SAPE   C2515946   2.601   4.814   9.699  0.0404  0.2835  0.1101
  145SAPE   H5R15947   2.519   4.771   9.759  1.0054  1.4416  2.3646
  145SAPE   C2615948   2.595   4.791   9.570  1.0237  0.0652 -0.2396
  145SAPE   H6R15949   2.509   4.740   9.524  0.2830  0.7106  0.4064
  145SAPE   C2715950   2.702   4.832   9.470 -0.2392 -0.0108 -0.6471
  145SAPE   H7R15951   2.795   4.867   9.520 -0.1483  0.8976 -1.4156
  145SAPE   H7S15952   2.656   4.911   9.407  0.1401  2.0924  1.5730
  145SAPE   C2815953   2.745   4.713   9.390 -0.9698 -0.2821  0.8639
  145SAPE   H8R15954   2.804   4.634   9.438 -0.5552 -0.8387 -0.5217
  145SAPE   C2915955   2.720   4.695   9.259 -0.3116  0.3027  0.6415
  145SAPE   H9R15956   2.763   4.599   9.227 -2.2870 -0.7912  1.0765
  145SAPE  C21015957   2.639   4.777   9.157  0.5604 -0.0193 -0.8385
  145SAPE  H10R15958   2.563   4.835   9.213  1.7720  0.7518  0.0645
  145SAPE  H10S15959   2.580   4.702   9.099 -1.7705 -1.9011  3.4957
  145SAPE  C21115960   2.712   4.862   9.065  0.4161 -1.2041  0.4142
  145SAPE  H11R15961   2.720   4.969   9.092 -1.2000 -0.8138 -0.5120
  145SAPE  C21215962   2.745   4.835   8.940  0.0258 -0.2071  0.7241
  145SAPE  H12R15963   2.791   4.917   8.882  0.0504 -0.6450  0.1199
  145SAPE  C21315964   2.711   4.702   8.865  0.0642  0.4371 -0.5136
  145SAPE  H13R15965   2.685   4.622   8.938  0.3953  0.7430 -0.0568
  145SAPE  H13S15966   2.803   4.669   8.812  1.0510 -0.5281  1.6763
  145SAPE  C21415967   2.594   4.733   8.775 -0.3583  0.0810 -0.3326
  145SAPE  H14R15968   2.496   4.759   8.818 -0.7858 -0.9905 -0.6248
  145SAPE  C21515969   2.589   4.700   8.641 -0.2468 -0.2005  0.2916
  145SAPE  H15R15970   2.497   4.727   8.587  0.5726  2.1120 -0.1039
  145SAPE  C21615971   2.695   4.629   8.561 -0.1457  0.3321  0.0448
  145SAPE  H16R15972   2.646   4.597   8.466  0.1240 -0.1167  0.0539
  145SAPE  H16S15973   2.727   4.530   8.600 -1.1710 -0.2778 -0.6167
  145SAPE  C21715974   2.802   4.718   8.516 -1.0583 -0.7995  0.3483
  145SAPE  H17R15975   2.882   4.664   8.462  0.3176  1.0745  0.4331
  145SAPE  H17S15976   2.844   4.779   8.599 -0.4281 -0.3232 -0.3153
  145SAPE  C21815977   2.754   4.820   8.412  0.3555 -0.0209 -0.6517
  145SAPE  H18R15978   2.657   4.864   8.444  1.0122 -0.3511  2.0157
  145SAPE  H18S15979   2.742   4.766   8.315  2.8047 -2.1809  0.1192
  145SAPE  C21915980   2.852   4.937   8.391  0.0716 -0.1840  0.7015
  145SAPE  H19R15981   2.955   4.897   8.382 -0.1434 -0.4379 -0.8841
  145SAPE  H19S15982   2.845   5.000   8.483  1.8862 -0.4783  1.0611
  145SAPE  C22015983   2.835   5.027   8.269  0.3080  0.5862 -0.2904
  145SAPE  H20R15984   2.797   4.976   8.178 -0.3593  2.1523 -0.9083
  145SAPE  H20S15985   2.930   5.078   8.246  1.3823 -1.1413  0.0730
  145SAPE  H20T15986   2.751   5.093   8.300  0.5669  0.2470  1.2575
  145SAPE   C3315987   2.756   5.626  10.072 -0.3678 -0.0671  0.0791
  145SAPE   H3X15988   2.689   5.661  10.153 -1.8741  1.9137 -1.9034
  145SAPE   H3Y15989   2.701   5.541  10.025 -1.1018 -0.1207  1.0091
  145SAPE   C3415990   2.784   5.746   9.991 -0.5858  0.3354 -0.3664
  145SAPE   H4X15991   2.692   5.797   9.953  0.4023  0.0092 -3.4990
  145SAPE   H4Y15992   2.828   5.714   9.894 -0.7091  1.2978 -0.7538
  145SAPE   C3515993   2.866   5.862  10.059  0.6479 -0.4518 -0.0764
  145SAPE   H5X15994   2.975   5.842  10.056  0.8422  0.5633 -0.0253
  145SAPE   H5Y15995   2.821   5.865  10.161 -0.2541 -0.3024 -0.4685
  145SAPE   C3615996   2.842   6.004   9.997 -0.0441  0.3582 -0.0563
  145SAPE   H6X15997   2.901   6.078  10.055  1.6386  1.0211 -2.4285
  145SAPE   H6Y15998   2.738   6.032  10.024 -0.3426  0.1535 -0.9392
  145SAPE   C3715999   2.847   6.008   9.844  0.4837  0.1123 -0.1720
  145SAPE   H7X16000   2.777   5.938   9.792  0.7992 -2.0838  2.1442
  145SAPE   H7Y16001   2.946   5.965   9.817 -1.0766 -3.1398 -1.2755
  145SAPE   C3816002   2.840   6.150   9.789  0.3003  0.3060 -0.1517
  145SAPE   H8X16003   2.927   6.205   9.833  0.4143  0.5148 -0.6212
  145SAPE   H8Y16004   2.750   6.190   9.839  0.5592  0.8485 -0.1074
  145SAPE   C3916005   2.824   6.169   9.638  0.2286 -0.8066  1.0655
  145SAPE   H9X16006   2.923   6.146   9.594  1.2684  1.2440  2.1640
  145SAPE   H9Y16007   2.810   6.276   9.611 -1.2837 -0.7693  1.9000
  145SAPE  C31016008   2.710   6.094   9.562 -0.1298  0.3434 -0.6628
  145SAPE  H10X16009   2.610   6.094   9.610 -0.1681  2.9699 -0.6401
  145SAPE  H10Y16010   2.753   5.992   9.546  0.8083  1.0136 -2.8713
  145SAPE  C31116011   2.691   6.153   9.421 -0.5149  0.4563  0.0168
  145SAPE  H11X16012   2.785   6.142   9.363 -0.1605 -0.2829  0.7134
  145SAPE  H11Y16013   2.665   6.261   9.432 -0.2252  0.4246  1.1016
  145SAPE  C31216014   2.570   6.089   9.344 -0.5601 -0.1113  0.3212
  145SAPE  H12X16015   2.475   6.144   9.361  0.2859  0.9327  1.8278
  145SAPE  H12Y16016   2.558   5.981   9.371 -2.0348 -0.1898 -0.5305
  145SAPE  C31316017   2.588   6.104   9.186  0.6832  0.2963  0.0147
  145SAPE  H13X16018   2.506   6.044   9.142 -0.3029  1.3950  0.2902
  145SAPE  H13Y16019   2.684   6.070   9.142  0.9857  1.3661 -0.1830
  145SAPE  C31416020   2.552   6.242   9.145  0.1657 -0.2162  0.3046
  145SAPE  H14X16021   2.621   6.320   9.183 -1.7055  1.4454  0.4719
  145SAPE  H14Y16022   2.449   6.252   9.187 -0.4546 -0.5410 -1.0702
  145SAPE  C31516023   2.549   6.256   8.991 -0.8664 -0.2216  0.4638
  145SAPE  H15X16024   2.478   6.184   8.946 -0.8217  0.6260 -1.0347
  145SAPE  H15Y16025   2.652   6.233   8.954 -1.5551 -1.5676 -0.6999
  145SAPE  C31616026   2.511   6.396   8.957  0.2759 -0.3079 -0.4528
  145SAPE  H16X16027   2.576   6.472   9.005  0.7002  0.5578 -2.3131
  145SAPE  H16Y16028   2.410   6.422   8.997  1.2039  2.7834  0.1576
  145SAPE  C31716029   2.497   6.423   8.804  0.1104 -0.1911 -0.5202
  145SAPE  H17X16030   2.399   6.381   8.770 -0.5131  1.8036 -1.3196
  145SAPE  H17Y16031   2.585   6.376   8.754  2.4917  3.1405  0.2452
  145SAPE  C31816032   2.489   6.576   8.763  0.4080  0.0451 -0.4526
  145SAPE  H18X16033   2.462   6.586   8.656 -0.1099 -2.1949 -0.5741
  145SAPE  H18Y16034   2.585   6.631   8.776  1.1149 -1.0280 -1.0230
  145SAPE  H18Z16035   2.406   6.614   8.826  0.1995 -0.6646 -0.2846
  146SAPE     N16036   2.305   0.013  10.931 -0.1161  0.0014  0.1299
  146SAPE   HN116037   2.357  -0.077  10.933 -2.2737 -1.3131  0.9115
  146SAPE   HN216038   2.313   0.057  11.025  0.2867  1.7863 -0.6891
  146SAPE   HN316039   2.206  -0.018  10.937  0.3627 -1.2471  2.9029
  146SAPE   C1216040   2.348   0.112  10.817 -0.1367  0.0734  0.2007
  146SAPE  H12A16041   2.459   0.120  10.814 -0.2326  1.1885 -1.0758
  146SAPE  H12B16042   2.305   0.209  10.850  1.3552  0.7494  0.2122
  146SAPE   C1116043   2.278   0.074  10.685  0.1254 -0.0786 -0.7003
  146SAPE  H11A16044   2.330  -0.015  10.643  1.2222 -0.0231  0.4860
  146SAPE  H11B16045   2.280   0.148  10.603 -1.5579  0.7874 -0.0042
  146SAPE     P16046   2.018   0.107  10.635  0.0220  0.0022  0.3989
  146SAPE   O1316047   1.896   0.041  10.670 -0.2535  0.1620  0.0395
  146SAPE   O1416048   2.026   0.253  10.662  0.2925 -0.3426 -0.0754
  146SAPE   O1216049   2.141   0.034  10.708 -0.4404  0.3582 -0.1380
  146SAPE   O1116050   2.046   0.080  10.484 -0.8358  0.2573  0.2502
  146SAPE    C116051   1.980  -0.022  10.410  0.3882 -0.0226  0.0634
  146SAPE    HA16052   1.925  -0.096  10.472  1.9226 -1.9863 -0.7794
  146SAPE    HB16053   1.905   0.020  10.340  0.2589 -2.0542 -1.0943
  146SAPE    C216054   2.087  -0.111  10.337  0.4150  0.8454 -0.5890
  146SAPE    HS16055   2.153  -0.158  10.414  0.0825  0.9483 -0.2379
  146SAPE   O2116056   2.160  -0.032  10.242  0.7570 -0.1489 -0.2628
  146SAPE   C2116057   2.281  -0.080  10.207  0.0617 -0.1742  0.0599
  146SAPE   O2216058   2.330  -0.179  10.249  0.0149 -0.4608 -0.2771
  146SAPE   C2216059   2.358   0.016  10.120 -0.2082  0.6037 -0.0374
  146SAPE   H2R16060   2.335   0.122  10.144  1.3714  0.8830  0.3611
  146SAPE   H2S16061   2.464  -0.006  10.145 -0.0968  0.7689 -0.3493
  146SAPE    C316062   2.010  -0.227  10.261  0.2065 -0.2958 -0.5988
  146SAPE    HX16063   1.957  -0.281  10.342  0.1981  1.0924  0.3581
  146SAPE    HY16064   2.088  -0.288  10.212  1.0353 -0.6072  1.0435
  146SAPE   O3116065   1.911  -0.179  10.169  0.4017  0.2772  0.0610
  146SAPE   C3116066   1.949  -0.159  10.043  0.2531  0.0418 -0.6069
  146SAPE   O3216067   2.065  -0.167   9.998  0.3878 -0.0042 -1.4910
  146SAPE   C3216068   1.825  -0.124   9.954  0.8459 -0.4117  0.1398
  146SAPE   H2X16069   1.780  -0.029   9.991  1.1736  1.2611 -3.3927
  146SAPE   H2Y16070   1.755  -0.209   9.973 -0.1928 -0.2387 -2.5046
  146SAPE   C2316071   2.335   0.003   9.969  0.0292  0.2890  0.0532
  146SAPE   H3R16072   2.227   0.017   9.947  0.1286  2.5419  0.7559
  146SAPE   H3S16073   2.365  -0.099   9.936  0.3143  0.6762 -0.9366
  146SAPE   C2416074   2.412   0.099   9.879 -0.6687  0.6281 -0.3179
  146SAPE   H4R16075   2.399   0.056   9.778  2.0339 -0.0916 -0.4521
  146SAPE   H4S16076   2.516   0.097   9.920 -0.5200  2.9789 -0.4424
  146SAPE   C2516077   2.367   0.243   9.893 -0.6783 -0.3110  0.0534
  146SAPE   H5R16078   2.354   0.288   9.992 -0.4298  1.6090 -0.7377
  146SAPE   C2616079   2.316   0.308   9.784  0.1196 -0.7284  0.2703
  146SAPE   H6R16080   2.277   0.411   9.787 -0.2746 -0.7023 -2.9015
  146SAPE   C2716081   2.300   0.261   9.642  0.6921 -0.2575  0.2909
  146SAPE   H7R16082   2.324   0.153   9.628 -0.3841 -0.3994 -0.5951
  146SAPE   H7S16083   2.383   0.308   9.585  0.7156  0.9894  1.3246
  146SAPE   C2816084   2.162   0.289   9.596  0.3306 -0.3923  0.0819
  146SAPE   H8R16085   2.082   0.238   9.652 -0.9088 -0.7328 -1.9137
  146SAPE   C2916086   2.120   0.340   9.479  0.3321 -0.2096 -0.5605
  146SAPE   H9R16087   2.012   0.331   9.465  0.1287  0.0089  0.7214
  146SAPE  C21016088   2.210   0.380   9.369  0.2013 -0.5897  0.3390
  146SAPE  H10R16089   2.237   0.279   9.332  0.7787 -1.2291  2.3986
  146SAPE  H10S16090   2.294   0.431   9.420 -0.1499  0.9480 -0.5482
  146SAPE  C21116091   2.157   0.472   9.262 -0.2344 -0.3944 -0.3319
  146SAPE  H11R16092   2.073   0.539   9.285  0.8281  0.3074  1.8562
  146SAPE  C21216093   2.210   0.472   9.139 -0.8099  0.6398  0.2619
  146SAPE  H12R16094   2.174   0.544   9.064  1.9137  0.6558 -1.1694
  146SAPE  C21316095   2.323   0.392   9.077 -0.4370 -0.4708 -0.2336
  146SAPE  H13R16096   2.402   0.371   9.152 -0.1058 -1.4322 -0.8384
  146SAPE  H13S16097   2.370   0.462   9.004 -0.7940  1.4329  1.2669
  146SAPE  C21416098   2.265   0.270   9.009 -0.5009 -0.2816  0.4491
  146SAPE  H14R16099   2.169   0.227   9.042 -0.9816 -0.7526 -1.4467
  146SAPE  C21516100   2.324   0.219   8.895 -0.0939  0.6352  0.6771
  146SAPE  H15R16101   2.269   0.136   8.849 -1.5950  1.1444  1.4836
  146SAPE  C21616102   2.448   0.260   8.821  0.4738 -1.0582  0.0406
  146SAPE  H16R16103   2.539   0.196   8.834  1.4096 -0.0519 -1.3326
  146SAPE  H16S16104   2.482   0.365   8.830  0.3255 -0.9230 -0.9625
  146SAPE  C21716105   2.421   0.246   8.675 -0.6857 -0.1906  0.6682
  146SAPE  H17R16106   2.407   0.140   8.644  0.4936 -0.1090 -0.2581
  146SAPE  H17S16107   2.515   0.269   8.620 -0.3080 -3.6896 -0.3505
  146SAPE  C21816108   2.312   0.325   8.608  0.3287  0.2021 -0.7897
  146SAPE  H18R16109   2.323   0.435   8.622 -0.3959  0.2260 -0.3335
  146SAPE  H18S16110   2.208   0.312   8.646  0.1989  1.0559 -0.8268
  146SAPE  C21916111   2.309   0.301   8.455 -0.1338 -0.4432  0.2794
  146SAPE  H19R16112   2.291   0.193   8.432 -1.4484 -0.5655  1.7450
  146SAPE  H19S16113   2.406   0.330   8.408 -0.9138  2.8544  0.4907
  146SAPE  C22016114   2.187   0.366   8.381 -0.4865 -0.2485  0.2930
  146SAPE  H20R16115   2.176   0.474   8.408  0.1139 -0.5489  1.8104
  146SAPE  H20S16116   2.095   0.307   8.399 -2.3030  2.1475 -0.5512
  146SAPE  H20T16117   2.196   0.370   8.270 -1.0210  1.3643  0.2857
  146SAPE   C3316118   1.877  -0.082   9.817  0.3134  0.1356 -0.3971
  146SAPE   H3X16119   1.982  -0.045   9.820  0.2747  0.2688 -0.6297
  146SAPE   H3Y16120   1.820   0.011   9.793  0.8794  0.2664 -1.2704
  146SAPE   C3416121   1.865  -0.189   9.711  0.4053  0.9115  0.7061
  146SAPE   H4X16122   1.759  -0.213   9.688  1.3827 -0.6774 -2.7916
  146SAPE   H4Y16123   1.901  -0.289   9.744 -3.4682 -0.2957  1.8237
  146SAPE   C3516124   1.920  -0.151   9.570  0.2012  0.7885 -0.4712
  146SAPE   H5X16125   1.927  -0.241   9.506 -0.3268  0.8727 -0.6563
  146SAPE   H5Y16126   2.025  -0.117   9.584  0.5211 -0.3929  0.1829
  146SAPE   C3616127   1.856  -0.031   9.512  0.1231 -0.5026  0.0025
  146SAPE   H6X16128   1.905   0.059   9.555 -0.3559 -0.2805  0.0807
  146SAPE   H6Y16129   1.750  -0.029   9.543 -0.3737  0.2673 -1.6098
  146SAPE   C3716130   1.870   0.000   9.356 -0.5855 -0.4260  0.7456
  146SAPE   H7X16131   1.821  -0.074   9.290  1.6589 -0.0742 -1.4722
  146SAPE   H7Y16132   1.979  -0.012   9.338 -0.7955 -2.8751  0.7335
  146SAPE   C3816133   1.828   0.140   9.314  0.6457  0.2642 -0.5444
  146SAPE   H8X16134   1.904   0.206   9.361  0.6347  0.0551 -0.2341
  146SAPE   H8Y16135   1.726   0.168   9.348 -0.0422 -1.4823 -1.0579
  146SAPE   C3916136   1.840   0.164   9.161 -0.0774  0.3279  0.1859
  146SAPE   H9X16137   1.761   0.101   9.114 -0.8018  1.5660 -0.2996
  146SAPE   H9Y16138   1.943   0.134   9.134  0.0195 -1.2637  2.0743
  146SAPE  C31016139   1.807   0.316   9.125 -0.0040  0.6230 -0.0871
  146SAPE  H10X16140   1.874   0.370   9.197 -0.9207  0.5247  0.8673
  146SAPE  H10Y16141   1.701   0.339   9.148  0.2520  0.4829  1.3755
  146SAPE  C31116142   1.851   0.362   8.990 -0.0965 -0.4740 -0.0181
  146SAPE  H11X16143   1.772   0.333   8.917 -0.0754  0.2359 -0.3323
  146SAPE  H11Y16144   1.952   0.322   8.971 -0.0627 -0.0999 -0.6490
  146SAPE  C31216145   1.861   0.516   8.979 -0.0007 -0.5249 -0.7568
  146SAPE  H12X16146   1.929   0.553   9.058 -2.8278 -2.3174  2.8371
  146SAPE  H12Y16147   1.764   0.570   8.986  1.0527  1.4321 -0.5062
  146SAPE  C31316148   1.926   0.564   8.844  0.4339  0.1650  0.5487
  146SAPE  H13X16149   2.031   0.532   8.830  1.1788  3.1367 -1.6818
  146SAPE  H13Y16150   1.914   0.675   8.845 -1.5899  0.0235 -0.9727
  146SAPE  C31416151   1.837   0.531   8.721 -0.3652  0.4057  0.1849
  146SAPE  H14X16152   1.736   0.574   8.737 -0.2844  0.6584  0.0275
  146SAPE  H14Y16153   1.830   0.421   8.714  2.1339  0.1793  0.2446
  146SAPE  C31516154   1.891   0.582   8.589 -0.6631 -0.3406  0.0989
  146SAPE  H15X16155   1.991   0.537   8.575 -0.6789 -0.8368  1.4479
  146SAPE  H15Y16156   1.913   0.691   8.590  1.5673 -0.7479 -0.5294
  146SAPE  C31616157   1.797   0.561   8.478 -0.5043  0.3854  0.3190
  146SAPE  H16X16158   1.696   0.592   8.511 -0.1686  0.7883  1.0038
  146SAPE  H16Y16159   1.780   0.453   8.457  2.0606  0.1409 -0.8968
  146SAPE  C31716160   1.845   0.632   8.346 -0.2396  0.4684 -0.6633
  146SAPE  H17X16161   1.953   0.605   8.348  0.3908  2.4392  3.7305
  146SAPE  H17Y16162   1.843   0.739   8.374 -1.8963  0.1416  0.6042
  146SAPE  C31816163   1.765   0.597   8.219  0.4213  0.2965  0.8169
  146SAPE  H18X16164   1.800   0.637   8.121  0.9739  0.0764  0.9268
  146SAPE  H18Y16165   1.660   0.634   8.232  0.3589 -0.1920  1.7703
  146SAPE  H18Z16166   1.756   0.487   8.216  0.1889  0.3283  0.0754
  147SAPE     N16167   3.337   2.623  10.500  0.2024  0.0199  0.1186
  147SAPE   HN116168   3.416   2.568  10.537 -0.1902 -0.9851 -0.4873
  147SAPE   HN216169   3.287   2.551  10.445  1.4558 -2.3591  1.9104
  147SAPE   HN316170   3.360   2.697  10.431  1.0471 -1.1995 -0.9486
  147SAPE   C1216171   3.250   2.679  10.615 -0.1881  0.4510 -0.0717
  147SAPE  H12A16172   3.157   2.718  10.569  0.0851 -0.3242 -1.3262
  147SAPE  H12B16173   3.312   2.754  10.670  1.0353  0.1634 -1.0063
  147SAPE   C1116174   3.215   2.564  10.714 -0.7849  0.5106  0.7708
  147SAPE  H11A16175   3.174   2.473  10.666  0.0553  1.6265 -2.3092
  147SAPE  H11B16176   3.119   2.589  10.765 -1.1195 -0.2564  0.5336
  147SAPE     P16177   3.409   2.407  10.786 -0.1066  0.4514  0.1643
  147SAPE   O1316178   3.533   2.449  10.857  0.2721  0.8420 -0.1913
  147SAPE   O1416179   3.346   2.281  10.834  0.6728 -0.2660  0.1445
  147SAPE   O1216180   3.315   2.533  10.811 -0.1192  0.3683 -0.6929
  147SAPE   O1116181   3.432   2.404  10.630  0.0950 -0.0906 -0.6708
  147SAPE    C116182   3.525   2.304  10.583  0.3276  0.2468  0.4702
  147SAPE    HA16183   3.627   2.315  10.628  0.1719 -1.7922  1.4674
  147SAPE    HB16184   3.487   2.201  10.601  0.0187  0.2610 -0.0926
  147SAPE    C216185   3.540   2.316  10.425  0.5126  0.0296 -0.5693
  147SAPE    HS16186   3.619   2.253  10.378 -1.1260 -0.1317 -3.3192
  147SAPE   O2116187   3.562   2.449  10.394  0.0724  0.1873 -0.1505
  147SAPE   C2116188   3.687   2.488  10.403 -0.1476 -0.1804 -0.5428
  147SAPE   O2216189   3.784   2.423  10.440 -0.2580  0.8272 -0.4688
  147SAPE   C2216190   3.699   2.632  10.363  0.3350  0.2278 -0.5824
  147SAPE   H2R16191   3.623   2.646  10.284  0.5580 -2.0961 -1.2573
  147SAPE   H2S16192   3.684   2.697  10.453  0.3959  1.5916 -1.5193
  147SAPE    C316193   3.401   2.264  10.354  0.7943 -0.3235 -0.1261
  147SAPE    HX16194   3.310   2.316  10.391 -0.2846 -2.5140  0.4797
  147SAPE    HY16195   3.385   2.159  10.385  0.0185 -0.3067 -0.4627
  147SAPE   O3116196   3.417   2.266  10.208 -0.1332 -0.0190  0.3413
  147SAPE   C3116197   3.377   2.379  10.160  0.3139  0.7608  0.4576
  147SAPE   O3216198   3.329   2.473  10.214 -0.0285 -0.1277 -0.2619
  147SAPE   C3216199   3.432   2.390  10.015  0.5426 -0.1536 -0.8768
  147SAPE   H2X16200   3.364   2.451   9.951  1.4700 -0.3019 -2.0289
  147SAPE   H2Y16201   3.433   2.288   9.973 -1.0269 -0.8077  0.5399
  147SAPE   C2316202   3.828   2.673  10.296 -0.3518 -0.3003 -0.3042
  147SAPE   H3R16203   3.917   2.654  10.360  2.0415  0.4535 -3.1719
  147SAPE   H3S16204   3.840   2.782  10.279 -2.0907 -0.3930 -2.8880
  147SAPE   C2416205   3.847   2.604  10.160  0.5459  0.0024 -0.5143
  147SAPE   H4R16206   3.760   2.631  10.097  0.7928 -0.7227 -1.1896
  147SAPE   H4S16207   3.852   2.494  10.178 -0.7990 -0.0099 -0.1353
  147SAPE   C2516208   3.990   2.639  10.116  0.3495 -0.0096  0.1453
  147SAPE   H5R16209   4.057   2.642  10.204  1.0566  0.3520 -0.3962
  147SAPE   C2616210   4.040   2.652   9.994  0.0527 -0.1670 -0.1786
  147SAPE   H6R16211   4.146   2.679   9.984  0.9396 -2.8719  0.9115
  147SAPE   C2716212   3.954   2.638   9.863  0.4314 -0.2217 -0.5084
  147SAPE   H7R16213   3.846   2.624   9.885  0.4865 -0.6692 -0.5208
  147SAPE   H7S16214   3.979   2.543   9.811 -1.2275 -0.0694 -1.6634
  147SAPE   C2816215   3.975   2.762   9.778 -0.2549 -0.2082  0.2480
  147SAPE   H8R16216   3.922   2.847   9.823 -2.4020 -2.3659  2.1302
  147SAPE   C2916217   4.053   2.771   9.668 -0.2575 -0.2555 -0.4870
  147SAPE   H9R16218   4.068   2.868   9.618  2.9658 -1.0495 -1.3210
  147SAPE  C21016219   4.133   2.655   9.613  0.0323 -0.2119 -0.5215
  147SAPE  H10R16220   4.061   2.585   9.565 -0.9056  0.6141 -0.3775
  147SAPE  H10S16221   4.177   2.592   9.693  2.0551 -0.4097 -1.7381
  147SAPE  C21116222   4.245   2.716   9.526  0.2028 -0.3539 -0.4124
  147SAPE  H11R16223   4.329   2.756   9.584  0.6196 -0.4304 -0.9460
  147SAPE  C21216224   4.247   2.731   9.397  0.0553 -0.7665 -0.5323
  147SAPE  H12R16225   4.323   2.800   9.359 -0.7930  0.4234 -0.1319
  147SAPE  C21316226   4.136   2.701   9.292  0.1649 -0.0693 -0.4981
  147SAPE  H13R16227   4.066   2.627   9.336  0.4343 -0.5574 -0.8788
  147SAPE  H13S16228   4.181   2.646   9.206 -0.4495  0.6610 -1.3048
  147SAPE  C21416229   4.056   2.819   9.242 -0.0492  0.2608  0.3144
  147SAPE  H14R16230   3.988   2.859   9.319  0.2566  2.3581 -0.4220
  147SAPE  C21516231   4.075   2.897   9.127  0.8688  0.4749  0.3423
  147SAPE  H15R16232   4.004   2.979   9.107  2.0657  2.0070  2.0712
  147SAPE  C21616233   4.184   2.872   9.020 -0.1704 -0.8141 -0.1364
  147SAPE  H16R16234   4.262   2.801   9.057 -1.1234 -0.8678  1.9388
  147SAPE  H16S16235   4.234   2.967   8.993 -0.2942 -0.1341  1.8540
  147SAPE  C21716236   4.119   2.798   8.901  0.2186  0.0036 -0.7360
  147SAPE  H17R16237   4.034   2.847   8.851 -1.8538 -0.7739  1.8027
  147SAPE  H17S16238   4.071   2.710   8.948  2.6991 -1.3406 -0.5052
  147SAPE  C21816239   4.201   2.717   8.812 -0.2278 -0.1924  0.1292
  147SAPE  H18R16240   4.299   2.698   8.860  0.6584  1.3216 -0.9790
  147SAPE  H18S16241   4.233   2.776   8.723  3.0245 -0.7867  0.7644
  147SAPE  C21916242   4.145   2.585   8.772  0.0109  0.0868  0.1579
  147SAPE  H19R16243   4.131   2.511   8.854 -0.5012  0.0735  0.0583
  147SAPE  H19S16244   4.220   2.532   8.709 -0.6482 -0.0846 -0.4961
  147SAPE  C22016245   4.013   2.597   8.693  0.0248  0.0987 -0.5577
  147SAPE  H20R16246   4.025   2.658   8.601  2.4456 -3.4065 -2.8102
  147SAPE  H20S16247   3.930   2.639   8.754  0.7512 -0.2405  0.7164
  147SAPE  H20T16248   3.982   2.496   8.658  2.0409 -0.7107 -0.1931
  147SAPE   C3316249   3.578   2.430  10.024 -0.0871 -0.4472 -0.1072
  147SAPE   H3X16250   3.620   2.376  10.112  0.0795 -1.7774 -0.9798
  147SAPE   H3Y16251   3.573   2.539  10.046  1.2800 -0.4103  0.1122
  147SAPE   C3416252   3.660   2.397   9.900  0.4916 -0.3052  0.4713
  147SAPE   H4X16253   3.681   2.288   9.897 -0.8175 -0.5595 -0.1974
  147SAPE   H4Y16254   3.754   2.452   9.922 -1.1683  2.6238  0.7464
  147SAPE   C3516255   3.600   2.441   9.762 -0.4136 -0.3822 -0.6924
  147SAPE   H5X16256   3.566   2.546   9.775  0.0338 -0.1798 -1.1367
  147SAPE   H5Y16257   3.509   2.380   9.741  1.1203 -2.6203 -1.1145
  147SAPE   C3616258   3.699   2.438   9.651 -0.5731 -0.1604  0.8631
  147SAPE   H6X16259   3.716   2.330   9.633 -0.6111  0.1110 -1.1196
  147SAPE   H6Y16260   3.792   2.480   9.696  1.0375 -2.0632 -0.5177
  147SAPE   C3716261   3.639   2.489   9.521 -0.5045  0.1558 -0.3564
  147SAPE   H7X16262   3.562   2.567   9.535  1.5482  2.2334 -0.0741
  147SAPE   H7Y16263   3.575   2.412   9.472 -0.5280  0.3203 -0.5866
  147SAPE   C3816264   3.745   2.535   9.420 -0.2804  0.2903  0.1742
  147SAPE   H8X16265   3.834   2.469   9.415 -0.9988 -0.6410 -0.9500
  147SAPE   H8Y16266   3.785   2.633   9.454 -0.8074 -0.1594  2.2209
  147SAPE   C3916267   3.697   2.533   9.271  0.1907  0.3974 -0.3321
  147SAPE   H9X16268   3.629   2.619   9.255  0.6821  1.2082  1.6915
  147SAPE   H9Y16269   3.634   2.444   9.248  1.4482 -0.4939 -0.4217
  147SAPE  C31016270   3.803   2.525   9.161 -0.0695  0.2263 -0.0161
  147SAPE  H10X16271   3.877   2.447   9.188  1.4240  1.2613 -0.9420
  147SAPE  H10Y16272   3.861   2.619   9.155  0.3794 -0.0608 -0.2444
  147SAPE  C31116273   3.754   2.481   9.020 -0.4105 -0.9918  0.3513
  147SAPE  H11X16274   3.666   2.414   9.014 -1.6815  0.7169 -1.2213
  147SAPE  H11Y16275   3.830   2.430   8.957  0.8525 -1.6261  2.2949
  147SAPE  C31216276   3.710   2.607   8.941 -1.1894  0.5826  0.0955
  147SAPE  H12X16277   3.793   2.681   8.935  0.3795 -0.7481  3.0909
  147SAPE  H12Y16278   3.640   2.662   9.007 -1.9668  0.7208 -0.8239
  147SAPE  C31316279   3.643   2.561   8.815 -0.3740  0.2829  0.2281
  147SAPE  H13X16280   3.548   2.506   8.833  1.7802 -2.8682  3.4407
  147SAPE  H13Y16281   3.705   2.483   8.765 -2.4054 -0.8902 -0.5894
  147SAPE  C31416282   3.614   2.681   8.717  0.8708 -0.0777 -0.6174
  147SAPE  H14X16283   3.703   2.745   8.701  0.3576  0.8163  0.1007
  147SAPE  H14Y16284   3.528   2.746   8.743 -0.4086 -1.7335 -0.5142
  147SAPE  C31516285   3.566   2.626   8.579  0.3775  0.1780  0.1317
  147SAPE  H15X16286   3.539   2.712   8.514 -0.4331  0.6762  1.1104
  147SAPE  H15Y16287   3.472   2.569   8.595  1.8668 -2.4265  0.3377
  147SAPE  C31616288   3.662   2.539   8.498  0.2480 -0.3544 -0.0335
  147SAPE  H16X16289   3.676   2.437   8.540  3.7808 -0.3524 -0.8965
  147SAPE  H16Y16290   3.766   2.578   8.495 -0.4285  1.6574  0.9204
  147SAPE  C31716291   3.623   2.533   8.358  0.8004  0.7044  0.8319
  147SAPE  H17X16292   3.655   2.626   8.307 -1.0852  0.6246 -0.6150
  147SAPE  H17Y16293   3.512   2.522   8.362  0.7030  1.1528 -0.2578
  147SAPE  C31816294   3.679   2.409   8.281 -0.1458  0.0089  0.1986
  147SAPE  H18X16295   3.662   2.417   8.172 -2.0474 -0.5892  0.4075
  147SAPE  H18Y16296   3.632   2.318   8.325  0.9570 -0.7187 -0.1027
  147SAPE  H18Z16297   3.788   2.404   8.301 -0.3013  0.5500  1.3013
  148SAPE     N16298   5.596   4.728  10.597  0.4170  0.0453 -0.7806
  148SAPE   HN116299   5.523   4.680  10.542 -0.6308  0.7961 -0.0944
  148SAPE   HN216300   5.680   4.671  10.622  0.5258  1.1888  1.8904
  148SAPE   HN316301   5.560   4.772  10.684  3.1876  0.7484  0.1213
  148SAPE   C1216302   5.645   4.831  10.507 -0.8259 -0.2373  0.5665
  148SAPE  H12A16303   5.683   4.784  10.414  0.9614 -0.1377  1.2149
  148SAPE  H12B16304   5.735   4.878  10.552  0.5649 -0.9824 -1.3187
  148SAPE   C1116305   5.545   4.937  10.479  1.2605 -0.4557 -0.6167
  148SAPE  H11A16306   5.453   4.897  10.433  0.6630  1.9720 -1.7242
  148SAPE  H11B16307   5.589   5.013  10.411 -0.9705  1.1084 -0.4332
  148SAPE     P16308   5.448   5.150  10.597 -0.1935  0.6016  0.0729
  148SAPE   O1316309   5.407   5.184  10.735  0.0864 -0.1023  0.6272
  148SAPE   O1416310   5.548   5.242  10.546  0.1942  0.2495 -0.5948
  148SAPE   O1216311   5.502   5.001  10.604  0.0668 -0.3270  0.1224
  148SAPE   O1116312   5.330   5.137  10.497  0.1665  0.1544 -0.1625
  148SAPE    C116313   5.241   5.241  10.465 -0.2560 -0.5687  0.0477
  148SAPE    HA16314   5.139   5.197  10.463  0.5025 -2.4240 -1.5419
  148SAPE    HB16315   5.240   5.325  10.537  0.5902  0.9562 -1.6232
  148SAPE    C216316   5.269   5.287  10.319  0.2318  0.2665  0.3489
  148SAPE    HS16317   5.373   5.326  10.319  0.2053  0.4938 -2.1368
  148SAPE   O2116318   5.171   5.385  10.275 -0.1315  0.2105  0.0196
  148SAPE   C2116319   5.192   5.504  10.316 -0.1257 -0.6356  1.3428
  148SAPE   O2216320   5.290   5.547  10.379  0.1555  0.1802  0.2005
  148SAPE   C2216321   5.076   5.589  10.259 -0.2761 -0.9108  0.9189
  148SAPE   H2R16322   4.991   5.522  10.235  0.7710 -1.3722 -2.0140
  148SAPE   H2S16323   5.050   5.661  10.339  0.3512  0.3644  0.0161
  148SAPE    C316324   5.268   5.148  10.224  0.1754  0.2795 -1.0729
  148SAPE    HX16325   5.183   5.084  10.256  1.4039 -0.9558 -0.1652
  148SAPE    HY16326   5.361   5.089  10.235  0.5844  1.1856  0.8289
  148SAPE   O3116327   5.235   5.175  10.091  0.4329  0.5669 -0.5025
  148SAPE   C3116328   5.336   5.216  10.014  0.2174 -0.1152 -0.4140
  148SAPE   O3216329   5.448   5.246  10.053 -0.0449  0.0050  0.1243
  148SAPE   C3216330   5.278   5.261   9.876 -0.0093 -0.2754 -0.1231
  148SAPE   H2X16331   5.313   5.363   9.851 -0.5787 -0.5581 -2.2729
  148SAPE   H2Y16332   5.169   5.262   9.897  0.0011 -1.5088  0.0891
  148SAPE   C2316333   5.140   5.667  10.132  0.0254  0.7350  0.7050
  148SAPE   H3R16334   5.236   5.710  10.166  0.0008  1.3079  0.0587
  148SAPE   H3S16335   5.073   5.752  10.108 -0.9200 -0.7077 -2.2355
  148SAPE   C2416336   5.146   5.583   9.999  0.0789 -0.2756  1.0351
  148SAPE   H4R16337   5.202   5.492  10.029  1.9235  1.1590  2.1574
  148SAPE   H4S16338   5.210   5.638   9.927 -0.6824 -0.7351 -0.0178
  148SAPE   C2516339   5.021   5.538   9.941  0.2893  0.3873 -0.0741
  148SAPE   H5R16340   4.950   5.488  10.008  1.1031  0.5579  0.9472
  148SAPE   C2616341   4.982   5.558   9.816 -0.3766  0.1446  0.2243
  148SAPE   H6R16342   4.885   5.518   9.780  0.3808 -3.0920  1.4148
  148SAPE   C2716343   5.054   5.624   9.701  0.0341  0.4994 -0.1219
  148SAPE   H7R16344   5.065   5.551   9.618  0.9046  2.0931 -1.4590
  148SAPE   H7S16345   5.155   5.656   9.733 -0.1103 -0.8015  1.8434
  148SAPE   C2816346   4.977   5.744   9.669  0.6638  0.2723  0.1781
  148SAPE   H8R16347   4.963   5.815   9.751 -0.5037 -0.8021  0.9630
  148SAPE   C2916348   4.948   5.786   9.546  0.3658  0.2049 -0.4294
  148SAPE   H9R16349   4.893   5.880   9.533 -0.5548 -0.0404  1.3406
  148SAPE  C21016350   4.980   5.720   9.413  0.1567  0.5932 -0.0627
  148SAPE  H10R16351   4.900   5.752   9.344 -0.0842 -0.5330 -0.3140
  148SAPE  H10S16352   4.965   5.611   9.424  0.7423  0.6266  1.3807
  148SAPE  C21116353   5.117   5.751   9.352  0.6693 -0.2444 -0.4310
  148SAPE  H11R16354   5.191   5.791   9.423 -1.3839  2.8687  0.1656
  148SAPE  C21216355   5.152   5.720   9.230 -0.5520  0.0600  0.3285
  148SAPE  H12R16356   5.256   5.731   9.196  0.0529 -0.8810  1.7706
  148SAPE  C21316357   5.054   5.649   9.140  0.1479  0.1543  0.0084
  148SAPE  H13R16358   4.957   5.621   9.186  0.2092  0.8807  0.5846
  148SAPE  H13S16359   5.090   5.549   9.106 -2.3919 -0.3852 -1.4319
  148SAPE  C21416360   5.018   5.738   9.021  0.5561  0.8706  0.8690
  148SAPE  H14R16361   4.969   5.836   9.037  0.7746  1.0605  0.4181
  148SAPE  C21516362   5.043   5.706   8.887 -0.2584 -0.1957 -0.5125
  148SAPE  H15R16363   5.004   5.776   8.812 -1.1570 -1.1050 -0.9187
  148SAPE  C21616364   5.109   5.587   8.831 -0.1814 -0.6153 -0.7753
  148SAPE  H16R16365   5.047   5.495   8.835  0.7150 -1.2091  0.9457
  148SAPE  H16S16366   5.192   5.574   8.905 -0.9467  0.7161  0.3700
  148SAPE  C21716367   5.170   5.613   8.688 -0.0778 -0.5517 -0.1494
  148SAPE  H17R16368   5.242   5.696   8.701  0.8257 -1.5042  1.3100
  148SAPE  H17S16369   5.089   5.643   8.619 -0.7508 -0.6336  0.5936
  148SAPE  C21816370   5.243   5.491   8.635 -0.0775 -0.2725 -0.5314
  148SAPE  H18R16371   5.166   5.411   8.627 -0.4180 -0.0309  0.2817
  148SAPE  H18S16372   5.310   5.444   8.710 -0.7818  0.8924  0.8581
  148SAPE  C21916373   5.312   5.511   8.501  0.1522 -0.8212  0.0574
  148SAPE  H19R16374   5.242   5.529   8.417  0.7436 -0.1466 -0.3042
  148SAPE  H19S16375   5.366   5.418   8.471 -0.6746 -0.7409 -1.7872
  148SAPE  C22016376   5.419   5.623   8.490  0.3351  0.0685  0.6474
  148SAPE  H20R16377   5.515   5.586   8.530 -0.4480 -2.2646  0.5350
  148SAPE  H20S16378   5.388   5.725   8.523  0.5172  0.9252 -1.6526
  148SAPE  H20T16379   5.440   5.635   8.382 -2.2965  0.9604  0.1574
  148SAPE   C3316380   5.298   5.164   9.750 -0.2255 -0.1727 -0.1596
  148SAPE   H3X16381   5.249   5.067   9.772  3.9351 -2.4057  0.4344
  148SAPE   H3Y16382   5.406   5.142   9.736  0.5497  3.0063  0.1474
  148SAPE   C3416383   5.220   5.210   9.627 -0.1356 -0.4215  0.6264
  148SAPE   H4X16384   5.125   5.261   9.656 -1.9690 -2.5838 -1.1963
  148SAPE   H4Y16385   5.205   5.127   9.556  0.0871  1.3604 -1.6083
  148SAPE   C3516386   5.310   5.304   9.549 -0.6680  0.4476 -0.7627
  148SAPE   H5X16387   5.410   5.255   9.547 -0.6612  0.4334 -0.1392
  148SAPE   H5Y16388   5.339   5.397   9.601  3.7958 -0.6293 -0.9348
  148SAPE   C3616389   5.274   5.344   9.403  0.1649  0.1353  0.4554
  148SAPE   H6X16390   5.353   5.406   9.355 -0.5286  0.1892 -0.6563
  148SAPE   H6Y16391   5.172   5.389   9.409 -0.0396 -0.4010  1.1011
  148SAPE   C3716392   5.247   5.224   9.309  0.3105 -0.0653  0.4832
  148SAPE   H7X16393   5.154   5.176   9.347 -1.0469 -0.0614 -2.5735
  148SAPE   H7Y16394   5.338   5.161   9.312  0.5799  0.3338  0.8938
  148SAPE   C3816395   5.224   5.261   9.157  0.2036 -0.0372 -0.9200
  148SAPE   H8X16396   5.132   5.323   9.152  0.0878 -0.1311 -0.1020
  148SAPE   H8Y16397   5.199   5.174   9.092 -2.0245  0.4996 -0.8525
  148SAPE   C3916398   5.343   5.336   9.089 -0.2437  0.3098 -0.4420
  148SAPE   H9X16399   5.349   5.440   9.127 -0.8763  1.4644 -3.2705
  148SAPE   H9Y16400   5.317   5.332   8.981  1.0463 -3.4288 -0.7638
  148SAPE  C31016401   5.485   5.277   9.091  0.8796  0.0005 -0.1254
  148SAPE  H10X16402   5.473   5.172   9.055 -1.1069 -0.9433  2.9328
  148SAPE  H10Y16403   5.525   5.269   9.194 -0.7300  1.0892  0.6150
  148SAPE  C31116404   5.580   5.358   9.007  0.0028 -0.7904 -0.5461
  148SAPE  H11X16405   5.608   5.440   9.076 -1.4432 -0.2976 -0.5081
  148SAPE  H11Y16406   5.533   5.398   8.914 -0.9645  0.5037  0.4650
  148SAPE  C31216407   5.701   5.276   8.971 -0.3876 -0.5453  0.0335
  148SAPE  H12X16408   5.671   5.195   8.901 -0.6053 -1.4872  1.1761
  148SAPE  H12Y16409   5.757   5.242   9.060  0.3771 -0.8006 -0.5317
  148SAPE  C31316410   5.802   5.357   8.875  0.6735 -0.3449 -0.3866
  148SAPE  H13X16411   5.856   5.430   8.938  1.5870 -0.4365 -1.0497
  148SAPE  H13Y16412   5.743   5.415   8.800 -2.8221  0.3579  2.5937
  148SAPE  C31416413   5.896   5.266   8.787  0.8748 -0.4615 -0.6834
  148SAPE  H14X16414   5.833   5.205   8.719  1.0419 -0.1669 -1.1088
  148SAPE  H14Y16415   5.941   5.186   8.848 -1.2055 -0.9174  0.3450
  148SAPE  C31516416   6.002   5.343   8.712  0.0549 -1.0782  0.0800
  148SAPE  H15X16417   6.050   5.407   8.789 -2.1588  0.2670  0.4323
  148SAPE  H15Y16418   5.959   5.400   8.626 -1.2198 -2.1169 -0.0050
  148SAPE  C31616419   6.103   5.247   8.651 -0.4849 -0.0164  0.2259
  148SAPE  H16X16420   6.134   5.173   8.728 -1.2740 -0.8102 -0.1892
  148SAPE  H16Y16421   6.196   5.293   8.612  0.6597 -1.9775  0.5073
  148SAPE  C31716422   6.045   5.161   8.534  0.3827  0.5969  0.1992
  148SAPE  H17X16423   5.987   5.230   8.470 -0.8038  0.8458  1.4929
  148SAPE  H17Y16424   5.968   5.097   8.582 -0.1013  1.5485  0.7112
  148SAPE  C31816425   6.139   5.078   8.447 -0.3534 -0.0681 -0.0945
  148SAPE  H18X16426   6.090   5.020   8.366 -1.1767 -1.8585  1.6189
  148SAPE  H18Y16427   6.188   5.005   8.515 -2.1578 -0.4672  0.8285
  148SAPE  H18Z16428   6.218   5.141   8.400  0.5566 -0.0779  1.3637
  149SAPE     N16429   0.507   5.843  11.077  0.2147  0.4213  0.1847
  149SAPE   HN116430   0.418   5.863  11.127 -0.1143  2.0946 -0.9758
  149SAPE   HN216431   0.491   5.838  10.974  0.0596  1.5602  0.1368
  149SAPE   HN316432   0.534   5.747  11.106 -1.8498  0.4140  2.4675
  149SAPE   C1216433   0.610   5.951  11.107  0.9038 -0.3380 -0.3542
  149SAPE  H12A16434   0.603   5.961  11.217  0.9068  0.0938 -0.3919
  149SAPE  H12B16435   0.580   6.046  11.059  1.5927  0.1533  0.1728
  149SAPE   C1116436   0.755   5.920  11.068  0.2409 -0.5408 -0.1333
  149SAPE  H11A16437   0.745   5.894  10.960 -0.8940 -2.6665  0.4335
  149SAPE  H11B16438   0.800   5.834  11.122  0.8544 -0.8871 -1.1543
  149SAPE     P16439   0.942   6.072  10.965  0.0696  0.3231  0.1125
  149SAPE   O1316440   1.030   6.169  11.034  0.3530  0.4337  0.1725
  149SAPE   O1416441   0.996   5.944  10.908  0.0421  0.0258 -0.6159
  149SAPE   O1216442   0.832   6.037  11.071  0.2204 -0.8351 -0.0462
  149SAPE   O1116443   0.864   6.145  10.844 -0.2190  0.2263 -0.3780
  149SAPE    C116444   0.741   6.218  10.854 -0.4592 -0.8122  1.0092
  149SAPE    HA16445   0.656   6.147  10.851 -0.6138 -0.5996  0.1702
  149SAPE    HB16446   0.740   6.271  10.952  1.4859  1.4068 -0.0838
  149SAPE    C216447   0.746   6.330  10.743 -0.4164 -0.3660 -0.7106
  149SAPE    HS16448   0.675   6.414  10.761  1.8505  1.6359 -0.4801
  149SAPE   O2116449   0.721   6.278  10.613  0.2594  0.5786 -0.3633
  149SAPE   C2116450   0.597   6.244  10.589  0.8814  0.7082  0.1498
  149SAPE   O2216451   0.505   6.249  10.668  0.1614 -0.4870 -0.5307
  149SAPE   C2216452   0.582   6.177  10.454 -0.0618  0.2720 -0.3175
  149SAPE   H2R16453   0.680   6.155  10.406 -0.2520  0.2261 -0.6925
  149SAPE   H2S16454   0.539   6.077  10.474  1.9952 -0.6815 -0.4178
  149SAPE    C316455   0.886   6.420  10.740 -0.5729  0.0373  0.3817
  149SAPE    HX16456   0.960   6.338  10.752 -0.2382  0.1709 -0.6343
  149SAPE    HY16457   0.897   6.489  10.827 -1.3045  0.2296  0.3219
  149SAPE   O3116458   0.902   6.495  10.615  0.0902  0.0136  0.4715
  149SAPE   C3116459   0.832   6.599  10.600 -0.0615 -0.1026 -0.6205
  149SAPE   O3216460   0.755   6.648  10.684  0.0719 -0.1190  0.2591
  149SAPE   C3216461   0.846   6.661  10.462  0.1730 -0.2060  0.0584
  149SAPE   H2X16462   0.954   6.687  10.452  1.0374 -2.4741  2.3553
  149SAPE   H2Y16463   0.782   6.751  10.462  0.6458  0.1865  2.5976
  149SAPE   C2316464   0.488   6.256  10.350  0.4267  0.1552 -0.2919
  149SAPE   H3R16465   0.554   6.334  10.306 -0.2570 -0.5172 -2.6661
  149SAPE   H3S16466   0.405   6.303  10.407  1.2184  1.6482 -0.3210
  149SAPE   C2416467   0.433   6.166  10.240 -0.0832 -0.5436 -0.6809
  149SAPE   H4R16468   0.332   6.129  10.268 -0.4114  0.8173  0.0183
  149SAPE   H4S16469   0.493   6.073  10.231  3.0719  1.1856  0.9437
  149SAPE   C2516470   0.422   6.236  10.109 -1.0941 -0.1811 -0.8508
  149SAPE   H5R16471   0.329   6.293  10.099  0.3592  1.9939 -2.8285
  149SAPE   C2616472   0.518   6.247  10.017 -0.9258 -0.0633  0.2780
  149SAPE   H6R16473   0.491   6.304   9.927 -0.1834 -0.0038  0.0870
  149SAPE   C2716474   0.658   6.184  10.008  0.5264 -0.0870  0.0073
  149SAPE   H7R16475   0.713   6.187  10.104  0.6953  0.2672 -0.0973
  149SAPE   H7S16476   0.731   6.239   9.945  2.5146 -1.6622  0.8371
  149SAPE   C2816477   0.672   6.053   9.940  0.4536 -0.0386 -0.5866
  149SAPE   H8R16478   0.681   5.972  10.014 -0.4921  0.0821 -0.3159
  149SAPE   C2916479   0.665   6.022   9.804 -0.0296 -0.1406 -0.6309
  149SAPE   H9R16480   0.688   5.921   9.769  1.6750  0.6508 -1.9482
  149SAPE  C21016481   0.644   6.120   9.696  0.1832 -0.7689 -0.0817
  149SAPE  H10R16482   0.734   6.122   9.631 -0.8406 -2.5293 -1.6403
  149SAPE  H10S16483   0.642   6.223   9.738  0.0729 -1.3733  1.4805
  149SAPE  C21116484   0.521   6.085   9.614  0.0785 -0.1621  0.3200
  149SAPE  H11R16485   0.426   6.066   9.666 -0.4773  2.3386  0.3102
  149SAPE  C21216486   0.513   6.097   9.481 -0.4898  0.3407 -0.3416
  149SAPE  H12R16487   0.425   6.056   9.429 -0.5938 -0.6538  0.5757
  149SAPE  C21316488   0.618   6.134   9.378  0.3568 -0.9886 -0.3398
  149SAPE  H13R16489   0.711   6.074   9.384  2.6429  1.8258 -3.5042
  149SAPE  H13S16490   0.657   6.234   9.407  0.0661 -1.2112  0.8766
  149SAPE  C21416491   0.558   6.132   9.236 -0.8864 -0.5256 -0.0662
  149SAPE  H14R16492   0.473   6.198   9.214 -1.9998 -1.3261  1.6076
  149SAPE  C21516493   0.608   6.059   9.132  0.1905 -0.1067 -0.5604
  149SAPE  H15R16494   0.564   6.081   9.033 -0.6531  1.2535  0.0847
  149SAPE  C21616495   0.721   5.965   9.133 -0.2499 -0.6209 -0.3265
  149SAPE  H16R16496   0.721   5.899   9.222 -1.1274 -0.3379 -0.1066
  149SAPE  H16S16497   0.814   6.025   9.142  0.9404 -2.4282 -0.1359
  149SAPE  C21716498   0.703   5.871   9.018 -0.3450  0.1347  0.3927
  149SAPE  H17R16499   0.786   5.799   9.033 -0.7218 -0.4763 -0.3850
  149SAPE  H17S16500   0.724   5.903   8.914  0.9177 -0.5202  0.4273
  149SAPE  C21816501   0.586   5.775   9.025  0.2362  0.5432  0.1699
  149SAPE  H18R16502   0.485   5.816   9.003 -0.4370  0.5422  2.8488
  149SAPE  H18S16503   0.586   5.736   9.130  1.5417 -0.0233 -0.0221
  149SAPE  C21916504   0.612   5.653   8.926  0.2185 -0.6686 -0.0616
  149SAPE  H19R16505   0.546   5.569   8.957 -1.6076  0.0061 -1.8885
  149SAPE  H19S16506   0.715   5.614   8.938  0.0360 -0.5998  2.1630
  149SAPE  C22016507   0.591   5.679   8.780 -0.4503  0.3683 -0.6275
  149SAPE  H20R16508   0.496   5.727   8.749 -0.5538 -0.2103 -1.2413
  149SAPE  H20S16509   0.587   5.581   8.728 -0.6601 -0.9356  1.7067
  149SAPE  H20T16510   0.669   5.750   8.744 -0.9991  1.3944  0.1671
  149SAPE   C3316511   0.793   6.573  10.343  0.4284 -0.1398 -0.3483
  149SAPE   H3X16512   0.688   6.542  10.356  0.7812 -2.6590 -2.5830
  149SAPE   H3Y16513   0.850   6.480  10.326 -1.8397 -1.8278  0.8201
  149SAPE   C3416514   0.808   6.656  10.212 -0.1638  0.1690 -0.7473
  149SAPE   H4X16515   0.912   6.678  10.179 -1.0894  1.6260 -2.9151
  149SAPE   H4Y16516   0.772   6.759  10.231  1.4795  0.8587 -1.1963
  149SAPE   C3516517   0.754   6.579  10.090 -0.0266 -0.2856 -1.1267
  149SAPE   H5X16518   0.643   6.574  10.096 -0.2335  3.0567  0.6146
  149SAPE   H5Y16519   0.789   6.474  10.089 -0.0992 -0.3471  0.2828
  149SAPE   C3616520   0.769   6.646   9.952  0.5334 -1.0474  0.7013
  149SAPE   H6X16521   0.860   6.709   9.947 -1.2773  1.6703 -1.5058
  149SAPE   H6Y16522   0.699   6.731   9.936  1.2565 -0.9085 -2.4444
  149SAPE   C3716523   0.748   6.557   9.824 -0.4194 -0.4915 -0.2775
  149SAPE   H7X16524   0.646   6.514   9.814 -0.8542  0.8618 -2.1731
  149SAPE   H7Y16525   0.829   6.482   9.840  1.1480  1.7296  3.4540
  149SAPE   C3816526   0.783   6.629   9.688 -0.2970  0.1858 -0.0533
  149SAPE   H8X16527   0.882   6.678   9.705  1.2945 -2.7650 -0.0539
  149SAPE   H8Y16528   0.713   6.707   9.653 -2.4542 -1.4557  0.3594
  149SAPE   C3916529   0.805   6.524   9.579  0.5820 -0.4637  0.0200
  149SAPE   H9X16530   0.708   6.469   9.573 -0.6011  1.2836  1.7053
  149SAPE   H9Y16531   0.888   6.461   9.617  1.5032  0.5492 -0.2683
  149SAPE  C31016532   0.836   6.595   9.448 -0.1161  0.3364 -0.1283
  149SAPE  H10X16533   0.937   6.640   9.454  0.2269 -0.5616  1.0066
  149SAPE  H10Y16534   0.756   6.669   9.425  1.8707  2.8676  0.6997
  149SAPE  C31116535   0.863   6.496   9.331 -0.3021  0.3271 -0.1102
  149SAPE  H11X16536   0.766   6.445   9.312 -1.5894  2.0282  1.4816
  149SAPE  H11Y16537   0.938   6.421   9.365  1.8813  1.7565 -1.5228
  149SAPE  C31216538   0.924   6.557   9.204 -0.0511  0.2186  0.2832
  149SAPE  H12X16539   0.984   6.479   9.153 -1.2892 -1.1396  0.8274
  149SAPE  H12Y16540   0.980   6.651   9.228 -2.7384  2.1251 -0.4475
  149SAPE  C31316541   0.817   6.602   9.109 -0.5015  0.2496 -0.3709
  149SAPE  H13X16542   0.768   6.695   9.145  0.7128  0.0522  1.9557
  149SAPE  H13Y16543   0.731   6.531   9.110 -1.2086  1.0677 -0.9087
  149SAPE  C31416544   0.866   6.636   8.965  0.5025 -0.6919  0.2922
  149SAPE  H14X16545   0.959   6.696   8.961  0.9788 -1.4886 -2.0430
  149SAPE  H14Y16546   0.785   6.694   8.916  1.3845  0.5330  0.2357
  149SAPE  C31516547   0.884   6.514   8.877  1.1832  0.1280 -0.0783
  149SAPE  H15X16548   0.961   6.445   8.917  1.5558 -0.1076 -1.1712
  149SAPE  H15Y16549   0.905   6.547   8.773 -1.0399  2.2999  0.0710
  149SAPE  C31616550   0.755   6.431   8.850  0.6463 -0.4640  0.3245
  149SAPE  H16X16551   0.674   6.494   8.807  0.8556 -1.1973 -1.2230
  149SAPE  H16Y16552   0.722   6.394   8.949 -0.7901 -1.0088 -0.3297
  149SAPE  C31716553   0.788   6.301   8.769 -0.4894 -0.1622 -0.4269
  149SAPE  H17X16554   0.842   6.320   8.673 -2.5563 -2.1727 -2.0928
  149SAPE  H17Y16555   0.696   6.250   8.732  0.7137 -1.8715 -1.1830
  149SAPE  C31816556   0.878   6.204   8.846  0.2900  0.2802 -0.0590
  149SAPE  H18X16557   0.973   6.249   8.882  0.9070  0.7726 -2.1807
  149SAPE  H18Y16558   0.905   6.127   8.771 -0.1985 -0.1299  0.1837
  149SAPE  H18Z16559   0.823   6.168   8.935 -2.7297  4.4188  0.0545
  150SAPE     N16560   2.467   6.261  10.666 -0.8048 -0.4298  0.3044
  150SAPE   HN116561   2.519   6.235  10.579 -0.2570  1.3026  0.0830
  150SAPE   HN216562   2.511   6.212  10.747  0.6855  1.3371  0.6312
  150SAPE   HN316563   2.381   6.204  10.659 -1.2133 -0.2866  3.1481
  150SAPE   C1216564   2.446   6.411  10.678  0.6953  0.8063  0.3310
  150SAPE  H12A16565   2.371   6.432  10.757  1.6971  1.5302  1.1158
  150SAPE  H12B16566   2.408   6.449  10.581  1.2720 -0.9456 -0.6338
  150SAPE   C1116567   2.581   6.485  10.718 -0.5004  0.2526 -0.4820
  150SAPE  H11A16568   2.562   6.594  10.730  2.1266  1.3140 -4.2628
  150SAPE  H11B16569   2.647   6.474  10.629  1.9072  1.9878  0.9823
  150SAPE     P16570   2.766   6.465  10.910  0.2969  0.3186 -0.0886
  150SAPE   O1316571   2.736   6.581  10.999  0.1442 -0.2716  0.0192
  150SAPE   O1416572   2.829   6.355  10.980 -0.0302  0.5038 -0.3061
  150SAPE   O1216573   2.633   6.423  10.834  0.3900  0.4677  0.5352
  150SAPE   O1116574   2.860   6.519  10.797  0.2082  0.2228  0.2071
  150SAPE    C116575   2.945   6.429  10.734  0.3169 -0.5737 -0.0828
  150SAPE    HA16576   3.043   6.418  10.785  1.6991 -0.2868 -2.4993
  150SAPE    HB16577   2.904   6.330  10.704  1.7588 -0.9801 -0.8428
  150SAPE    C216578   2.969   6.501  10.601  0.5238  0.3025  0.5921
  150SAPE    HS16579   2.965   6.610  10.618 -0.0861 -0.1441  4.3157
  150SAPE   O2116580   2.867   6.446  10.504 -0.0243  0.0022  0.0189
  150SAPE   C2116581   2.825   6.537  10.416  0.5092  0.4966 -0.1181
  150SAPE   O2216582   2.870   6.648  10.407  0.1426 -0.2665 -0.2741
  150SAPE   C2216583   2.725   6.482  10.313 -0.9047  0.8224 -0.5147
  150SAPE   H2R16584   2.749   6.377  10.287  0.5075  0.3916  2.1984
  150SAPE   H2S16585   2.623   6.475  10.356 -0.3626  1.5583  0.9579
  150SAPE    C316586   3.102   6.462  10.539 -0.0558 -0.3859  0.4480
  150SAPE    HX16587   3.086   6.353  10.523 -3.9810  0.0551  0.5428
  150SAPE    HY16588   3.180   6.474  10.618 -0.2371  0.8748  0.4502
  150SAPE   O3116589   3.131   6.526  10.418 -0.3327 -0.0186  0.2902
  150SAPE   C3116590   3.194   6.642  10.435  0.1630  0.3804 -0.1019
  150SAPE   O3216591   3.222   6.698  10.541  0.1235  0.7534 -0.1386
  150SAPE   C3216592   3.192   6.716  10.304 -0.1317 -0.7224 -0.0151
  150SAPE   H2X16593   3.290   6.765  10.281 -0.4806  0.4160  0.8338
  150SAPE   H2Y16594   3.115   6.795  10.315 -2.2220 -2.2982 -2.3688
  150SAPE   C2316595   2.714   6.567  10.188 -0.0148 -0.5075  0.1798
  150SAPE   H3R16596   2.817   6.572  10.147 -0.7605  0.9669 -1.6932
  150SAPE   H3S16597   2.682   6.672  10.208  1.2374 -0.1842  0.5235
  150SAPE   C2416598   2.625   6.493  10.083  0.1211 -0.0767 -0.5471
  150SAPE   H4R16599   2.516   6.494  10.106 -0.0046 -0.4503 -1.1065
  150SAPE   H4S16600   2.670   6.391  10.082  1.1279  0.3002  1.2736
  150SAPE   C2516601   2.633   6.551   9.945  0.7613 -0.3283 -0.1790
  150SAPE   H5R16602   2.719   6.615   9.920  0.2286  0.7201  0.5953
  150SAPE   C2616603   2.548   6.522   9.842 -0.5574 -0.3153 -0.9343
  150SAPE   H6R16604   2.549   6.576   9.745 -0.2988 -1.4206 -1.5640
  150SAPE   C2716605   2.435   6.418   9.850  0.5656 -0.6530 -0.8444
  150SAPE   H7R16606   2.411   6.400   9.957  0.4746  0.9454 -0.5748
  150SAPE   H7S16607   2.478   6.323   9.812  1.7508  0.3307 -2.0256
  150SAPE   C2816608   2.308   6.461   9.785 -0.1531  0.3593  0.4165
  150SAPE   H8R16609   2.253   6.541   9.837 -0.0377 -1.2920  3.3007
  150SAPE   C2916610   2.253   6.407   9.675  0.0246 -0.6465  0.4013
  150SAPE   H9R16611   2.161   6.449   9.632 -0.3452 -1.0159  0.8208
  150SAPE  C21016612   2.317   6.301   9.592 -0.1726 -0.9240  0.6876
  150SAPE  H10R16613   2.428   6.291   9.601  0.3711  1.4031 -1.9923
  150SAPE  H10S16614   2.319   6.324   9.483 -1.8162 -1.8035  0.4434
  150SAPE  C21116615   2.266   6.162   9.619  0.1121  0.7088  0.4089
  150SAPE  H11R16616   2.275   6.134   9.724  0.9725  1.7243  0.6240
  150SAPE  C21216617   2.202   6.084   9.524  0.5159 -0.1065 -0.2169
  150SAPE  H12R16618   2.182   5.980   9.554 -2.9230 -0.0509 -1.8306
  150SAPE  C21316619   2.171   6.118   9.379  0.4149  0.2998  0.3721
  150SAPE  H13R16620   2.211   6.220   9.366 -1.2947  1.5316  3.6310
  150SAPE  H13S16621   2.060   6.126   9.373  0.2825 -1.4095 -0.0606
  150SAPE  C21416622   2.220   6.032   9.273 -0.2093 -0.3939 -0.4320
  150SAPE  H14R16623   2.260   5.938   9.316 -1.3852 -1.2501 -1.1679
  150SAPE  C21516624   2.222   6.051   9.139 -0.2917 -0.1541 -0.1499
  150SAPE  H15R16625   2.271   5.982   9.069 -0.1099  2.1671 -2.4522
  150SAPE  C21616626   2.170   6.169   9.069  0.2294 -0.3996 -0.4140
  150SAPE  H16R16627   2.261   6.228   9.045 -0.8214  1.9168  0.9646
  150SAPE  H16S16628   2.099   6.228   9.130  0.7566 -1.1489  0.9775
  150SAPE  C21716629   2.108   6.130   8.931  0.1829  0.4843 -0.3074
  150SAPE  H17R16630   2.191   6.085   8.872 -0.8980 -2.4175  0.2464
  150SAPE  H17S16631   2.082   6.222   8.874  0.3864  1.5668  1.2971
  150SAPE  C21816632   2.008   6.021   8.940  0.2734 -1.0764 -0.2687
  150SAPE  H18R16633   1.934   6.047   9.019 -0.3702 -0.1526 -1.1548
  150SAPE  H18S16634   2.059   5.926   8.967  2.3475  0.4057  1.3231
  150SAPE  C21916635   1.941   5.999   8.806  0.7433 -0.4906 -0.2435
  150SAPE  H19R16636   2.018   6.004   8.726 -0.0668 -0.6258 -1.0567
  150SAPE  H19S16637   1.876   6.085   8.780  1.2020 -0.4910 -1.4674
  150SAPE  C22016638   1.851   5.871   8.797 -0.2459 -0.1177 -0.4440
  150SAPE  H20R16639   1.787   5.877   8.706 -0.1349  1.1346 -0.4599
  150SAPE  H20S16640   1.779   5.864   8.880 -1.1162  1.5431 -1.0110
  150SAPE  H20T16641   1.922   5.785   8.798  0.8350  0.7106  2.3679
  150SAPE   C3316642   3.166   6.636  10.177 -0.5208  0.4936  0.5068
  150SAPE   H3X16643   3.074   6.573  10.175  0.0017 -0.2933 -1.0178
  150SAPE   H3Y16644   3.256   6.571  10.166 -0.3245  0.9476 -0.7509
  150SAPE   C3416645   3.144   6.720  10.051 -0.4970  0.7260  0.8339
  150SAPE   H4X16646   3.218   6.803  10.050 -0.1193  0.4296 -1.7850
  150SAPE   H4Y16647   3.044   6.767  10.064 -0.7169  0.3435  0.5202
  150SAPE   C3516648   3.168   6.659   9.920 -0.4535 -0.2627 -0.7865
  150SAPE   H5X16649   3.276   6.630   9.925 -0.3062  0.5294  2.2144
  150SAPE   H5Y16650   3.146   6.731   9.839 -0.2218  0.6242 -0.0686
  150SAPE   C3616651   3.088   6.536   9.904  0.6674  0.1928  0.2954
  150SAPE   H6X16652   2.985   6.547   9.945  1.3473  1.4035  1.7794
  150SAPE   H6Y16653   3.127   6.449   9.962  0.8139  0.0693  0.0127
  150SAPE   C3716654   3.082   6.484   9.759  0.2018 -0.6195 -0.3732
  150SAPE   H7X16655   3.073   6.374   9.762  0.5170 -0.6448  3.1871
  150SAPE   H7Y16656   3.178   6.486   9.702  0.5462 -2.4089  0.0992
  150SAPE   C3816657   2.961   6.544   9.677 -0.0085 -0.2498 -0.0910
  150SAPE   H8X16658   2.952   6.654   9.687  1.0506 -0.0751 -0.8602
  150SAPE   H8Y16659   2.866   6.502   9.715 -1.0543  1.4904 -0.7025
  150SAPE   C3916660   2.983   6.515   9.526 -0.4060  0.5525 -0.1741
  150SAPE   H9X16661   2.956   6.409   9.507  0.4391  0.3648 -0.3845
  150SAPE   H9Y16662   3.092   6.532   9.508 -0.2317  1.5063  1.5481
  150SAPE  C31016663   2.907   6.601   9.425  0.8936 -0.0870  0.1098
  150SAPE  H10X16664   2.946   6.705   9.419  0.4709  0.0199 -4.2273
  150SAPE  H10Y16665   2.803   6.603   9.463  0.1609  2.3999 -1.7435
  150SAPE  C31116666   2.908   6.553   9.281 -0.0139  0.3985  0.7538
  150SAPE  H11X16667   2.884   6.445   9.284  3.1234 -0.3959  1.6878
  150SAPE  H11Y16668   3.014   6.562   9.249 -0.1810  0.6676  0.2641
  150SAPE  C31216669   2.808   6.620   9.189  0.4235  0.1061  0.2141
  150SAPE  H12X16670   2.700   6.614   9.213 -0.1764 -1.1585 -2.4770
  150SAPE  H12Y16671   2.816   6.551   9.103 -1.3742 -0.2289  0.2749
  150SAPE  C31316672   2.857   6.761   9.151  0.5298  0.2890  0.9022
  150SAPE  H13X16673   2.956   6.759   9.101  0.3712  1.6657  0.5037
  150SAPE  H13Y16674   2.860   6.837   9.232  0.8504  0.6604  0.5450
  150SAPE  C31416675   2.752   6.806   9.042 -0.8595 -0.4403 -0.5841
  150SAPE  H14X16676   2.657   6.842   9.089 -1.6199 -1.6258 -1.1588
  150SAPE  H14Y16677   2.734   6.712   8.986 -0.2207 -2.1262  1.8699
  150SAPE  C31516678   2.805   6.922   8.952 -0.2215  0.8484  0.9458
  150SAPE  H15X16679   2.730   6.943   8.873  1.5418 -0.3822 -1.1840
  150SAPE  H15Y16680   2.895   6.882   8.901 -0.0182  1.2298  0.9948
  150SAPE  C31616681   2.840   7.055   9.025  0.0076  0.0571  0.4725
  150SAPE  H16X16682   2.945   7.046   9.059  0.1986 -0.7746 -0.2907
  150SAPE  H16Y16683   2.775   7.087   9.110 -0.6520 -0.1545  0.0598
  150SAPE  C31716684   2.846   7.174   8.938 -0.3932 -1.0166  0.1491
  150SAPE  H17X16685   2.870   7.270   8.988  1.0251 -0.3409 -1.7010
  150SAPE  H17Y16686   2.751   7.181   8.882  0.0305 -0.9127 -0.5732
  150SAPE  C31816687   2.956   7.166   8.827  0.3246 -0.2697  0.7146
  150SAPE  H18X16688   2.925   7.097   8.745 -0.6015  0.6467  0.2743
  150SAPE  H18Y16689   3.059   7.135   8.853  0.0628 -2.1549 -0.2899
  150SAPE  H18Z16690   2.955   7.265   8.777 -2.6046 -0.9868 -0.8606
  151SAPE     N16691   0.298   2.769  10.520  0.8553  0.2669 -0.4999
  151SAPE   HN116692   0.267   2.787  10.422 -0.2979 -0.3162 -0.2643
  151SAPE   HN216693   0.230   2.816  10.583 -1.2802 -0.4793 -2.1288
  151SAPE   HN316694   0.395   2.806  10.528  1.2145 -0.8750  0.7216
  151SAPE   C1216695   0.305   2.623  10.565  0.3581  0.2882  0.2431
  151SAPE  H12A16696   0.210   2.576  10.597 -0.3697  0.5637 -1.4031
  151SAPE  H12B16697   0.370   2.620  10.655 -0.0285  2.9258  0.6857
  151SAPE   C1116698   0.376   2.552  10.446 -0.0878  0.3729  0.0483
  151SAPE  H11A16699   0.321   2.588  10.357 -0.9469  0.5333  0.6292
  151SAPE  H11B16700   0.357   2.442  10.446  0.8999  0.1825  0.3472
  151SAPE     P16701   0.619   2.476  10.491 -0.6735  0.1854  0.2246
  151SAPE   O1316702   0.760   2.521  10.462  0.1176  0.4676  0.1551
  151SAPE   O1416703   0.598   2.448  10.634 -0.0348  0.3062  0.0370
  151SAPE   O1216704   0.515   2.583  10.439  0.3238  0.2708 -0.8340
  151SAPE   O1116705   0.583   2.343  10.411 -0.1675  0.2158  0.4038
  151SAPE    C116706   0.587   2.339  10.260 -0.4651 -0.5226 -0.2828
  151SAPE    HA16707   0.527   2.417  10.207 -0.1229 -0.0741 -0.0166
  151SAPE    HB16708   0.692   2.353  10.226 -0.6217  2.5065  0.2382
  151SAPE    C216709   0.526   2.212  10.197  0.2388  0.2222 -1.1013
  151SAPE    HS16710   0.573   2.121  10.239 -1.2530 -0.6556 -1.2384
  151SAPE   O2116711   0.543   2.219  10.056  0.1270 -0.2065 -0.1882
  151SAPE   C2116712   0.545   2.099   9.994 -0.0739 -0.2707 -0.0682
  151SAPE   O2216713   0.530   1.991  10.051 -0.0023  0.0859  0.8025
  151SAPE   C2216714   0.530   2.121   9.844 -0.4755  0.0618 -0.2857
  151SAPE   H2R16715   0.538   2.226   9.808 -2.1517  0.2940 -0.0265
  151SAPE   H2S16716   0.623   2.077   9.801  1.0305  2.8038 -0.0694
  151SAPE    C316717   0.379   2.203  10.234 -0.1190 -0.9360  0.3236
  151SAPE    HX16718   0.362   2.193  10.343 -1.0606  1.2105  0.4290
  151SAPE    HY16719   0.344   2.109  10.186 -0.3284 -0.4375 -0.5172
  151SAPE   O3116720   0.299   2.313  10.189  0.1000 -0.2477 -0.1109
  151SAPE   C3116721   0.171   2.310  10.220  0.7930  0.8586 -0.2438
  151SAPE   O3216722   0.113   2.217  10.272 -0.0039 -0.1601  0.1455
  151SAPE   C3216723   0.099   2.443  10.203 -0.3797 -0.6437 -0.3963
  151SAPE   H2X16724   0.155   2.502  10.128  0.9783 -0.9869  0.3161
  151SAPE   H2Y16725   0.111   2.497  10.300  0.4381 -1.5800  0.0370
  151SAPE   C2316726   0.399   2.065   9.795 -0.1799  0.4215  0.2389
  151SAPE   H3R16727   0.307   2.110   9.840 -1.0979  0.1507 -1.3082
  151SAPE   H3S16728   0.394   1.958   9.828  1.0741  0.5740  1.0077
  151SAPE   C2416729   0.389   2.066   9.639  0.1452 -0.2646  0.5923
  151SAPE   H4R16730   0.311   1.990   9.618 -1.1592  0.6468  1.9290
  151SAPE   H4S16731   0.481   2.011   9.611 -0.7141 -1.0065 -0.8762
  151SAPE   C2516732   0.393   2.197   9.563 -0.2216  0.1618 -0.8757
  151SAPE   H5R16733   0.478   2.257   9.598 -0.6978  0.8895 -0.9603
  151SAPE   C2616734   0.305   2.241   9.472 -1.0188  0.0306  0.7632
  151SAPE   H6R16735   0.335   2.328   9.412  0.9327 -0.9995  0.1311
  151SAPE   C2716736   0.185   2.172   9.415  0.2373  0.1376 -0.6340
  151SAPE   H7R16737   0.109   2.195   9.492  1.8314 -1.2823  1.4884
  151SAPE   H7S16738   0.191   2.061   9.411 -4.3821 -0.2703 -1.8978
  151SAPE   C2816739   0.128   2.215   9.277  0.1276 -0.6577  0.4823
  151SAPE   H8R16740   0.085   2.316   9.277 -0.0612 -0.6646 -2.4598
  151SAPE   C2916741   0.130   2.136   9.164 -0.3236 -0.2174  0.1010
  151SAPE   H9R16742   0.095   2.170   9.065  1.0977 -2.1923 -1.1495
  151SAPE  C21016743   0.187   1.998   9.153 -0.2739  0.0095  0.5773
  151SAPE  H10R16744   0.187   1.976   9.045  1.2453  0.2967  0.5010
  151SAPE  H10S16745   0.111   1.929   9.195 -1.3532  0.7409 -0.1437
  151SAPE  C21116746   0.317   1.970   9.210 -0.0562 -0.2033  0.2246
  151SAPE  H11R16747   0.384   2.058   9.203 -0.7419  0.2694 -0.5141
  151SAPE  C21216748   0.360   1.851   9.250 -0.1852  0.7585 -0.4953
  151SAPE  H12R16749   0.461   1.850   9.296 -0.2710  1.5401 -0.2736
  151SAPE  C21316750   0.279   1.729   9.267  0.3610 -0.1627 -0.2845
  151SAPE  H13R16751   0.331   1.641   9.223  0.0284 -0.9517  0.8414
  151SAPE  H13S16752   0.193   1.729   9.197 -0.2804 -1.3772  0.4595
  151SAPE  C21416753   0.234   1.690   9.400  0.2345 -0.0642 -0.2637
  151SAPE  H14R16754   0.124   1.685   9.407  0.2707 -1.6553 -0.4384
  151SAPE  C21516755   0.308   1.643   9.506  0.1812  0.8862 -0.7425
  151SAPE  H15R16756   0.254   1.618   9.599  1.4664  0.3290 -0.1259
  151SAPE  C21616757   0.454   1.622   9.507 -1.2555  0.2911 -0.7032
  151SAPE  H16R16758   0.500   1.674   9.420  3.6497  0.9886  1.9465
  151SAPE  H16S16759   0.482   1.514   9.499  2.2020  1.0514 -0.6556
  151SAPE  C21716760   0.529   1.677   9.634 -0.1581  0.9793  0.6832
  151SAPE  H17R16761   0.498   1.783   9.648 -5.7286 -0.4918  2.2652
  151SAPE  H17S16762   0.639   1.679   9.617 -0.0542 -0.7148  0.9410
  151SAPE  C21816763   0.488   1.596   9.757  0.1605  0.0433 -0.1893
  151SAPE  H18R16764   0.542   1.502   9.733  0.7812  0.1602  0.6953
  151SAPE  H18S16765   0.379   1.576   9.762  0.0075  0.3398 -1.6590
  151SAPE  C21916766   0.539   1.643   9.894 -0.0939 -0.3193  0.3862
  151SAPE  H19R16767   0.503   1.568   9.968 -0.0005 -0.3665  0.3841
  151SAPE  H19S16768   0.495   1.740   9.927  0.4849 -0.3936  1.4256
  151SAPE  C22016769   0.691   1.661   9.904 -0.8906 -0.2645  0.1140
  151SAPE  H20R16770   0.727   1.754   9.855 -0.8141 -1.7219 -2.8105
  151SAPE  H20S16771   0.754   1.578   9.867 -0.3754  0.8791 -1.6605
  151SAPE  H20T16772   0.724   1.654  10.010 -1.3238  1.4429  0.3885
  151SAPE   C3316773  -0.054   2.446  10.175 -0.5721  0.2071  0.1178
  151SAPE   H3X16774  -0.092   2.549  10.189  0.9287  0.9901 -1.2239
  151SAPE   H3Y16775  -0.106   2.386  10.253 -0.2741  0.4914  0.5418
  151SAPE   C3416776  -0.098   2.395  10.039 -0.6039 -0.6549  0.9889
  151SAPE   H4X16777  -0.209   2.397  10.036 -0.5869  0.5303 -1.1626
  151SAPE   H4Y16778  -0.071   2.288  10.031  1.1894 -0.1090 -1.5136
  151SAPE   C3516779  -0.043   2.473   9.911 -0.3309 -0.6934 -0.0812
  151SAPE   H5X16780   0.068   2.475   9.911 -0.2577 -2.4822  0.7103
  151SAPE   H5Y16781  -0.082   2.577   9.916  1.0606 -0.1375 -0.4036
  151SAPE   C3616782  -0.091   2.406   9.780  0.0101 -0.2833 -0.0225
  151SAPE   H6X16783  -0.197   2.378   9.799 -0.2291  1.0883  0.8016
  151SAPE   H6Y16784  -0.032   2.312   9.772  1.5456  0.7691 -2.0932
  151SAPE   C3716785  -0.082   2.485   9.650  0.0715  0.3975 -0.5610
  151SAPE   H7X16786   0.026   2.490   9.624  0.5308 -1.5813  0.7608
  151SAPE   H7Y16787  -0.125   2.582   9.683  0.5947  0.6151 -0.4945
  151SAPE   C3816788  -0.164   2.415   9.536 -0.1850 -0.3265  0.0905
  151SAPE   H8X16789  -0.269   2.394   9.566 -0.8396  1.8304 -0.4568
  151SAPE   H8Y16790  -0.115   2.318   9.515  1.5335  0.2553  1.2281
  151SAPE   C3916791  -0.186   2.502   9.403  0.2792 -0.1057  0.0316
  151SAPE   H9X16792  -0.090   2.501   9.348  0.5450 -1.1996  0.4742
  151SAPE   H9Y16793  -0.209   2.604   9.441  1.2526  0.7915 -1.6813
  151SAPE  C31016794  -0.306   2.447   9.318 -0.1779  0.2824  0.0222
  151SAPE  H10X16795  -0.397   2.439   9.381  0.7111  0.7581  1.4323
  151SAPE  H10Y16796  -0.288   2.342   9.288 -0.8472  0.2972 -0.4311
  151SAPE  C31116797  -0.333   2.530   9.187  0.0336  0.3060  0.1521
  151SAPE  H11X16798  -0.234   2.571   9.156 -0.0148 -0.0947 -0.5587
  151SAPE  H11Y16799  -0.398   2.612   9.224 -1.4556 -0.6500 -0.2842
  151SAPE  C31216800  -0.399   2.448   9.082  0.0250  1.1396  0.0065
  151SAPE  H12X16801  -0.499   2.412   9.114 -0.3899  0.4750 -1.9254
  151SAPE  H12Y16802  -0.340   2.354   9.068  0.9892  1.8830 -1.1046
  151SAPE  C31316803  -0.416   2.516   8.939 -0.0439  0.1926 -0.6456
  151SAPE  H13X16804  -0.470   2.458   8.862 -0.5873  1.1017 -0.9719
  151SAPE  H13Y16805  -0.311   2.529   8.904  0.6754 -0.9941  0.9216
  151SAPE  C31416806  -0.499   2.640   8.968  0.0992  0.3670 -0.1612
  151SAPE  H14X16807  -0.455   2.713   9.039  0.1197  0.6316 -0.4428
  151SAPE  H14Y16808  -0.589   2.604   9.023  0.3127  1.8100  1.2367
  151SAPE  C31516809  -0.553   2.710   8.846 -0.0712 -0.3968  0.3584
  151SAPE  H15X16810  -0.604   2.806   8.864 -0.9513 -0.7302 -0.2571
  151SAPE  H15Y16811  -0.630   2.641   8.803  0.9795 -2.0779  1.0566
  151SAPE  C31616812  -0.450   2.747   8.734 -0.2880 -0.4911 -0.0283
  151SAPE  H16X16813  -0.516   2.784   8.653 -0.1384  0.8880  0.4569
  151SAPE  H16Y16814  -0.400   2.654   8.697  2.6436  1.5627 -1.6062
  151SAPE  C31716815  -0.339   2.851   8.765  0.8104  0.5585  0.9194
  151SAPE  H17X16816  -0.286   2.866   8.669 -2.4725  0.3885 -1.0910
  151SAPE  H17Y16817  -0.269   2.795   8.830  0.9861  1.1577  1.2547
  151SAPE  C31816818  -0.367   2.989   8.824 -0.1237 -0.4432 -0.4544
  151SAPE  H18X16819  -0.447   2.988   8.901  0.5459 -0.9699  0.2598
  151SAPE  H18Y16820  -0.402   3.058   8.745  0.2741  2.1474  1.5276
  151SAPE  H18Z16821  -0.270   3.033   8.855 -0.9939  0.3500  1.3083
  152SAPE     N16822   1.416   2.572  10.972 -0.4445 -0.2919 -0.1800
  152SAPE   HN116823   1.372   2.662  11.000  2.0702  0.1985  2.7142
  152SAPE   HN216824   1.459   2.528  11.056 -0.0923  0.4993  0.0649
  152SAPE   HN316825   1.486   2.600  10.900 -2.9169  0.3057 -2.5102
  152SAPE   C1216826   1.314   2.482  10.901 -0.2464  0.1875 -0.4238
  152SAPE  H12A16827   1.215   2.491  10.951  0.3964 -0.1194  0.9339
  152SAPE  H12B16828   1.347   2.377  10.905  2.5105  0.9902  0.0609
  152SAPE   C1116829   1.282   2.526  10.758  0.2477 -0.1880  0.9496
  152SAPE  H11A16830   1.191   2.471  10.727  0.5315 -0.8563  1.2742
  152SAPE  H11B16831   1.356   2.494  10.682 -1.0127  1.2355 -0.9701
  152SAPE     P16832   1.218   2.740  10.619 -0.2208  0.0365 -0.1486
  152SAPE   O1316833   1.079   2.685  10.602  0.3072 -0.6973  0.0665
  152SAPE   O1416834   1.232   2.887  10.628  0.0937  0.6585 -0.0873
  152SAPE   O1216835   1.275   2.677  10.755 -0.1142  0.0733  0.2417
  152SAPE   O1116836   1.307   2.677  10.504  0.5488  0.0475  0.4784
  152SAPE    C116837   1.449   2.717  10.495  0.8949 -0.1823  0.1398
  152SAPE    HA16838   1.491   2.782  10.575  1.1620 -0.3389  0.1294
  152SAPE    HB16839   1.505   2.621  10.504 -0.2582 -0.6870  2.8030
  152SAPE    C216840   1.476   2.793  10.366 -0.2052  0.6707 -0.0961
  152SAPE    HS16841   1.399   2.873  10.361  0.4990  1.2626 -2.3923
  152SAPE   O2116842   1.465   2.701  10.248 -0.2506  0.4019 -0.2733
  152SAPE   C2116843   1.337   2.680  10.210 -0.0211 -0.1439 -0.5777
  152SAPE   O2216844   1.245   2.756  10.243 -0.4168  0.2034 -0.2158
  152SAPE   C2216845   1.319   2.556  10.129  0.0361 -0.2142  0.4661
  152SAPE   H2R16846   1.406   2.489  10.146 -0.6500 -0.9839  1.0330
  152SAPE   H2S16847   1.223   2.514  10.168  0.3121  0.0928  1.4927
  152SAPE    C316848   1.611   2.869  10.372  0.3404 -0.7313 -0.5274
  152SAPE    HX16849   1.685   2.791  10.400 -0.1460 -0.7430  0.7794
  152SAPE    HY16850   1.612   2.944  10.454 -0.8850 -0.0311 -1.1267
  152SAPE   O3116851   1.655   2.933  10.249 -0.6763  0.1784  0.2044
  152SAPE   C3116852   1.779   2.975  10.261 -0.2406  0.3222 -0.0201
  152SAPE   O3216853   1.849   2.977  10.362  0.4554  0.3443 -0.7394
  152SAPE   C3216854   1.820   3.029  10.122 -0.1191  0.4686  0.1190
  152SAPE   H2X16855   1.735   3.097  10.100 -1.9264 -1.5558  0.6159
  152SAPE   H2Y16856   1.835   2.944  10.052 -0.3629 -0.3272  1.0238
  152SAPE   C2316857   1.316   2.589   9.974  0.5293  0.2160 -0.8417
  152SAPE   H3R16858   1.415   2.630   9.944  1.0250 -1.3037 -1.3427
  152SAPE   H3S16859   1.242   2.666   9.943  2.1890  1.1283 -2.8043
  152SAPE   C2416860   1.286   2.462   9.895 -0.2314 -0.7832  0.9710
  152SAPE   H4R16861   1.270   2.498   9.791  3.6512 -1.7413 -0.1381
  152SAPE   H4S16862   1.186   2.420   9.918 -0.6895 -1.1924 -1.5264
  152SAPE   C2516863   1.396   2.364   9.886 -0.7335  0.0061 -0.8977
  152SAPE   H5R16864   1.458   2.363   9.977  0.3995  1.2219 -1.6137
  152SAPE   C2616865   1.435   2.290   9.780 -0.2406 -0.8572 -0.4326
  152SAPE   H6R16866   1.512   2.214   9.795  1.3525  1.0120  1.6815
  152SAPE   C2716867   1.365   2.295   9.652  0.0450  0.0863  0.8460
  152SAPE   H7R16868   1.431   2.340   9.575  0.9683 -0.9302  1.0342
  152SAPE   H7S16869   1.271   2.355   9.652 -3.4356 -4.7157 -0.5207
  152SAPE   C2816870   1.320   2.159   9.604  0.3538 -0.1368  0.4616
  152SAPE   H8R16871   1.318   2.076   9.677  2.0998  0.5490  1.3453
  152SAPE   C2916872   1.278   2.133   9.478 -0.6818  0.1737 -0.5436
  152SAPE   H9R16873   1.259   2.026   9.460 -0.9126 -0.3349  2.2151
  152SAPE  C21016874   1.263   2.237   9.366  0.0954  0.2389  0.3412
  152SAPE  H10R16875   1.310   2.189   9.278  0.1196  0.4121  0.2602
  152SAPE  H10S16876   1.311   2.334   9.392 -2.4515  1.1749  1.9616
  152SAPE  C21116877   1.118   2.260   9.333  0.1711 -0.5213 -0.1248
  152SAPE  H11R16878   1.043   2.231   9.409 -1.3659 -0.7891 -1.6785
  152SAPE  C21216879   1.060   2.297   9.224  0.2659  0.1079  0.2121
  152SAPE  H12R16880   0.951   2.313   9.221  0.5315  2.0535 -1.3973
  152SAPE  C21316881   1.127   2.330   9.091  0.4705  0.4768 -0.8584
  152SAPE  H13R16882   1.055   2.312   9.008 -2.8116  0.2821  1.7969
  152SAPE  H13S16883   1.211   2.262   9.067  1.3214  1.2154 -0.0389
  152SAPE  C21416884   1.178   2.469   9.081 -0.5229  0.3068  0.1009
  152SAPE  H14R16885   1.203   2.520   9.176 -1.5688  1.1211 -0.0298
  152SAPE  C21516886   1.170   2.542   8.972  0.3858 -0.1639  0.0187
  152SAPE  H15R16887   1.215   2.642   8.961  1.1973 -0.6002 -0.8165
  152SAPE  C21616888   1.105   2.493   8.840  0.1471 -0.5035 -0.4890
  152SAPE  H16R16889   1.013   2.554   8.832 -0.2100 -0.9076  0.3830
  152SAPE  H16S16890   1.079   2.385   8.839  1.0673 -0.8567  2.4504
  152SAPE  C21716891   1.198   2.522   8.723 -0.7543  0.0728 -0.1658
  152SAPE  H17R16892   1.164   2.444   8.652 -0.2725 -1.0167  0.7590
  152SAPE  H17S16893   1.302   2.498   8.754 -1.1347  0.3460  1.4422
  152SAPE  C21816894   1.192   2.670   8.668 -0.0089  0.2093  0.3221
  152SAPE  H18R16895   1.223   2.739   8.749 -1.1650 -0.1969  1.1389
  152SAPE  H18S16896   1.089   2.709   8.652  0.0699  0.2379 -0.1229
  152SAPE  C21916897   1.257   2.679   8.528  0.5184 -0.0345 -0.4830
  152SAPE  H19R16898   1.224   2.596   8.462  1.4261 -0.7534 -0.0482
  152SAPE  H19S16899   1.366   2.667   8.543  0.5548  0.4494 -0.3504
  152SAPE  C22016900   1.230   2.804   8.449  0.4456 -0.0061 -0.1409
  152SAPE  H20R16901   1.129   2.845   8.466 -0.4636 -1.2347 -2.1273
  152SAPE  H20S16902   1.244   2.795   8.339 -1.0188 -0.1540 -0.3264
  152SAPE  H20T16903   1.295   2.890   8.476  0.4494  0.2183 -0.8364
  152SAPE   C3316904   1.957   3.094  10.112 -0.0597 -0.5048 -0.7420
  152SAPE   H3X16905   2.040   3.021  10.102  0.4894 -0.0891  0.5267
  152SAPE   H3Y16906   1.985   3.170  10.189  0.9312 -1.3051 -0.2889
  152SAPE   C3416907   1.965   3.159   9.975 -0.6071  0.1731 -0.0795
  152SAPE   H4X16908   1.879   3.230   9.973  0.7675  2.0751  2.1797
  152SAPE   H4Y16909   1.962   3.087   9.891  1.0959  1.5406 -1.3929
  152SAPE   C3516910   2.074   3.264   9.933 -0.4277  0.1798 -0.6185
  152SAPE   H5X16911   2.173   3.214   9.934 -1.0986 -1.2430  1.0513
  152SAPE   H5Y16912   2.086   3.328  10.023 -0.5559  0.6608 -0.9438
  152SAPE   C3616913   2.053   3.350   9.815 -0.3750  0.7689  0.8458
  152SAPE   H6X16914   2.126   3.433   9.833  0.5649 -0.1648  1.4430
  152SAPE   H6Y16915   1.949   3.384   9.797 -0.5849  0.4511  1.4370
  152SAPE   C3716916   2.088   3.272   9.685  0.0625  0.0552 -0.3263
  152SAPE   H7X16917   2.062   3.165   9.703  1.2792 -0.1440  0.3895
  152SAPE   H7Y16918   2.199   3.268   9.674  0.1100 -1.5966  0.3313
  152SAPE   C3816919   2.033   3.319   9.552 -0.5433 -0.0115  0.3750
  152SAPE   H8X16920   2.094   3.285   9.465  0.5299 -0.4970  1.2932
  152SAPE   H8Y16921   2.029   3.430   9.551 -1.8979 -0.0345 -1.2030
  152SAPE   C3916922   1.894   3.263   9.514 -0.0242  0.2156  0.3496
  152SAPE   H9X16923   1.818   3.309   9.581 -0.0115  2.0696 -0.8179
  152SAPE   H9Y16924   1.894   3.154   9.535 -1.5691  0.3898  1.3914
  152SAPE  C31016925   1.855   3.279   9.366 -0.1645  0.5064  0.6231
  152SAPE  H10X16926   1.931   3.238   9.296 -2.0003 -0.5637 -0.8590
  152SAPE  H10Y16927   1.842   3.385   9.335 -0.3229  0.5986  1.0062
  152SAPE  C31116928   1.725   3.207   9.335 -0.5743  0.6982 -0.6005
  152SAPE  H11X16929   1.648   3.240   9.408 -0.2834 -2.1841  1.1692
  152SAPE  H11Y16930   1.727   3.096   9.345  0.9449  0.7371 -0.2649
  152SAPE  C31216931   1.665   3.224   9.189  0.4838  0.6483  0.3288
  152SAPE  H12X16932   1.601   3.135   9.176 -1.2613  1.8614  0.3600
  152SAPE  H12Y16933   1.745   3.229   9.111 -0.8722  2.5949 -1.0568
  152SAPE  C31316934   1.577   3.349   9.172 -0.0265  0.3903  0.4213
  152SAPE  H13X16935   1.609   3.430   9.241 -0.0794 -0.2993  1.2724
  152SAPE  H13Y16936   1.473   3.329   9.206  0.0740 -0.1526  0.4226
  152SAPE  C31416937   1.597   3.409   9.032  0.0665 -0.0575 -0.1283
  152SAPE  H14X16938   1.556   3.330   8.966 -1.4377  0.5731  0.0321
  152SAPE  H14Y16939   1.705   3.422   9.009  0.0277 -0.6157 -0.6557
  152SAPE  C31516940   1.528   3.548   9.014 -1.4573  0.0486  0.1121
  152SAPE  H15X16941   1.592   3.619   9.070 -0.2490 -2.1711  1.7162
  152SAPE  H15Y16942   1.423   3.551   9.052 -1.4452 -0.0025  0.1498
  152SAPE  C31616943   1.516   3.586   8.867  0.6632 -0.3433 -0.0717
  152SAPE  H16X16944   1.610   3.566   8.811 -0.2585 -0.4946 -1.6434
  152SAPE  H16Y16945   1.482   3.692   8.869 -0.0788 -0.5798  0.4617
  152SAPE  C31716946   1.404   3.517   8.792  0.2309 -0.7021 -0.0644
  152SAPE  H17X16947   1.307   3.527   8.845  0.4339 -2.8882  0.8238
  152SAPE  H17Y16948   1.425   3.408   8.789 -1.1027 -1.0194  1.2641
  152SAPE  C31816949   1.373   3.560   8.649 -0.6509 -0.3067  0.2499
  152SAPE  H18X16950   1.334   3.664   8.658  1.4989  0.7759 -1.8930
  152SAPE  H18Y16951   1.301   3.489   8.603 -1.4752 -0.4374  1.6961
  152SAPE  H18Z16952   1.459   3.560   8.578 -1.0841  0.7359 -0.2913
  153SAPE     N16953   0.403   3.342  10.815 -0.2308 -0.2345  0.2374
  153SAPE   HN116954   0.474   3.414  10.795 -0.5744 -0.2052 -0.9707
  153SAPE   HN216955   0.428   3.309  10.911 -0.6563  3.4197  1.7734
  153SAPE   HN316956   0.419   3.266  10.746 -0.0383 -1.3978  1.5071
  153SAPE   C1216957   0.258   3.376  10.817  1.0529 -0.3507 -0.4591
  153SAPE  H12A16958   0.236   3.413  10.714  1.2057 -0.7881 -0.6518
  153SAPE  H12B16959   0.243   3.445  10.902  1.8051 -1.6339  0.7535
  153SAPE   C1116960   0.169   3.246  10.826 -0.0324 -0.0235 -0.1419
  153SAPE  H11A16961   0.067   3.278  10.856 -0.6033 -2.0601  0.2341
  153SAPE  H11B16962   0.210   3.185  10.910  1.7773  1.7720  0.3426
  153SAPE     P16963   0.089   3.040  10.696  0.2082  0.4386 -0.3395
  153SAPE   O1316964   0.186   2.927  10.704 -0.3235  0.1414  0.8173
  153SAPE   O1416965  -0.008   3.032  10.808 -0.1316 -0.2440  0.4850
  153SAPE   O1216966   0.168   3.171  10.711  0.3083  0.1399  0.8588
  153SAPE   O1116967   0.011   3.051  10.558  0.6516 -0.3919  0.3611
  153SAPE    C116968  -0.061   3.171  10.513 -0.0259 -0.2230  0.0134
  153SAPE    HA16969  -0.104   3.231  10.597 -0.5705  2.3664 -1.9656
  153SAPE    HB16970   0.012   3.237  10.461  0.1552 -1.9298 -2.0312
  153SAPE    C216971  -0.186   3.136  10.433  0.3623  0.3920 -0.0579
  153SAPE    HS16972  -0.247   3.077  10.504 -0.8296  0.4801 -0.9778
  153SAPE   O2116973  -0.159   3.061  10.315  0.2934  0.1575  0.2157
  153SAPE   C2116974  -0.144   2.935  10.322  0.7876  0.0372 -0.3245
  153SAPE   O2216975  -0.153   2.865  10.423  0.2696 -0.0853 -0.4870
  153SAPE   C2216976  -0.099   2.866  10.191 -0.0417 -0.5488  0.2184
  153SAPE   H2R16977   0.012   2.877  10.191  0.0438 -1.0269  2.1578
  153SAPE   H2S16978  -0.127   2.759  10.202  2.2747 -1.2447 -0.0043
  153SAPE    C316979  -0.269   3.267  10.389 -0.1994 -0.0293 -0.3880
  153SAPE    HX16980  -0.206   3.353  10.357 -0.9564  0.1497 -1.4403
  153SAPE    HY16981  -0.308   3.300  10.487 -0.5986  0.2485 -0.6371
  153SAPE   O3116982  -0.381   3.226  10.306 -0.0090 -0.2634  0.5419
  153SAPE   C3116983  -0.357   3.239  10.177 -0.3836 -0.3015 -0.5029
  153SAPE   O3216984  -0.259   3.290  10.130 -0.5499  0.4124  0.2152
  153SAPE   C3216985  -0.466   3.179  10.087 -0.3777  0.8325  0.2079
  153SAPE   H2X16986  -0.567   3.220  10.109 -0.5626 -0.3046  1.5310
  153SAPE   H2Y16987  -0.465   3.072  10.115  1.1552  1.3198  2.2682
  153SAPE   C2316988  -0.177   2.931  10.074  0.0799  0.2859  0.0378
  153SAPE   H3R16989  -0.154   3.037  10.050  0.7164 -0.0978 -1.1300
  153SAPE   H3S16990  -0.288   2.932  10.084  0.2037 -0.0426  1.8665
  153SAPE   C2416991  -0.143   2.856   9.940 -0.2408  0.6476  0.2509
  153SAPE   H4R16992  -0.210   2.872   9.853 -0.5079  1.9274  0.6697
  153SAPE   H4S16993  -0.153   2.751   9.973 -1.2506  0.4875 -0.5133
  153SAPE   C2516994  -0.001   2.890   9.901  0.0596  0.3621  0.1648
  153SAPE   H5R16995   0.079   2.861   9.970  1.1337  0.2818 -1.0731
  153SAPE   C2616996   0.033   2.969   9.798 -0.3052  0.2080  0.3926
  153SAPE   H6R16997   0.142   2.967   9.784 -0.2066 -0.4308  1.1649
  153SAPE   C2716998  -0.046   3.040   9.689  0.2914 -0.0417 -0.6971
  153SAPE   H7R16999  -0.024   3.149   9.683  1.0324 -0.0609  1.1212
  153SAPE   H7S17000  -0.153   3.040   9.716  0.7225  0.9705  1.2137
  153SAPE   C2817001  -0.048   2.971   9.557  0.6788  0.0782  0.9980
  153SAPE   H8R17002  -0.066   2.862   9.553 -0.6645  0.3161 -1.1709
  153SAPE   C2917003  -0.037   3.033   9.439  0.6047  0.4415  0.5525
  153SAPE   H9R17004  -0.064   2.971   9.352  0.5122  1.0427  0.1462
  153SAPE  C21017005  -0.025   3.180   9.416  0.6481  0.4367 -0.0611
  153SAPE  H10R17006   0.079   3.203   9.385  1.2667 -0.4247  1.2960
  153SAPE  H10S17007  -0.051   3.237   9.507  1.2783  0.0595  0.3689
  153SAPE  C21117008  -0.107   3.225   9.301  0.5424  0.0168  0.3080
  153SAPE  H11R17009  -0.210   3.253   9.327  0.4568 -0.7454  0.8200
  153SAPE  C21217010  -0.071   3.228   9.170 -0.0215  0.1767  0.1275
  153SAPE  H12R17011  -0.137   3.275   9.096  1.3058  2.1652  0.1353
  153SAPE  C21317012   0.067   3.199   9.116  0.0770 -0.0220 -0.2047
  153SAPE  H13R17013   0.117   3.117   9.171 -1.8155  0.6930  2.8384
  153SAPE  H13S17014   0.126   3.291   9.136  0.1642 -0.6519  2.8546
  153SAPE  C21417015   0.086   3.150   8.972 -0.5068 -0.3232 -0.1409
  153SAPE  H14R17016   0.102   3.041   8.977 -1.0157 -0.4729 -1.3758
  153SAPE  C21517017   0.069   3.220   8.859  0.6639 -0.4903  0.8551
  153SAPE  H15R17018   0.074   3.168   8.762 -2.9192  0.0134  0.2597
  153SAPE  C21617019   0.023   3.372   8.844 -0.1104  0.7416 -0.3415
  153SAPE  H16R17020   0.067   3.426   8.757  0.9500  0.3144 -0.0917
  153SAPE  H16S17021   0.034   3.426   8.941  1.6441  0.6763 -0.4704
  153SAPE  C21717022  -0.126   3.362   8.816  0.2550  0.1338  0.3275
  153SAPE  H17R17023  -0.182   3.309   8.897  2.5969 -0.8720  1.3757
  153SAPE  H17S17024  -0.142   3.292   8.731  1.3330  0.6056 -0.2756
  153SAPE  C21817025  -0.197   3.486   8.779  0.1667 -0.9467  0.4765
  153SAPE  H18R17026  -0.137   3.538   8.702 -1.1523  1.3380  0.9024
  153SAPE  H18S17027  -0.199   3.544   8.874 -0.3071 -0.0784 -0.0478
  153SAPE  C21917028  -0.337   3.452   8.723  0.3561 -0.0152 -0.0665
  153SAPE  H19R17029  -0.382   3.364   8.774 -1.2636  0.6822 -0.2455
  153SAPE  H19S17030  -0.343   3.442   8.612  1.2544 -0.9494 -0.0510
  153SAPE  C22017031  -0.438   3.565   8.754  0.2276 -0.3763  0.1942
  153SAPE  H20R17032  -0.417   3.659   8.698  0.2977 -1.6366 -2.0027
  153SAPE  H20S17033  -0.439   3.599   8.860 -0.4095 -0.7226  0.3065
  153SAPE  H20T17034  -0.535   3.531   8.713 -0.4367  1.4806  0.0980
  153SAPE   C3317035  -0.431   3.168   9.935  0.2917  0.0685 -0.0155
  153SAPE   H3X17036  -0.503   3.099   9.886 -0.5326  1.3439 -0.6614
  153SAPE   H3Y17037  -0.322   3.147   9.935  0.6357  1.4607  2.3109
  153SAPE   C3417038  -0.443   3.309   9.868  0.9011 -0.5221 -0.6504
  153SAPE   H4X17039  -0.381   3.382   9.925 -2.3027  1.2565  0.7884
  153SAPE   H4Y17040  -0.543   3.351   9.891  0.7326 -0.3035 -1.6955
  153SAPE   C3517041  -0.408   3.312   9.717 -0.3384 -0.3569  0.4562
  153SAPE   H5X17042  -0.481   3.260   9.652 -0.7158 -0.6546  1.1074
  153SAPE   H5Y17043  -0.309   3.263   9.709 -0.4289 -0.3822 -0.6820
  153SAPE   C3617044  -0.382   3.456   9.662  0.1748 -0.2157  1.1995
  153SAPE   H6X17045  -0.289   3.504   9.698  2.5167 -2.6971 -1.0693
  153SAPE   H6Y17046  -0.460   3.523   9.704  0.4132  1.4774 -0.8900
  153SAPE   C3717047  -0.390   3.471   9.509 -0.3311  0.6663 -0.3646
  153SAPE   H7X17048  -0.490   3.434   9.477 -0.6450  2.3717 -1.4827
  153SAPE   H7Y17049  -0.315   3.397   9.474 -0.4399  0.6693 -0.5964
  153SAPE   C3817050  -0.372   3.616   9.452  0.1236  0.6835 -0.0910
  153SAPE   H8X17051  -0.281   3.660   9.497  1.3059 -1.2820 -0.4399
  153SAPE   H8Y17052  -0.450   3.689   9.481  1.1980  2.3286 -1.2207
  153SAPE   C3917053  -0.360   3.614   9.304  0.1025 -0.1505  0.3477
  153SAPE   H9X17054  -0.439   3.678   9.259 -0.7540 -0.7521  0.9487
  153SAPE   H9Y17055  -0.370   3.508   9.270  0.8253 -0.0263 -0.2756
  153SAPE  C31017056  -0.215   3.649   9.259  0.5057 -0.1644 -1.6278
  153SAPE  H10X17057  -0.159   3.557   9.289  0.0624  0.5498  1.8304
  153SAPE  H10Y17058  -0.178   3.743   9.305 -1.6727  0.8635 -1.8283
  153SAPE  C31117059  -0.205   3.666   9.107 -0.0772  0.8835  0.0173
  153SAPE  H11X17060  -0.288   3.612   9.057 -0.7884  1.0419  0.9938
  153SAPE  H11Y17061  -0.101   3.637   9.082  0.2868  2.2094 -0.0709
  153SAPE  C31217062  -0.233   3.802   9.059  0.0943 -0.0290 -0.8978
  153SAPE  H12X17063  -0.159   3.872   9.103 -0.4899 -0.3530  0.6442
  153SAPE  H12Y17064  -0.337   3.831   9.084  0.6379  3.2801 -1.9467
  153SAPE  C31317065  -0.241   3.826   8.910 -0.0814 -0.5177 -0.2288
  153SAPE  H13X17066  -0.329   3.766   8.881 -0.5223 -1.2725  2.3629
  153SAPE  H13Y17067  -0.160   3.769   8.861  1.3263 -1.3708  2.8079
  153SAPE  C31417068  -0.235   3.971   8.869 -0.7149 -0.3903  0.0830
  153SAPE  H14X17069  -0.133   3.997   8.906 -1.1708  0.2653  0.8956
  153SAPE  H14Y17070  -0.318   4.020   8.923 -0.5201 -1.6350  1.5648
  153SAPE  C31517071  -0.249   3.994   8.712 -0.1664 -0.0497 -0.3123
  153SAPE  H15X17072  -0.298   3.904   8.670 -1.8593  1.7840 -2.5667
  153SAPE  H15Y17073  -0.147   4.003   8.668 -0.4453  0.2713 -0.9055
  153SAPE  C31617074  -0.323   4.120   8.669 -0.0338  0.7639  0.3860
  153SAPE  H16X17075  -0.259   4.211   8.675 -1.1584  1.5702  0.2908
  153SAPE  H16Y17076  -0.412   4.135   8.733 -0.2872 -0.7342  0.4183
  153SAPE  C31717077  -0.378   4.106   8.525  0.3136  0.7712  0.4026
  153SAPE  H17X17078  -0.442   4.015   8.512  1.9920 -0.3709 -0.2345
  153SAPE  H17Y17079  -0.288   4.076   8.468 -0.7289 -0.0603 -0.8795
  153SAPE  C31817080  -0.443   4.226   8.454  0.1731 -0.0218  0.0922
  153SAPE  H18X17081  -0.369   4.308   8.444 -1.7699  1.7378 -0.4085
  153SAPE  H18Y17082  -0.532   4.254   8.513  1.9216  1.6428  2.1347
  153SAPE  H18Z17083  -0.479   4.197   8.353 -1.8663 -0.4208  0.8841
  154SAPE     N17084   6.771   3.968  10.572  0.1868 -0.6394  1.0112
  154SAPE   HN117085   6.715   3.980  10.485 -0.5602 -3.9637  0.9205
  154SAPE   HN217086   6.873   3.950  10.559  0.8350  1.3237  2.8027
  154SAPE   HN317087   6.738   3.882  10.620 -0.9538  0.0197  1.4468
  154SAPE   C1217088   6.746   4.076  10.680 -0.0742 -0.2398  0.1938
  154SAPE  H12A17089   6.797   4.044  10.773  2.4401  0.8034 -0.7112
  154SAPE  H12B17090   6.636   4.078  10.694 -0.2099  1.8148 -0.6802
  154SAPE   C1117091   6.802   4.211  10.647 -0.9666 -1.2032  0.0420
  154SAPE  H11A17092   6.785   4.287  10.726  0.8230 -1.7756  1.0208
  154SAPE  H11B17093   6.755   4.252  10.555  0.5600 -0.5053 -0.4590
  154SAPE     P17094   7.065   4.218  10.721 -0.7401 -0.3518 -0.0358
  154SAPE   O1317095   7.015   4.195  10.860  0.3031  0.8379 -0.2581
  154SAPE   O1417096   7.189   4.146  10.671 -0.1056  0.2591 -0.0274
  154SAPE   O1217097   6.944   4.191  10.622  0.2306  0.2778 -0.3768
  154SAPE   O1117098   7.082   4.371  10.704  0.1427  0.0301  0.2196
  154SAPE    C117099   7.065   4.440  10.579  0.0982  0.1586 -0.2644
  154SAPE    HA17100   6.959   4.425  10.548 -0.1798 -0.6964  1.0252
  154SAPE    HB17101   7.070   4.548  10.605 -0.3925 -0.2546  1.7366
  154SAPE    C217102   7.178   4.411  10.480 -0.5073  0.6584 -0.2959
  154SAPE    HS17103   7.178   4.303  10.454  1.7210  0.3970  0.5691
  154SAPE   O2117104   7.301   4.448  10.553 -0.0280 -0.2142 -0.2930
  154SAPE   C2117105   7.404   4.375  10.525  0.0631 -0.2207  0.3197
  154SAPE   O2217106   7.409   4.284  10.441  0.6903 -0.6804 -0.2066
  154SAPE   C2217107   7.522   4.424  10.610 -0.5141  0.3286  0.3869
  154SAPE   H2R17108   7.516   4.534  10.622 -0.0691  0.6452 -1.9136
  154SAPE   H2S17109   7.503   4.365  10.702 -0.4331 -2.1072 -1.0647
  154SAPE    C317110   7.175   4.509  10.355  0.6787  0.1576  0.2188
  154SAPE    HX17111   7.192   4.611  10.397 -2.5550  2.0296 -2.4998
  154SAPE    HY17112   7.069   4.511  10.321  0.4779  1.4670  0.8372
  154SAPE   O3117113   7.274   4.463  10.250  0.1436 -0.2063 -0.2379
  154SAPE   C3117114   7.229   4.354  10.185  0.2837  0.7611 -0.2852
  154SAPE   O3217115   7.117   4.307  10.190  0.4891  0.1318  0.6479
  154SAPE   C3217116   7.332   4.317  10.068 -0.2634 -0.0350 -0.8373
  154SAPE   H2X17117   7.417   4.281  10.130 -1.0636 -1.7897 -0.7023
  154SAPE   H2Y17118   7.352   4.408  10.008  2.3389 -0.9790 -1.5649
  154SAPE   C2317119   7.655   4.399  10.537 -0.4770  0.7451  0.0510
  154SAPE   H3R17120   7.657   4.296  10.496  1.5637  0.7609  0.0410
  154SAPE   H3S17121   7.736   4.412  10.611 -1.9918  1.8824  1.5991
  154SAPE   C2417122   7.699   4.508  10.429 -0.2631 -0.6006  0.1987
  154SAPE   H4R17123   7.635   4.496  10.339 -1.5494  0.4735  0.9379
  154SAPE   H4S17124   7.803   4.484  10.397  0.2351  0.9070  0.6093
  154SAPE   C2517125   7.695   4.649  10.473 -0.3587 -0.7155 -0.5343
  154SAPE   H5R17126   7.776   4.667  10.545 -0.7166  1.1835 -0.5544
  154SAPE   C2617127   7.613   4.751  10.444 -0.6441  0.1249  0.1632
  154SAPE   H6R17128   7.626   4.851  10.488  0.8697  0.9201 -1.9196
  154SAPE   C2717129   7.498   4.740  10.353  0.3168 -0.5145  1.1986
  154SAPE   H7R17130   7.409   4.729  10.418 -0.1440  0.0623  0.6750
  154SAPE   H7S17131   7.494   4.644  10.297 -1.1486 -0.1028  0.5664
  154SAPE   C2817132   7.470   4.846  10.249 -0.0260 -0.4344  0.1629
  154SAPE   H8R17133   7.496   4.945  10.290 -0.8635  0.7409 -1.9478
  154SAPE   C2917134   7.425   4.842  10.125  0.3687 -0.3832 -0.7212
  154SAPE   H9R17135   7.397   4.935  10.073 -2.7227 -1.2848 -0.8770
  154SAPE  C21017136   7.386   4.725  10.036  0.7667 -0.2090  0.4478
  154SAPE  H10R17137   7.439   4.632  10.065  0.4523 -0.5676 -0.1330
  154SAPE  H10S17138   7.420   4.743   9.932  1.0438  0.9551  0.7281
  154SAPE  C21117139   7.237   4.709  10.031 -0.1928 -0.2042 -0.1404
  154SAPE  H11R17140   7.180   4.756  10.113 -0.0627  1.3063 -0.8817
  154SAPE  C21217141   7.175   4.631   9.938  0.8553 -0.1369  0.0270
  154SAPE  H12R17142   7.065   4.637   9.938  0.6043 -3.1969 -0.1172
  154SAPE  C21317143   7.241   4.562   9.819  0.2430  0.4132 -0.2358
  154SAPE  H13R17144   7.346   4.534   9.843  0.0079 -1.4556 -1.2167
  154SAPE  H13S17145   7.254   4.647   9.747  0.2154 -1.1020 -2.1065
  154SAPE  C21417146   7.150   4.453   9.767  0.2515 -0.0405 -0.3474
  154SAPE  H14R17147   7.094   4.401   9.845 -0.7713 -0.1927 -1.1689
  154SAPE  C21517148   7.133   4.420   9.635 -0.4895 -0.4819  0.1441
  154SAPE  H15R17149   7.057   4.342   9.618  1.2370 -2.1878 -0.1272
  154SAPE  C21617150   7.193   4.476   9.503 -0.3958 -0.3083  0.2899
  154SAPE  H16R17151   7.285   4.417   9.481 -0.4961 -0.6156  0.6878
  154SAPE  H16S17152   7.226   4.581   9.521 -0.3714 -0.2928  0.1499
  154SAPE  C21717153   7.103   4.457   9.389 -0.3648  1.1557  0.4001
  154SAPE  H17R17154   7.008   4.515   9.387 -0.5481  0.8396 -1.3716
  154SAPE  H17S17155   7.083   4.347   9.392 -1.2646  1.2070 -2.1475
  154SAPE  C21817156   7.165   4.492   9.254  1.0541 -0.1046 -0.2760
  154SAPE  H18R17157   7.101   4.439   9.180 -0.4205  0.3734  0.6097
  154SAPE  H18S17158   7.268   4.452   9.241  1.6585  1.7925 -1.7290
  154SAPE  C21917159   7.166   4.635   9.216 -0.8903 -0.2007 -0.2989
  154SAPE  H19R17160   7.235   4.693   9.281  0.6580 -1.6373 -0.5689
  154SAPE  H19S17161   7.068   4.687   9.214 -0.7242  0.0985 -2.0823
  154SAPE  C22017162   7.221   4.643   9.068 -0.3059  0.3858 -0.3383
  154SAPE  H20R17163   7.184   4.561   9.004  1.5065  0.7359 -1.9326
  154SAPE  H20S17164   7.331   4.658   9.056 -0.5199  1.9120 -0.7057
  154SAPE  H20T17165   7.188   4.734   9.013  2.0981  0.5592 -1.6295
  154SAPE   C3317166   7.288   4.195   9.982  0.5459 -0.3572  0.5603
  154SAPE   H3X17167   7.193   4.217   9.928  0.8324 -2.0137 -0.7046
  154SAPE   H3Y17168   7.272   4.113  10.055  0.9203 -0.3041  0.7050
  154SAPE   C3417169   7.390   4.158   9.878  0.1255  0.5198  0.4508
  154SAPE   H4X17170   7.415   4.251   9.823 -0.6775 -0.0049 -0.8431
  154SAPE   H4Y17171   7.347   4.089   9.802  1.1230 -3.3149  3.0288
  154SAPE   C3517172   7.520   4.098   9.934 -0.1832  0.2567  0.0170
  154SAPE   H5X17173   7.501   4.017  10.007  0.4550  0.6388  0.6271
  154SAPE   H5Y17174   7.571   4.173   9.999  1.6031 -0.4861 -0.4744
  154SAPE   C3617175   7.613   4.051   9.820  0.1104 -0.3163 -0.5013
  154SAPE   H6X17176   7.552   3.970   9.774 -0.9048  1.1176 -1.7823
  154SAPE   H6Y17177   7.696   4.001   9.874  0.4364 -0.2731 -0.9543
  154SAPE   C3717178   7.655   4.149   9.716 -0.0140  1.0061 -0.0228
  154SAPE   H7X17179   7.716   4.232   9.759  2.6316 -0.8801  0.1145
  154SAPE   H7Y17180   7.561   4.201   9.686 -2.6766 -2.8806  0.9260
  154SAPE   C3817181   7.721   4.076   9.602  0.2754  0.0494  0.3416
  154SAPE   H8X17182   7.653   3.999   9.561 -1.5400  1.0695  1.3127
  154SAPE   H8Y17183   7.808   4.021   9.642  1.4651 -0.6183 -2.8262
  154SAPE   C3917184   7.759   4.166   9.482 -0.3681  0.2093 -0.0031
  154SAPE   H9X17185   7.785   4.260   9.536 -2.0565 -0.9469  3.1063
  154SAPE   H9Y17186   7.679   4.187   9.407 -0.6509 -0.3811  0.1255
  154SAPE  C31017187   7.871   4.106   9.398  0.4793  0.0930  0.0493
  154SAPE  H10X17188   7.824   4.013   9.359 -3.4604  1.5271  0.9706
  154SAPE  H10Y17189   7.946   4.074   9.473 -0.1533 -1.5177  0.0255
  154SAPE  C31117190   7.919   4.172   9.273 -0.7709 -0.2228 -0.7433
  154SAPE  H11X17191   7.997   4.111   9.225 -3.5849 -1.2265 -4.4787
  154SAPE  H11Y17192   7.951   4.278   9.286 -2.3223  0.4405 -1.9745
  154SAPE  C31217193   7.804   4.184   9.172 -0.6344 -0.4237  0.0979
  154SAPE  H12X17194   7.720   4.244   9.214 -1.0988 -2.3390  2.0875
  154SAPE  H12Y17195   7.759   4.082   9.165  1.1383 -1.4726  2.4872
  154SAPE  C31317196   7.852   4.233   9.028  0.4828  0.7040  1.0636
  154SAPE  H13X17197   7.952   4.197   8.996 -0.9363 -0.9042 -2.0371
  154SAPE  H13Y17198   7.861   4.344   9.027 -2.2234  1.0267  2.3998
  154SAPE  C31417199   7.741   4.178   8.930 -0.4460  0.3163 -0.2416
  154SAPE  H14X17200   7.754   4.069   8.919 -1.6016  0.1371 -0.0134
  154SAPE  H14Y17201   7.760   4.236   8.837 -0.2021 -0.9192 -0.9713
  154SAPE  C31517202   7.591   4.200   8.961 -0.8376  0.1834 -0.2882
  154SAPE  H15X17203   7.575   4.310   8.965  2.1754  0.6778  1.1852
  154SAPE  H15Y17204   7.566   4.155   9.060 -2.0729 -0.9000 -1.0548
  154SAPE  C31617205   7.495   4.141   8.862 -0.0314  0.1350  0.1731
  154SAPE  H16X17206   7.529   4.040   8.831 -0.8779  0.0833 -0.6821
  154SAPE  H16Y17207   7.501   4.206   8.771 -0.5862  0.0197  0.0498
  154SAPE  C31717208   7.346   4.122   8.915 -0.1279 -0.3782 -0.5210
  154SAPE  H17X17209   7.344   4.073   9.015  0.4075 -0.8597 -0.7437
  154SAPE  H17Y17210   7.283   4.064   8.845 -0.5394 -0.8672  0.2428
  154SAPE  C31817211   7.289   4.256   8.937 -0.1386 -0.0357  0.0882
  154SAPE  H18X17212   7.291   4.318   8.845  1.9847 -0.0699  0.0692
  154SAPE  H18Y17213   7.344   4.311   9.016  1.9893 -1.5431 -0.2555
  154SAPE  H18Z17214   7.180   4.244   8.957 -0.5573 -0.2623 -2.1259
  155SAPE     N17215   2.692   5.574  10.865 -0.5632 -0.1346  0.3230
  155SAPE   HN117216   2.745   5.603  10.949 -0.3576 -1.4576  0.6589
  155SAPE   HN217217   2.771   5.541  10.805 -0.2026  0.5422  0.4079
  155SAPE   HN317218   2.660   5.665  10.826 -1.2207 -1.1058 -1.5525
  155SAPE   C1217219   2.586   5.475  10.890  0.5701 -0.4810  0.2762
  155SAPE  H12A17220   2.536   5.495  10.987 -2.2288  1.5021 -1.4329
  155SAPE  H12B17221   2.637   5.377  10.904  1.9906  0.0313 -1.0987
  155SAPE   C1117222   2.473   5.470  10.785  0.1530 -0.0490  0.1883
  155SAPE  H11A17223   2.509   5.400  10.705 -0.8378 -0.2105 -0.1318
  155SAPE  H11B17224   2.462   5.565  10.729  1.0431 -0.2227 -0.3024
  155SAPE     P17225   2.243   5.517  10.901 -0.4391  0.3792 -0.3875
  155SAPE   O1317226   2.141   5.445  10.982  0.1502 -0.3811  0.1264
  155SAPE   O1417227   2.306   5.633  10.969 -0.6933  0.5326  0.6519
  155SAPE   O1217228   2.355   5.418  10.847 -0.0651  0.8417 -0.2749
  155SAPE   O1117229   2.176   5.570  10.771 -0.1850  0.0332  0.1594
  155SAPE    C117230   2.091   5.484  10.696 -0.6134  0.2290 -0.0606
  155SAPE    HA17231   2.037   5.403  10.749 -1.1378  1.2908  1.0812
  155SAPE    HB17232   2.009   5.548  10.654 -0.6023  2.3118  2.7747
  155SAPE    C217233   2.166   5.426  10.577 -0.0389  0.2712  0.5938
  155SAPE    HS17234   2.250   5.361  10.609  1.5693  0.3866 -2.9713
  155SAPE   O2117235   2.214   5.524  10.498 -0.6472 -0.5666  0.0903
  155SAPE   C2117236   2.319   5.505  10.418 -0.3188 -0.3964 -0.1039
  155SAPE   O2217237   2.404   5.419  10.430 -0.5617  0.0608 -0.1664
  155SAPE   C2217238   2.304   5.603  10.308  0.3034 -0.3707 -0.1681
  155SAPE   H2R17239   2.194   5.605  10.292 -0.1079  1.0664  2.3721
  155SAPE   H2S17240   2.343   5.699  10.349  0.9090 -1.6737  2.5170
  155SAPE    C317241   2.054   5.345  10.488  0.1328  0.1204 -0.5168
  155SAPE    HX17242   1.969   5.416  10.475  0.8079  0.9055 -0.7103
  155SAPE    HY17243   2.001   5.269  10.549  1.0938 -1.0049 -1.0524
  155SAPE   O3117244   2.102   5.302  10.359  0.3929 -0.3745 -0.4009
  155SAPE   C3117245   2.177   5.192  10.364 -0.4337 -0.2947 -0.2665
  155SAPE   O3217246   2.211   5.131  10.462 -0.1413  0.2188  0.2213
  155SAPE   C3217247   2.193   5.150  10.224 -0.5857  0.2597 -0.0394
  155SAPE   H2X17248   2.299   5.160  10.193  1.2530 -2.5457  4.3292
  155SAPE   H2Y17249   2.132   5.208  10.152  1.4452  1.3845 -0.9043
  155SAPE   C2317250   2.404   5.577  10.190  0.2032  0.1850  0.2680
  155SAPE   H3R17251   2.511   5.580  10.220  0.1161  1.4747  0.5048
  155SAPE   H3S17252   2.385   5.665  10.125 -1.2281 -1.1334 -1.1947
  155SAPE   C2417253   2.394   5.445  10.099  0.6200  0.0809  0.5313
  155SAPE   H4R17254   2.404   5.357  10.167  2.3256  0.7922  1.2592
  155SAPE   H4S17255   2.486   5.443  10.036  1.9874 -1.2320  2.4493
  155SAPE   C2517256   2.262   5.444  10.024  0.6410  0.5901  0.5353
  155SAPE   H5R17257   2.182   5.506  10.067 -0.9340 -1.1326  0.2406
  155SAPE   C2617258   2.224   5.389   9.904 -0.4056  0.4727 -0.2211
  155SAPE   H6R17259   2.117   5.393   9.878 -1.0552 -0.9110  1.9584
  155SAPE   C2717260   2.315   5.316   9.806 -0.4602  0.0692 -0.1241
  155SAPE   H7R17261   2.406   5.299   9.866 -0.8557  1.8881  1.0832
  155SAPE   H7S17262   2.346   5.393   9.732  0.4300  0.1408  0.3166
  155SAPE   C2817263   2.270   5.196   9.725 -0.7975  0.4910  0.3648
  155SAPE   H8R17264   2.221   5.114   9.780  0.3524 -1.4250 -1.3258
  155SAPE   C2917265   2.281   5.171   9.594  0.0925 -0.1247  0.8737
  155SAPE   H9R17266   2.251   5.072   9.558  1.1994 -0.1887  0.0787
  155SAPE  C21017267   2.338   5.267   9.492 -0.3063 -0.0573  0.1504
  155SAPE  H10R17268   2.349   5.368   9.536  1.1782 -1.4312  3.2551
  155SAPE  H10S17269   2.249   5.274   9.426 -1.3590 -1.3608  1.3661
  155SAPE  C21117270   2.454   5.236   9.402 -0.1273 -0.2077 -0.4121
  155SAPE  H11R17271   2.545   5.285   9.441 -2.1730  2.7764  0.9997
  155SAPE  C21217272   2.457   5.151   9.301 -0.3540 -0.0807 -0.0852
  155SAPE  H12R17273   2.553   5.139   9.248 -1.2465 -0.3911 -1.6727
  155SAPE  C21317274   2.341   5.072   9.247  0.0615  0.5747 -0.5854
  155SAPE  H13R17275   2.243   5.122   9.262 -1.1653 -0.9999 -2.7324
  155SAPE  H13S17276   2.337   4.980   9.309 -0.0202  2.1278  1.8309
  155SAPE  C21417277   2.369   5.029   9.103 -0.2365  0.2685 -0.0145
  155SAPE  H14R17278   2.413   4.929   9.091 -1.0891  0.0924 -2.4580
  155SAPE  C21517279   2.310   5.092   9.000  0.1537  0.0925 -0.0497
  155SAPE  H15R17280   2.351   5.073   8.900  1.0264 -0.6822  0.4375
  155SAPE  C21617281   2.224   5.209   9.014  0.5625 -0.3157  0.4966
  155SAPE  H16R17282   2.258   5.272   9.100  1.4685  0.5168 -0.4514
  155SAPE  H16S17283   2.119   5.174   9.025  0.2998  0.7588  1.7884
  155SAPE  C21717284   2.231   5.301   8.883  0.1257  0.1939 -0.1070
  155SAPE  H17R17285   2.337   5.314   8.852 -0.1464 -0.0189 -1.1469
  155SAPE  H17S17286   2.177   5.393   8.915  2.8632  1.0227  2.6341
  155SAPE  C21817287   2.154   5.234   8.767 -0.1668  0.4157  0.0062
  155SAPE  H18R17288   2.050   5.234   8.805  0.2667  0.6147  1.2455
  155SAPE  H18S17289   2.184   5.129   8.749 -2.7129 -0.5213  0.8297
  155SAPE  C21917290   2.158   5.319   8.639  0.5413  0.1554 -0.6480
  155SAPE  H19R17291   2.252   5.291   8.586 -0.0858 -0.2987 -1.5466
  155SAPE  H19S17292   2.166   5.428   8.658 -1.8656 -0.0577  2.1794
  155SAPE  C22017293   2.049   5.288   8.536  0.2291 -0.6736 -0.0099
  155SAPE  H20R17294   2.081   5.327   8.437  0.9145  2.0942  1.2399
  155SAPE  H20S17295   1.955   5.345   8.551  0.1343  0.1146 -2.8727
  155SAPE  H20T17296   2.020   5.181   8.527  0.2231 -0.5960 -1.0663
  155SAPE   C3317297   2.155   4.999  10.195 -0.3144  0.2298  0.2109
  155SAPE   H3X17298   2.054   4.980  10.236 -0.6948 -0.7167 -1.1179
  155SAPE   H3Y17299   2.219   4.930  10.253 -2.5080 -0.1039  2.4076
  155SAPE   C3417300   2.156   4.970  10.040 -0.5294 -0.1273 -0.1729
  155SAPE   H4X17301   2.199   5.052   9.979  1.7285 -1.1898 -0.1349
  155SAPE   H4Y17302   2.050   4.952  10.011 -0.7923 -0.2625  0.8516
  155SAPE   C3517303   2.224   4.832  10.016  0.3817  0.1143  0.8229
  155SAPE   H5X17304   2.152   4.753  10.047  1.5438 -1.2099  0.2233
  155SAPE   H5Y17305   2.323   4.838  10.067  1.6356  3.1762 -1.6436
  155SAPE   C3617306   2.260   4.806   9.868  0.1577  0.2016  0.7070
  155SAPE   H6X17307   2.306   4.705   9.867 -0.5846 -0.1507 -1.3532
  155SAPE   H6Y17308   2.333   4.877   9.824 -0.2956 -0.8497 -1.8866
  155SAPE   C3717309   2.138   4.812   9.774  0.0138  0.2773  0.1357
  155SAPE   H7X17310   2.092   4.913   9.764  0.5280  0.6998  1.8456
  155SAPE   H7Y17311   2.054   4.744   9.801  0.4139 -0.9660 -1.5385
  155SAPE   C3817312   2.182   4.761   9.634 -0.0397  0.8032 -0.4389
  155SAPE   H8X17313   2.198   4.652   9.645  0.2932  0.6146 -2.4505
  155SAPE   H8Y17314   2.268   4.821   9.597 -0.3708  1.5208 -0.0594
  155SAPE   C3917315   2.072   4.778   9.531  0.5373  0.6964 -0.4452
  155SAPE   H9X17316   2.067   4.885   9.500 -0.3343  0.7497 -0.1617
  155SAPE   H9Y17317   1.971   4.751   9.569  1.4993 -1.2929  0.8939
  155SAPE  C31017318   2.111   4.688   9.405  1.0175 -0.7901 -0.0253
  155SAPE  H10X17319   2.068   4.589   9.432  0.0291 -0.3549  0.0213
  155SAPE  H10Y17320   2.220   4.668   9.401  1.1691  0.1772 -1.3746
  155SAPE  C31117321   2.083   4.753   9.265 -0.3082  0.3199  0.3601
  155SAPE  H11X17322   2.110   4.860   9.281 -0.1663  0.4014 -0.3543
  155SAPE  H11Y17323   1.973   4.745   9.251  0.0468 -1.6849 -2.0435
  155SAPE  C31217324   2.143   4.678   9.141 -0.1142  0.3299 -0.3053
  155SAPE  H12X17325   2.138   4.569   9.162 -0.3066 -0.0087 -1.9504
  155SAPE  H12Y17326   2.250   4.694   9.115 -0.1671  1.0724 -0.0670
  155SAPE  C31317327   2.047   4.701   9.023 -0.0516  0.4043  0.4144
  155SAPE  H13X17328   2.048   4.809   8.997 -2.6335  0.1031 -1.2836
  155SAPE  H13Y17329   1.940   4.688   9.052  0.3007 -1.4206  0.9977
  155SAPE  C31417330   2.076   4.599   8.919 -0.2279  0.5787  0.8853
  155SAPE  H14X17331   1.991   4.597   8.847 -0.4385 -1.7563  1.1151
  155SAPE  H14Y17332   2.092   4.502   8.971 -0.2125 -0.5373 -1.0843
  155SAPE  C31517333   2.199   4.633   8.825 -0.0135 -0.2703 -0.1079
  155SAPE  H15X17334   2.254   4.721   8.865  1.5778 -0.4248 -1.7896
  155SAPE  H15Y17335   2.148   4.674   8.736  0.2290  0.3708  0.0465
  155SAPE  C31617336   2.298   4.518   8.794  0.1465  0.5596  0.2335
  155SAPE  H16X17337   2.366   4.544   8.710  0.6481 -0.1857  0.3985
  155SAPE  H16Y17338   2.249   4.420   8.774  1.4291 -0.7357  2.8984
  155SAPE  C31717339   2.401   4.489   8.907  0.3621  0.3213 -1.0423
  155SAPE  H17X17340   2.343   4.458   8.997 -1.1045 -1.2856 -2.4681
  155SAPE  H17Y17341   2.459   4.581   8.929 -1.3098  1.2665 -0.4042
  155SAPE  C31817342   2.514   4.388   8.872 -0.0884 -0.1427 -0.1236
  155SAPE  H18X17343   2.589   4.425   8.799 -0.0732  0.3914  0.1559
  155SAPE  H18Y17344   2.467   4.296   8.831 -0.4706  0.6682 -1.6142
  155SAPE  H18Z17345   2.562   4.345   8.962  1.6611  0.0155 -0.9320
  156SAPE     N17346   0.749   1.527  10.523  0.0215  0.5135 -0.4763
  156SAPE   HN117347   0.779   1.482  10.612 -0.7229 -3.3604 -2.0083
  156SAPE   HN217348   0.645   1.522  10.513  0.1950 -1.2127 -1.8757
  156SAPE   HN317349   0.793   1.477  10.443  1.1752  1.3354 -0.3760
  156SAPE   C1217350   0.784   1.675  10.511 -0.0472  0.4694 -0.3609
  156SAPE  H12A17351   0.777   1.725  10.610 -1.1473 -0.1602 -0.1059
  156SAPE  H12B17352   0.714   1.714  10.434  0.4992  0.9412 -0.6247
  156SAPE   C1117353   0.924   1.686  10.453  0.8931  0.1558 -0.2278
  156SAPE  H11A17354   0.942   1.795  10.449  0.1936  0.3272  0.8572
  156SAPE  H11B17355   0.935   1.650  10.349  1.0470 -1.2230  0.2426
  156SAPE     P17356   1.090   1.711  10.646  0.0533 -0.4751 -0.0008
  156SAPE   O1317357   0.990   1.756  10.742 -0.9414  0.1555 -0.3653
  156SAPE   O1417358   1.216   1.642  10.689  0.7726 -0.0647 -0.0322
  156SAPE   O1217359   1.020   1.616  10.535 -0.1551 -0.0268  0.2749
  156SAPE   O1117360   1.155   1.842  10.566  0.5125  0.5817  0.0200
  156SAPE    C117361   1.235   1.825  10.452  0.0735  0.2714 -0.6159
  156SAPE    HA17362   1.338   1.790  10.473 -0.1727 -0.0982  0.0167
  156SAPE    HB17363   1.189   1.749  10.385 -1.8901  1.4474 -0.6905
  156SAPE    C217364   1.257   1.958  10.369  0.1634  0.4775  0.2520
  156SAPE    HS17365   1.325   2.029  10.421  0.7167  0.6944 -0.7428
  156SAPE   O2117366   1.128   2.018  10.354 -0.4896  0.4818  0.1179
  156SAPE   C2117367   1.126   2.140  10.315 -0.1468  0.4012 -0.3042
  156SAPE   O2217368   1.223   2.213  10.297 -0.1366 -0.1437 -0.0218
  156SAPE   C2217369   0.986   2.172  10.268 -0.4175  0.9353 -0.2428
  156SAPE   H2R17370   0.910   2.132  10.339 -0.6525  1.3731 -0.2432
  156SAPE   H2S17371   0.974   2.282  10.273  0.8291  1.2588 -2.7781
  156SAPE    C317372   1.324   1.937  10.225  0.4900  0.6340  0.6650
  156SAPE    HX17373   1.427   1.902  10.246  0.2593 -0.3457  0.1772
  156SAPE    HY17374   1.329   2.032  10.168 -2.4819  0.9779  0.8205
  156SAPE   O3117375   1.255   1.831  10.150 -0.1216 -0.2157 -0.5414
  156SAPE   C3117376   1.238   1.843  10.024 -0.7578  0.3261  0.1465
  156SAPE   O3217377   1.307   1.920   9.953 -0.3695  0.7407 -0.0720
  156SAPE   C3217378   1.131   1.745   9.975 -0.0930 -0.4859  0.3304
  156SAPE   H2X17379   1.038   1.774  10.028 -1.0048 -0.5220 -1.1887
  156SAPE   H2Y17380   1.156   1.640  10.002 -2.3190 -2.0577 -3.0585
  156SAPE   C2317381   0.954   2.113  10.125  0.4381  0.2016 -0.1454
  156SAPE   H3R17382   0.845   2.091  10.132 -0.1505  2.1398 -2.3120
  156SAPE   H3S17383   1.015   2.021  10.109 -0.6650 -1.3269  3.3081
  156SAPE   C2417384   0.985   2.207  10.006 -0.0598  0.0909 -0.4176
  156SAPE   H4R17385   0.968   2.143   9.916 -0.7050  1.3475 -1.2232
  156SAPE   H4S17386   1.090   2.240  10.014 -1.0758  3.3799  1.4134
  156SAPE   C2517387   0.883   2.323   9.999 -0.0621  0.0541 -0.2675
  156SAPE   H5R17388   0.883   2.384  10.090  1.1229 -2.1112  1.2817
  156SAPE   C2617389   0.817   2.369   9.888 -0.7080  0.1675  0.0540
  156SAPE   H6R17390   0.752   2.457   9.904  1.1977  1.7920 -0.6896
  156SAPE   C2717391   0.816   2.308   9.754 -0.2319  0.2271  0.0009
  156SAPE   H7R17392   0.712   2.316   9.716 -0.3344 -0.2805  0.1709
  156SAPE   H7S17393   0.842   2.201   9.769  1.1416  0.7826  1.9831
  156SAPE   C2817394   0.917   2.362   9.650 -0.4127 -1.2126 -0.8358
  156SAPE   H8R17395   1.017   2.325   9.675  0.4388  0.5952 -1.3576
  156SAPE   C2917396   0.890   2.433   9.542 -0.1200  0.0608  0.9535
  156SAPE   H9R17397   0.972   2.452   9.472  1.7232 -2.8095  2.1858
  156SAPE  C21017398   0.760   2.475   9.496 -0.0681 -0.7025  0.4610
  156SAPE  H10R17399   0.685   2.394   9.509  1.3250 -2.1021  0.1016
  156SAPE  H10S17400   0.772   2.486   9.386  1.0415  1.7846  0.7679
  156SAPE  C21117401   0.711   2.603   9.549  0.0186 -0.7984  0.4734
  156SAPE  H11R17402   0.717   2.613   9.658 -0.7493 -0.5911  0.5019
  156SAPE  C21217403   0.682   2.715   9.478  0.0444  0.0128 -0.0188
  156SAPE  H12R17404   0.662   2.814   9.522 -0.2130 -0.3573  0.7029
  156SAPE  C21317405   0.707   2.736   9.328 -0.1012 -0.3326 -0.2551
  156SAPE  H13R17406   0.805   2.689   9.307 -0.1479 -0.3397 -0.4582
  156SAPE  H13S17407   0.712   2.846   9.312  0.4652 -0.4728 -1.1063
  156SAPE  C21417408   0.603   2.671   9.248 -0.1144  0.4604  0.0460
  156SAPE  H14R17409   0.506   2.654   9.296  1.1413 -1.0423  2.2159
  156SAPE  C21517410   0.635   2.616   9.125 -0.3099 -0.4457 -0.6775
  156SAPE  H15R17411   0.550   2.575   9.069  0.8802  1.0233 -3.7884
  156SAPE  C21617412   0.756   2.621   9.046  0.5324  0.4202 -0.1222
  156SAPE  H16R17413   0.800   2.519   9.041  1.0155  0.6701 -1.2837
  156SAPE  H16S17414   0.833   2.687   9.093  1.3351 -0.6672  0.1400
  156SAPE  C21717415   0.726   2.669   8.907  0.5007  0.2899  0.4843
  156SAPE  H17R17416   0.820   2.707   8.861  0.7668  0.2797  1.0014
  156SAPE  H17S17417   0.645   2.744   8.897  0.0635 -0.1429  0.7805
  156SAPE  C21817418   0.664   2.552   8.818 -0.5271 -0.2467  0.2440
  156SAPE  H18R17419   0.588   2.500   8.880  0.3949 -1.0703  0.7192
  156SAPE  H18S17420   0.750   2.482   8.806  1.5866  2.3298 -0.8121
  156SAPE  C21917421   0.615   2.592   8.683  0.3392  0.2104 -0.2026
  156SAPE  H19R17422   0.680   2.677   8.652 -0.4667  0.8766 -0.0827
  156SAPE  H19S17423   0.515   2.637   8.697 -0.0240 -0.4390 -0.6681
  156SAPE  C22017424   0.614   2.491   8.563 -0.1135 -0.2119 -0.1082
  156SAPE  H20R17425   0.559   2.548   8.485 -1.3955 -0.7023  0.4003
  156SAPE  H20S17426   0.543   2.410   8.592 -0.9391 -0.0256 -1.5268
  156SAPE  H20T17427   0.715   2.465   8.527 -0.6155  1.1289 -2.7015
  156SAPE   C3317428   1.089   1.738   9.824 -0.0740  0.3872 -0.0246
  156SAPE   H3X17429   1.041   1.639   9.809  2.9798 -1.4643  1.4176
  156SAPE   H3Y17430   1.174   1.738   9.752  0.8822  0.9926  1.0678
  156SAPE   C3417431   1.008   1.857   9.791  0.6445  0.3172 -0.3347
  156SAPE   H4X17432   1.068   1.951   9.797  3.0730 -1.1856  0.3113
  156SAPE   H4Y17433   0.916   1.870   9.853  0.9343  1.1617 -0.0646
  156SAPE   C3517434   0.964   1.841   9.643  0.2415  0.4278 -0.6736
  156SAPE   H5X17435   0.903   1.751   9.623 -1.6066  1.7673 -1.2805
  156SAPE   H5Y17436   1.058   1.843   9.583 -1.5107  0.2888 -3.6177
  156SAPE   C3617437   0.887   1.965   9.591 -0.1876 -0.1656 -0.1309
  156SAPE   H6X17438   0.958   2.050   9.604  1.7043 -1.5894 -0.6344
  156SAPE   H6Y17439   0.803   1.969   9.663 -1.0949 -4.0806 -0.7403
  156SAPE   C3717440   0.832   1.952   9.448  0.1700 -0.4125 -0.3171
  156SAPE   H7X17441   0.777   1.855   9.441 -2.8732  1.3106 -3.5569
  156SAPE   H7Y17442   0.919   1.951   9.380  0.8441  1.6470  0.4417
  156SAPE   C3817443   0.739   2.063   9.405 -0.9549 -0.1352 -0.2253
  156SAPE   H8X17444   0.792   2.157   9.433 -0.0591 -0.7574  0.2013
  156SAPE   H8Y17445   0.644   2.051   9.460 -0.9289  0.3761 -0.0600
  156SAPE   C3917446   0.702   2.060   9.259  0.0790  0.1613  0.5473
  156SAPE   H9X17447   0.612   1.996   9.241  0.4201  0.1081 -1.0793
  156SAPE   H9Y17448   0.790   2.015   9.208 -0.0037 -0.3033  0.8114
  156SAPE  C31017449   0.677   2.195   9.187 -0.1833 -0.1278 -0.5492
  156SAPE  H10X17450   0.751   2.272   9.217 -0.4140 -0.3390  0.6006
  156SAPE  H10Y17451   0.583   2.241   9.225 -1.8669 -4.7893  1.6878
  156SAPE  C31117452   0.670   2.188   9.036 -0.2800 -0.6139  0.0669
  156SAPE  H11X17453   0.740   2.108   9.005 -0.7905 -0.6249 -1.0961
  156SAPE  H11Y17454   0.710   2.278   8.984  1.2736 -0.6136  1.2031
  156SAPE  C31217455   0.535   2.153   8.978  0.4042  0.5566 -0.0682
  156SAPE  H12X17456   0.465   2.233   9.009  1.9176  2.7857 -2.0102
  156SAPE  H12Y17457   0.506   2.055   9.021  3.4954  0.1487  1.3033
  156SAPE  C31317458   0.554   2.147   8.827  0.2054  0.4704  0.2080
  156SAPE  H13X17459   0.645   2.085   8.811 -0.5344 -0.8410  0.9594
  156SAPE  H13Y17460   0.570   2.250   8.788 -0.9032 -0.1928 -2.2595
  156SAPE  C31417461   0.425   2.085   8.758 -0.2416 -0.0854  0.2346
  156SAPE  H14X17462   0.343   2.156   8.784 -0.4094 -0.0516 -0.3773
  156SAPE  H14Y17463   0.394   1.991   8.809 -1.9847  1.5633  2.4292
  156SAPE  C31517464   0.443   2.071   8.599 -0.5964  0.6187  0.7447
  156SAPE  H15X17465   0.499   2.164   8.575 -0.2342 -0.0362 -1.1459
  156SAPE  H15Y17466   0.344   2.066   8.548  0.8950  1.3372 -2.4617
  156SAPE  C31617467   0.522   1.944   8.576  0.3839  1.0640  0.1310
  156SAPE  H16X17468   0.457   1.854   8.586  0.0709  1.3242  0.4133
  156SAPE  H16Y17469   0.603   1.929   8.651 -0.7702  0.4686  1.2996
  156SAPE  C31717470   0.585   1.940   8.434 -0.5962  0.1098 -0.4755
  156SAPE  H17X17471   0.662   1.860   8.426 -0.2754  0.3610 -0.0103
  156SAPE  H17Y17472   0.646   2.034   8.428  0.3867 -0.5116 -0.5219
  156SAPE  C31817473   0.490   1.942   8.315 -0.6869  0.9564 -0.5381
  156SAPE  H18X17474   0.533   1.987   8.224 -0.3312 -2.6130 -2.2906
  156SAPE  H18Y17475   0.392   1.990   8.338  1.0258  2.8972  3.8525
  156SAPE  H18Z17476   0.480   1.834   8.291  0.3808  0.5988  0.5092
  157SAPE     N17477   0.241   1.232  10.843  0.2102  0.2696 -0.4914
  157SAPE   HN117478   0.236   1.153  10.775 -0.8220  0.0913 -0.2286
  157SAPE   HN217479   0.193   1.206  10.931 -0.3594  1.6527 -0.3660
  157SAPE   HN317480   0.184   1.310  10.805  0.1284 -0.0255 -0.9931
  157SAPE   C1217481   0.378   1.284  10.858 -0.4181 -0.3378  0.0892
  157SAPE  H12A17482   0.453   1.206  10.883  0.6621  0.3990 -0.7840
  157SAPE  H12B17483   0.378   1.351  10.946  0.0700 -1.0426  0.6317
  157SAPE   C1117484   0.413   1.350  10.722  0.4781 -0.0718  0.3420
  157SAPE  H11A17485   0.410   1.269  10.645 -1.4724 -0.7541  1.0603
  157SAPE  H11B17486   0.521   1.377  10.720  0.3672  0.3646  0.2342
  157SAPE     P17487   0.384   1.603  10.684 -0.0172 -0.2968 -0.0706
  157SAPE   O1317488   0.425   1.656  10.815 -0.1289  0.5249 -0.3379
  157SAPE   O1417489   0.480   1.613  10.577 -0.4145  0.4850  0.6050
  157SAPE   O1217490   0.325   1.460  10.692  0.0391 -0.4187 -0.3358
  157SAPE   O1117491   0.255   1.686  10.641 -0.0891 -0.0110 -0.6047
  157SAPE    C117492   0.152   1.620  10.568  0.3536 -0.0201  0.5059
  157SAPE    HA17493   0.114   1.533  10.626 -1.2268 -1.2238 -2.1439
  157SAPE    HB17494   0.061   1.683  10.563 -0.9495 -1.6771  1.8353
  157SAPE    C217495   0.182   1.583  10.423  0.1880  0.0614 -0.9830
  157SAPE    HS17496   0.273   1.521  10.435 -0.5864 -0.8146  0.6206
  157SAPE   O2117497   0.202   1.709  10.354  0.2270 -0.2114 -0.4406
  157SAPE   C2117498   0.289   1.712  10.263 -0.6855  0.1664  0.0223
  157SAPE   O2217499   0.361   1.621  10.222  0.5458  0.0655 -0.2340
  157SAPE   C2217500   0.268   1.853  10.186  0.2642 -0.1833 -0.1000
  157SAPE   H2R17501   0.287   1.936  10.258  2.8013 -0.6056 -0.1824
  157SAPE   H2S17502   0.348   1.865  10.110 -0.7198 -0.1519 -1.1555
  157SAPE    C317503   0.076   1.479  10.363  0.3743  0.6821  0.5177
  157SAPE    HX17504  -0.028   1.517  10.364  0.0599 -0.1537  1.1572
  157SAPE    HY17505   0.081   1.392  10.432  1.1526 -1.8068 -2.5026
  157SAPE   O3117506   0.109   1.432  10.228  0.9989 -0.1225 -0.5325
  157SAPE   C3117507   0.198   1.337  10.227 -0.3797 -0.1407  0.2800
  157SAPE   O3217508   0.246   1.278  10.321  0.0390 -0.5593  0.0045
  157SAPE   C3217509   0.225   1.309  10.078  0.1004  0.0818  0.3384
  157SAPE   H2X17510   0.323   1.357  10.054  0.2167  1.8969  3.7893
  157SAPE   H2Y17511   0.145   1.356  10.017 -2.2225 -1.4988  1.9848
  157SAPE   C2317512   0.123   1.874  10.129 -0.2801  0.5055 -0.0048
  157SAPE   H3R17513   0.105   1.977  10.090  0.3649  0.8577  0.6094
  157SAPE   H3S17514   0.054   1.859  10.214  1.4949  0.4230  1.4846
  157SAPE   C2417515   0.086   1.771  10.023 -0.0417 -0.2789  0.1047
  157SAPE   H4R17516   0.093   1.665  10.056 -0.5752 -0.4110 -0.2055
  157SAPE   H4S17517   0.166   1.767   9.945  1.4057  0.5276  1.4823
  157SAPE   C2517518  -0.054   1.788   9.968 -0.4482  0.2949 -0.0438
  157SAPE   H5R17519  -0.131   1.789  10.046 -0.3984  0.3935  0.0038
  157SAPE   C2617520  -0.091   1.784   9.840  0.5968 -0.9887 -0.2192
  157SAPE   H6R17521  -0.198   1.794   9.820  0.6553  1.0614  0.2601
  157SAPE   C2717522  -0.005   1.776   9.715 -0.0402 -0.0311  0.3989
  157SAPE   H7R17523  -0.042   1.693   9.651  0.9298  0.6274 -1.0728
  157SAPE   H7S17524   0.101   1.755   9.741  0.8301  0.2498 -2.4997
  157SAPE   C2817525   0.004   1.903   9.632  0.1495  0.2521 -0.6279
  157SAPE   H8R17526   0.072   1.976   9.679 -1.8473  0.7351  1.6918
  157SAPE   C2917527  -0.062   1.938   9.520  0.5427  0.1645 -0.4893
  157SAPE   H9R17528  -0.043   2.037   9.477 -1.1661  0.1337 -1.4011
  157SAPE  C21017529  -0.161   1.857   9.452  0.2089 -0.4281  0.1043
  157SAPE  H10R17530  -0.186   1.767   9.512  0.5759 -0.4920  0.1676
  157SAPE  H10S17531  -0.109   1.805   9.369  0.5736 -2.1252  1.3319
  157SAPE  C21117532  -0.283   1.935   9.404 -0.8011 -0.9685 -0.3942
  157SAPE  H11R17533  -0.344   1.968   9.489  0.9719 -2.0365  1.3804
  157SAPE  C21217534  -0.326   1.969   9.280 -0.2062  0.4052  0.4761
  157SAPE  H12R17535  -0.427   2.013   9.272 -0.5380 -0.6382 -3.5653
  157SAPE  C21317536  -0.250   1.945   9.148 -0.5055  0.0693 -0.3202
  157SAPE  H13R17537  -0.170   1.871   9.171 -0.5308 -0.0924 -0.7418
  157SAPE  H13S17538  -0.196   2.034   9.110 -1.5822  1.1309  0.5943
  157SAPE  C21417539  -0.341   1.885   9.037  0.2638  0.1326 -0.2238
  157SAPE  H14R17540  -0.354   1.776   9.037  0.5664  0.0719  1.6339
  157SAPE  C21517541  -0.417   1.956   8.950 -0.2640 -0.4123  0.1240
  157SAPE  H15R17542  -0.489   1.899   8.890 -0.0517 -1.5392  0.8970
  157SAPE  C21617543  -0.415   2.105   8.929  0.3732  0.2799 -0.0213
  157SAPE  H16R17544  -0.385   2.156   9.022 -0.2180  0.7525 -0.0810
  157SAPE  H16S17545  -0.521   2.131   8.905  0.1462 -0.5821 -0.0023
  157SAPE  C21717546  -0.332   2.145   8.806 -0.2825  0.4245  0.0849
  157SAPE  H17R17547  -0.375   2.246   8.787  0.6584  1.2898  2.2937
  157SAPE  H17S17548  -0.349   2.083   8.716  0.0256  0.1163  0.2381
  157SAPE  C21817549  -0.180   2.142   8.829  0.8251  0.3369 -0.8578
  157SAPE  H18R17550  -0.164   2.033   8.822 -1.5775 -0.1428 -0.0570
  157SAPE  H18S17551  -0.148   2.168   8.932  1.6643 -1.0151 -0.7612
  157SAPE  C21917552  -0.100   2.210   8.720 -0.7636  0.0769  0.2528
  157SAPE  H19R17553  -0.121   2.317   8.697 -1.2241  0.5215  2.5104
  157SAPE  H19S17554  -0.123   2.150   8.629 -1.1807  1.6666 -0.7306
  157SAPE  C22017555   0.048   2.202   8.764 -0.1235  0.2785 -0.2898
  157SAPE  H20R17556   0.112   2.206   8.673  0.8069  0.3448  0.3529
  157SAPE  H20S17557   0.064   2.111   8.826  0.8311  0.3344 -0.4350
  157SAPE  H20T17558   0.074   2.291   8.825 -1.0020 -0.4198  1.1547
  157SAPE   C3317559   0.226   1.160  10.054  0.0248  0.4223  0.0640
  157SAPE   H3X17560   0.133   1.113  10.093  1.0585 -2.4297 -0.7044
  157SAPE   H3Y17561   0.310   1.109  10.106 -0.1442  0.5785  0.4965
  157SAPE   C3417562   0.225   1.139   9.902  0.0345 -0.0649  0.9267
  157SAPE   H4X17563   0.160   1.209   9.845  1.1549 -0.3571 -0.7884
  157SAPE   H4Y17564   0.176   1.040   9.890  0.2413 -0.0564 -0.1059
  157SAPE   C3517565   0.367   1.132   9.844 -0.4831 -0.0197 -0.2126
  157SAPE   H5X17566   0.425   1.048   9.887 -0.2256  0.8974  1.3288
  157SAPE   H5Y17567   0.424   1.215   9.891 -0.2346  0.2873 -1.0461
  157SAPE   C3617568   0.381   1.139   9.694 -0.3365  0.5624  0.2173
  157SAPE   H6X17569   0.490   1.135   9.670 -0.1223 -2.4952  1.2874
  157SAPE   H6Y17570   0.339   1.239   9.670 -2.2337 -0.2157  0.1501
  157SAPE   C3717571   0.305   1.031   9.621  0.0240  0.5454 -0.6999
  157SAPE   H7X17572   0.211   1.018   9.678  1.1848 -0.5009  1.0548
  157SAPE   H7Y17573   0.354   0.933   9.640 -0.1225  0.7107  0.6368
  157SAPE   C3817574   0.286   1.067   9.473 -0.5110  0.1877 -1.2854
  157SAPE   H8X17575   0.389   1.067   9.430  0.0960 -1.3367  0.0663
  157SAPE   H8Y17576   0.240   1.167   9.457 -0.0690  0.1597 -2.9284
  157SAPE   C3917577   0.210   0.960   9.391  0.4044 -0.2760  0.2423
  157SAPE   H9X17578   0.284   0.880   9.367  2.3208  0.6832  2.5938
  157SAPE   H9Y17579   0.197   0.998   9.287  1.6552  2.0489  0.8850
  157SAPE  C31017580   0.076   0.907   9.447 -0.2686 -0.0771 -0.0821
  157SAPE  H10X17581   0.079   0.870   9.552 -0.2969  2.5800  0.9219
  157SAPE  H10Y17582   0.043   0.821   9.385  0.9267 -0.4284 -0.2599
  157SAPE  C31117583  -0.047   1.001   9.431 -0.0673 -0.7580 -0.8910
  157SAPE  H11X17584  -0.009   1.094   9.478 -0.0107 -1.3518  0.2722
  157SAPE  H11Y17585  -0.127   0.962   9.498  0.7035  1.6091  1.5688
  157SAPE  C31217586  -0.093   1.008   9.290 -0.7079 -0.4783 -0.2937
  157SAPE  H12X17587  -0.128   0.904   9.271  0.1962 -0.5748 -1.4882
  157SAPE  H12Y17588  -0.015   1.031   9.215  0.9961  0.4591  1.6750
  157SAPE  C31317589  -0.212   1.105   9.282 -0.2240 -0.5943  0.4338
  157SAPE  H13X17590  -0.170   1.206   9.300  0.8423 -1.3158  2.2640
  157SAPE  H13Y17591  -0.296   1.079   9.350 -1.3528 -0.0709 -0.7257
  157SAPE  C31417592  -0.270   1.107   9.137 -0.3688 -0.0679  0.2192
  157SAPE  H14X17593  -0.345   1.026   9.149 -0.8384  0.4366  0.7271
  157SAPE  H14Y17594  -0.183   1.075   9.074  0.4214 -2.9843  2.5347
  157SAPE  C31517595  -0.331   1.240   9.084  0.3527  0.1031 -0.6139
  157SAPE  H15X17596  -0.248   1.314   9.078  0.2685  0.4333  1.5295
  157SAPE  H15Y17597  -0.415   1.269   9.151 -0.0425  1.0585 -1.5023
  157SAPE  C31617598  -0.377   1.224   8.941 -0.1616 -0.4966  0.2718
  157SAPE  H16X17599  -0.471   1.282   8.933  1.5281  2.2942 -1.1351
  157SAPE  H16Y17600  -0.387   1.117   8.911 -3.0515  0.0170 -0.9036
  157SAPE  C31717601  -0.267   1.284   8.844  0.2137  0.2532  1.0185
  157SAPE  H17X17602  -0.273   1.220   8.754  3.2866 -2.9211  2.8342
  157SAPE  H17Y17603  -0.166   1.254   8.879  0.7575  1.1890  0.2913
  157SAPE  C31817604  -0.271   1.433   8.818 -0.2074 -0.1675 -0.5648
  157SAPE  H18X17605  -0.185   1.455   8.752  0.1877  1.0282  0.3306
  157SAPE  H18Y17606  -0.262   1.487   8.914  0.0193 -1.7053  0.3206
  157SAPE  H18Z17607  -0.370   1.455   8.771 -2.1514  1.3168  3.7181
  158SAPE     N17608   0.912   2.895  10.502 -0.0270 -0.1890 -0.3005
  158SAPE   HN117609   0.960   2.809  10.535  0.6419 -0.1618 -1.1635
  158SAPE   HN217610   0.962   2.932  10.419  0.9925  1.6032  1.0429
  158SAPE   HN317611   0.909   2.971  10.573 -1.4203 -0.4405 -0.0618
  158SAPE   C1217612   0.779   2.859  10.441  0.0062  0.6336 -0.4062
  158SAPE  H12A17613   0.729   2.791  10.513  0.5777 -1.4675 -1.8755
  158SAPE  H12B17614   0.811   2.797  10.354  1.1746  2.2747 -1.2039
  158SAPE   C1117615   0.700   2.978  10.384  0.2537 -0.0705  0.1710
  158SAPE  H11A17616   0.616   2.930  10.331  1.3545  0.0427 -1.7786
  158SAPE  H11B17617   0.754   3.047  10.315 -3.0825  2.5489 -0.0583
  158SAPE     P17618   0.525   3.037  10.576  0.1233  0.1811 -0.0097
  158SAPE   O1317619   0.526   2.912  10.651  0.4043 -0.5738  0.0859
  158SAPE   O1417620   0.506   3.162  10.659 -0.0142 -0.0952  0.9817
  158SAPE   O1217621   0.662   3.058  10.495 -0.3209 -0.1166  0.1705
  158SAPE   O1117622   0.413   3.027  10.462 -0.2789 -0.0970  0.2412
  158SAPE    C117623   0.374   3.143  10.387 -0.0229 -0.5086 -0.1661
  158SAPE    HA17624   0.308   3.204  10.453 -2.1209 -0.4033 -2.2150
  158SAPE    HB17625   0.461   3.200  10.350  0.0630 -1.8529 -2.1758
  158SAPE    C217626   0.271   3.113  10.271 -0.4610 -0.5013  0.0583
  158SAPE    HS17627   0.186   3.064  10.324 -1.3521  0.2995 -0.6039
  158SAPE   O2117628   0.324   3.039  10.161 -0.2708 -0.5670 -0.5562
  158SAPE   C2117629   0.309   2.915  10.170  0.1381  0.7493  0.3553
  158SAPE   O2217630   0.240   2.858  10.259 -0.4603  0.0534 -0.2729
  158SAPE   C2217631   0.419   2.845  10.089 -0.0266  0.0199 -0.1470
  158SAPE   H2R17632   0.476   2.924  10.036  0.5890  0.2353  0.8288
  158SAPE   H2S17633   0.486   2.795  10.162 -0.7230  0.6167  0.9293
  158SAPE    C317634   0.213   3.247  10.222 -0.4174  0.1470  0.0444
  158SAPE    HX17635   0.300   3.310  10.196 -0.3727 -0.1979 -0.6960
  158SAPE    HY17636   0.154   3.288  10.306  2.1066 -0.8557  2.4339
  158SAPE   O3117637   0.139   3.222  10.099  0.1649  0.3325 -0.0473
  158SAPE   C3117638   0.081   3.335  10.057 -0.6246  0.5527 -0.4859
  158SAPE   O3217639   0.080   3.442  10.114  0.2433 -0.4826 -0.2431
  158SAPE   C3217640   0.020   3.303   9.918 -0.0423 -0.5233 -0.1356
  158SAPE   H2X17641  -0.071   3.245   9.946 -0.5800  1.0863  1.7482
  158SAPE   H2Y17642   0.094   3.242   9.863  0.2779 -0.7684  0.5519
  158SAPE   C2317643   0.352   2.743   9.997 -0.0073  0.3805  0.3857
  158SAPE   H3R17644   0.320   2.792   9.903 -0.2120  1.8492  1.1819
  158SAPE   H3S17645   0.260   2.698  10.041  0.8646 -2.5807 -0.5867
  158SAPE   C2417646   0.454   2.629   9.972 -0.3641  0.0780  0.2019
  158SAPE   H4R17647   0.507   2.597  10.065 -1.7040 -0.4389  0.8163
  158SAPE   H4S17648   0.529   2.678   9.907  0.9183 -0.6046  1.1113
  158SAPE   C2517649   0.389   2.508   9.916  0.1140  0.4416 -0.5157
  158SAPE   H5R17650   0.373   2.426   9.989  0.8468 -0.7874 -1.6976
  158SAPE   C2617651   0.355   2.485   9.785 -0.2776  0.2243  0.7737
  158SAPE   H6R17652   0.303   2.391   9.763  0.8948 -0.4380  0.7602
  158SAPE   C2717653   0.371   2.582   9.674 -0.3183  0.3927  0.2582
  158SAPE   H7R17654   0.404   2.548   9.574 -1.1255  1.2526 -0.3125
  158SAPE   H7S17655   0.442   2.656   9.715  0.5743 -1.0699  1.4919
  158SAPE   C2817656   0.231   2.646   9.663 -0.6604 -0.0545 -0.6080
  158SAPE   H8R17657   0.178   2.664   9.758  1.9971  1.4299  0.7183
  158SAPE   C2917658   0.177   2.695   9.549 -0.3568 -0.3269  0.6076
  158SAPE   H9R17659   0.076   2.733   9.568  0.3777  1.8040  0.5451
  158SAPE  C21017660   0.234   2.704   9.408 -0.3364  0.4181  0.0632
  158SAPE  H10R17661   0.344   2.720   9.397 -0.5312  1.4602 -0.5706
  158SAPE  H10S17662   0.203   2.802   9.366  0.0934  1.3373  1.8088
  158SAPE  C21117663   0.196   2.584   9.322  0.7816 -0.0656  0.1310
  158SAPE  H11R17664   0.192   2.482   9.362 -0.4000 -1.0009 -2.2245
  158SAPE  C21217665   0.201   2.591   9.187  0.6812 -0.4846  0.7483
  158SAPE  H12R17666   0.155   2.507   9.134 -0.9161 -0.2003  1.6102
  158SAPE  C21317667   0.246   2.705   9.096  0.0231 -0.0386  0.7780
  158SAPE  H13R17668   0.330   2.683   9.027 -1.1384  1.3958 -1.1842
  158SAPE  H13S17669   0.281   2.793   9.153  1.0022  0.1530 -0.0964
  158SAPE  C21417670   0.123   2.747   9.013  0.5034  0.1788 -0.2717
  158SAPE  H14R17671   0.039   2.777   9.079 -0.6814 -4.8391  0.9387
  158SAPE  C21517672   0.121   2.759   8.885 -0.0170 -0.5605  0.4489
  158SAPE  H15R17673   0.030   2.788   8.830  0.7140 -1.6284 -1.4240
  158SAPE  C21617674   0.225   2.707   8.787  0.1314 -0.0286 -0.8160
  158SAPE  H16R17675   0.277   2.619   8.829 -3.1896 -1.6221  0.3881
  158SAPE  H16S17676   0.307   2.781   8.775  0.5654 -0.0808  1.3001
  158SAPE  C21717677   0.166   2.677   8.651  0.3899  0.9609 -0.2795
  158SAPE  H17R17678   0.254   2.653   8.588  0.1630 -0.6917 -0.0239
  158SAPE  H17S17679   0.118   2.764   8.602 -1.4259 -0.0106 -0.3422
  158SAPE  C21817680   0.063   2.560   8.655  0.0050  0.1704 -0.5156
  158SAPE  H18R17681  -0.030   2.594   8.705  0.8778  0.6986  0.8032
  158SAPE  H18S17682   0.110   2.484   8.720  1.1287  1.3865  0.1454
  158SAPE  C21917683   0.019   2.520   8.516  0.4292  0.0910 -0.5351
  158SAPE  H19R17684  -0.026   2.420   8.528  1.0836 -0.9692 -4.9664
  158SAPE  H19S17685   0.112   2.508   8.456 -0.7203  1.7264 -2.7953
  158SAPE  C22017686  -0.082   2.604   8.439 -0.0166  0.1196  0.0717
  158SAPE  H20R17687  -0.182   2.621   8.483 -0.5365  1.7274 -1.6168
  158SAPE  H20S17688  -0.096   2.545   8.346  0.3134  1.0886 -0.6077
  158SAPE  H20T17689  -0.044   2.699   8.397  1.2070 -0.9912 -1.4503
  158SAPE   C3317690  -0.036   3.422   9.835 -0.7429 -0.7250 -0.5323
  158SAPE   H3X17691  -0.096   3.489   9.899  3.2342  1.0070  1.7590
  158SAPE   H3Y17692  -0.106   3.381   9.759  0.5541 -1.3672 -1.4254
  158SAPE   C3417693   0.071   3.506   9.763 -0.6556 -0.7178 -0.2212
  158SAPE   H4X17694   0.119   3.565   9.844 -0.6896  1.8486 -1.9568
  158SAPE   H4Y17695   0.016   3.581   9.702  0.9058 -0.0504 -0.8495
  158SAPE   C3517696   0.170   3.427   9.682 -0.9218  0.1544  0.4446
  158SAPE   H5X17697   0.129   3.342   9.625  0.8999  0.9158 -2.2080
  158SAPE   H5Y17698   0.238   3.393   9.763 -0.5343 -1.6637 -0.6039
  158SAPE   C3617699   0.256   3.518   9.582  0.4192  0.5388  0.7463
  158SAPE   H6X17700   0.349   3.473   9.543 -0.2695  0.3255 -0.6951
  158SAPE   H6Y17701   0.293   3.612   9.628  2.7565 -0.0128  0.1261
  158SAPE   C3717702   0.172   3.552   9.456 -0.4649  0.4991 -0.2788
  158SAPE   H7X17703   0.079   3.606   9.484 -0.4452  1.7011 -2.2728
  158SAPE   H7Y17704   0.127   3.462   9.407 -0.1254 -0.2059  0.6891
  158SAPE   C3817705   0.246   3.625   9.354  0.0012 -0.4320 -0.5789
  158SAPE   H8X17706   0.329   3.557   9.324 -0.9246 -2.1954  0.6821
  158SAPE   H8Y17707   0.275   3.723   9.398 -0.5393 -0.2085 -0.7145
  158SAPE   C3917708   0.154   3.666   9.232 -0.0797 -0.3327  0.9128
  158SAPE   H9X17709   0.067   3.722   9.272 -2.2715 -1.4867 -1.8740
  158SAPE   H9Y17710   0.120   3.572   9.183 -1.1291  1.1484 -1.3765
  158SAPE  C31017711   0.237   3.736   9.124 -0.8495 -0.7781  0.0637
  158SAPE  H10X17712   0.333   3.684   9.103 -0.9915 -0.8611 -0.3913
  158SAPE  H10Y17713   0.268   3.833   9.169  0.8070 -1.0903 -0.3375
  158SAPE  C31117714   0.161   3.749   8.995 -0.4323  0.1801 -0.1358
  158SAPE  H11X17715   0.057   3.777   9.023 -0.8840 -1.4976 -0.0312
  158SAPE  H11Y17716   0.157   3.646   8.954 -1.5306  0.3671 -0.5174
  158SAPE  C31217717   0.223   3.850   8.899  1.0249 -0.1531  0.4782
  158SAPE  H12X17718   0.327   3.818   8.877  0.5970  0.2502 -2.5426
  158SAPE  H12Y17719   0.223   3.949   8.949 -0.0819 -1.6482  3.8101
  158SAPE  C31317720   0.141   3.873   8.770 -0.4243 -0.0755  0.3217
  158SAPE  H13X17721   0.044   3.918   8.797  0.0233  0.8237  0.4482
  158SAPE  H13Y17722   0.129   3.775   8.717  1.4276 -1.0476  1.5795
  158SAPE  C31417723   0.213   3.974   8.679  0.3494 -0.1285  0.0315
  158SAPE  H14X17724   0.246   4.060   8.741  2.1090  1.6014 -3.0516
  158SAPE  H14Y17725   0.140   4.029   8.616  1.3097  2.6018  1.1544
  158SAPE  C31517726   0.338   3.922   8.606 -0.0739  0.2201  0.1455
  158SAPE  H15X17727   0.318   3.823   8.558  2.0669 -0.8568  1.3000
  158SAPE  H15Y17728   0.414   3.895   8.683 -0.8635 -0.4277  0.7111
  158SAPE  C31617729   0.379   4.015   8.502 -0.6347 -0.7537 -0.3006
  158SAPE  H16X17730   0.285   4.025   8.443 -0.6509  3.1452  0.1257
  158SAPE  H16Y17731   0.463   3.980   8.438  0.2776  2.0434 -0.7788
  158SAPE  C31717732   0.421   4.154   8.547 -0.0532 -0.6103 -0.2084
  158SAPE  H17X17733   0.498   4.132   8.624  0.7084  0.6995 -0.5688
  158SAPE  H17Y17734   0.330   4.204   8.586 -0.4480 -2.8900  2.0191
  158SAPE  C31817735   0.490   4.237   8.432 -0.2887 -0.2793 -0.1931
  158SAPE  H18X17736   0.523   4.338   8.465 -1.3700  1.0649 -2.9545
  158SAPE  H18Y17737   0.418   4.258   8.350 -0.7835  4.5838  1.1510
  158SAPE  H18Z17738   0.574   4.177   8.393  0.3001  0.5993 -0.3165
  159SAPE     N17739   0.082   0.702   6.291 -0.1354 -0.2247 -0.0305
  159SAPE   HN117740   0.126   0.753   6.212 -0.4640  1.4619  0.8459
  159SAPE   HN217741   0.056   0.758   6.375  0.5095  0.4192 -0.2556
  159SAPE   HN317742   0.136   0.621   6.330 -0.8151 -1.2833 -1.2260
  159SAPE   C1217743  -0.046   0.661   6.225  0.3624  0.1016  0.3122
  159SAPE  H12A17744  -0.013   0.585   6.150  0.3578  0.9890 -0.6022
  159SAPE  H12B17745  -0.096   0.746   6.176 -2.1764 -1.0301  0.7999
  159SAPE   C1117746  -0.152   0.613   6.329 -0.5984 -0.3621  0.2257
  159SAPE  H11A17747  -0.236   0.586   6.261 -2.1983  0.5612  1.7467
  159SAPE  H11B17748  -0.190   0.698   6.388 -1.5738 -0.2054 -0.5982
  159SAPE     P17749  -0.200   0.416   6.492 -0.3887  0.1444 -0.0682
  159SAPE   O1317750  -0.298   0.350   6.403 -0.0762 -0.8879 -1.0649
  159SAPE   O1417751  -0.109   0.325   6.565  0.0083 -0.9301 -0.2052
  159SAPE   O1217752  -0.104   0.504   6.408 -0.1456 -0.1290 -0.5880
  159SAPE   O1117753  -0.262   0.529   6.582 -0.0520  1.0762  0.3902
  159SAPE    C117754  -0.181   0.607   6.670 -0.2258  0.2549  0.3439
  159SAPE    HA17755  -0.071   0.596   6.658 -0.2470  0.5862 -0.2165
  159SAPE    HB17756  -0.193   0.713   6.637  1.0009  0.0365 -0.9047
  159SAPE    C217757  -0.231   0.590   6.817 -0.6014  0.2316 -0.0132
  159SAPE    HS17758  -0.171   0.655   6.885  1.0170 -0.3089 -0.8748
  159SAPE   O2117759  -0.221   0.457   6.865 -0.4122 -0.0587  0.4175
  159SAPE   C2117760  -0.105   0.396   6.872 -0.1864 -0.0825 -0.2778
  159SAPE   O2217761   0.005   0.446   6.854 -0.6712 -0.1816  0.2814
  159SAPE   C2217762  -0.134   0.244   6.904  0.5470 -0.3030 -0.4046
  159SAPE   H2R17763  -0.177   0.254   7.006  1.0418 -1.0349 -0.1188
  159SAPE   H2S17764  -0.221   0.218   6.841 -0.8820  1.7868  0.5919
  159SAPE    C317765  -0.378   0.631   6.842  0.6832  0.0982 -0.6162
  159SAPE    HX17766  -0.443   0.561   6.784 -1.9261 -1.2133  3.4629
  159SAPE    HY17767  -0.400   0.732   6.802  0.8702  0.1863 -0.4950
  159SAPE   O3117768  -0.406   0.611   6.981 -0.4698  0.3534 -0.6802
  159SAPE   C3117769  -0.489   0.509   7.020  0.2710 -0.3566  0.6581
  159SAPE   O3217770  -0.544   0.433   6.944  0.4287  0.3153 -0.0102
  159SAPE   C3217771  -0.503   0.511   7.174  0.2001 -0.2457 -0.6280
  159SAPE   H2X17772  -0.612   0.526   7.193 -0.0233 -3.8984  1.8187
  159SAPE   H2Y17773  -0.452   0.596   7.225  0.0411 -1.4436  1.6222
  159SAPE   C2317774  -0.012   0.157   6.910  0.0500 -0.0573 -0.4928
  159SAPE   H3R17775   0.079   0.192   6.857  1.0372 -1.3075  0.3344
  159SAPE   H3S17776  -0.052   0.064   6.864  0.5842  1.1289 -3.6048
  159SAPE   C2417777   0.030   0.131   7.057  0.0942  0.4235  0.1447
  159SAPE   H4R17778   0.089   0.037   7.050 -0.6369  0.0636 -1.4971
  159SAPE   H4S17779  -0.065   0.100   7.105  0.3681  0.6101  0.8262
  159SAPE   C2517780   0.089   0.239   7.152 -0.3565 -0.4419  0.0727
  159SAPE   H5R17781   0.152   0.317   7.107 -1.0646  1.1384  1.7267
  159SAPE   C2617782   0.076   0.246   7.284 -0.5092 -1.1573 -0.6893
  159SAPE   H6R17783   0.108   0.338   7.334 -1.3130 -2.2590  2.0533
  159SAPE   C2717784   0.003   0.152   7.375  0.7090  0.4281 -0.3406
  159SAPE   H7R17785   0.067   0.118   7.460  1.3068 -0.7722 -1.2372
  159SAPE   H7S17786  -0.012   0.052   7.328  0.6740  0.0666  0.4228
  159SAPE   C2817787  -0.137   0.188   7.404  1.1162 -0.2711 -0.5800
  159SAPE   H8R17788  -0.189   0.249   7.328  0.3220 -0.5543 -0.2714
  159SAPE   C2917789  -0.205   0.143   7.509  0.0283  0.7071 -0.2841
  159SAPE   H9R17790  -0.312   0.168   7.513 -0.3174 -0.6613 -0.4407
  159SAPE  C21017791  -0.160   0.043   7.612  0.1005  0.2293 -0.3708
  159SAPE  H10R17792  -0.082  -0.025   7.573  1.2311  1.2663  0.0392
  159SAPE  H10S17793  -0.240  -0.029   7.641 -0.0445  1.0450  1.3760
  159SAPE  C21117794  -0.091   0.110   7.728 -0.4433  0.1716 -0.0034
  159SAPE  H11R17795  -0.036   0.205   7.715 -0.1098 -0.1441 -0.9936
  159SAPE  C21217796  -0.090   0.074   7.853 -0.3609  0.2517 -0.1614
  159SAPE  H12R17797  -0.053   0.147   7.927 -1.4607  0.7737 -0.1056
  159SAPE  C21317798  -0.152  -0.048   7.914 -0.5601  0.0723  0.0053
  159SAPE  H13R17799  -0.233  -0.084   7.848  0.0823  0.4990 -1.0354
  159SAPE  H13S17800  -0.198  -0.036   8.015 -2.0408  0.0769 -0.6499
  159SAPE  C21417801  -0.054  -0.166   7.916 -0.4683 -0.4096  0.7235
  159SAPE  H14R17802  -0.084  -0.250   7.851  0.5534 -0.0360 -0.2537
  159SAPE  C21517803   0.058  -0.180   7.986 -0.7516  0.4023  0.4608
  159SAPE  H15R17804   0.123  -0.269   7.982  0.1124  0.9009  2.4762
  159SAPE  C21617805   0.114  -0.072   8.080  0.0795 -0.1023 -0.0331
  159SAPE  H16R17806   0.028  -0.004   8.100  0.4652  0.4158 -0.1187
  159SAPE  H16S17807   0.193  -0.014   8.028 -1.5260  0.5308 -1.9187
  159SAPE  C21717808   0.185  -0.141   8.199  0.1776  0.2680 -0.0699
  159SAPE  H17R17809   0.279  -0.185   8.162  0.5863  0.6762  0.4624
  159SAPE  H17S17810   0.128  -0.230   8.233  1.1900 -0.1424  0.5841
  159SAPE  C21817811   0.218  -0.045   8.311  0.5140 -0.2670  0.7403
  159SAPE  H18R17812   0.118  -0.015   8.350 -0.5389 -0.6059 -1.4946
  159SAPE  H18S17813   0.258   0.050   8.270  2.6391 -0.9286  1.1656
  159SAPE  C21917814   0.307  -0.104   8.418 -0.0079 -0.5358 -0.1206
  159SAPE  H19R17815   0.392  -0.135   8.353 -0.2828  0.4888 -1.0056
  159SAPE  H19S17816   0.264  -0.193   8.468  0.8638  0.0927  1.8501
  159SAPE  C22017817   0.350   0.004   8.514 -0.1467 -0.8286  0.2305
  159SAPE  H20R17818   0.379   0.095   8.457  1.3286 -0.0463  2.1057
  159SAPE  H20S17819   0.440  -0.025   8.573  0.2043  1.0900  0.7295
  159SAPE  H20T17820   0.277   0.045   8.587 -0.8226 -1.3995 -0.1222
  159SAPE   C3317821  -0.492   0.376   7.243  0.2356 -0.5476 -0.3416
  159SAPE   H3X17822  -0.383   0.359   7.254  0.2968  0.6309  1.4305
  159SAPE   H3Y17823  -0.538   0.297   7.181  1.6704 -0.8103 -1.1157
  159SAPE   C3417824  -0.565   0.367   7.376  0.2002 -0.2046  0.3386
  159SAPE   H4X17825  -0.563   0.260   7.404 -2.5945 -0.4067  0.0678
  159SAPE   H4Y17826  -0.676   0.380   7.369  0.6327  4.4532 -1.7902
  159SAPE   C3517827  -0.526   0.466   7.483  0.0148 -0.1102  0.9184
  159SAPE   H5X17828  -0.613   0.477   7.552  0.3101  0.7273  1.1616
  159SAPE   H5Y17829  -0.500   0.560   7.430  3.8558 -1.5710 -0.0639
  159SAPE   C3617830  -0.411   0.418   7.568  0.1766  0.1253 -0.5494
  159SAPE   H6X17831  -0.319   0.436   7.507  1.2993 -1.2963  0.6287
  159SAPE   H6Y17832  -0.412   0.313   7.603 -1.3625  0.4323  0.3811
  159SAPE   C3717833  -0.389   0.489   7.705  0.0402 -0.3392 -0.4821
  159SAPE   H7X17834  -0.361   0.593   7.677  3.6723 -1.0360  0.0388
  159SAPE   H7Y17835  -0.297   0.443   7.747 -0.2659  0.4691  1.1003
  159SAPE   C3817836  -0.493   0.477   7.819  0.1657  0.6027 -0.3932
  159SAPE   H8X17837  -0.486   0.371   7.852  2.2872 -0.5590 -3.9884
  159SAPE   H8Y17838  -0.593   0.489   7.771  0.1808  0.6859 -0.4052
  159SAPE   C3917839  -0.469   0.565   7.944  0.3608  0.1674 -0.9571
  159SAPE   H9X17840  -0.496   0.668   7.914 -2.5768 -0.4437 -0.6570
  159SAPE   H9Y17841  -0.368   0.580   7.988  0.4228 -2.1175 -0.1804
  159SAPE  C31017842  -0.581   0.514   8.044  0.0241  0.2075 -0.2104
  159SAPE  H10X17843  -0.546   0.437   8.116  0.0359 -2.6302 -2.9971
  159SAPE  H10Y17844  -0.673   0.481   7.990 -0.4103 -0.4857  0.9201
  159SAPE  C31117845  -0.628   0.619   8.140  0.0623 -0.1465 -0.3913
  159SAPE  H11X17846  -0.714   0.585   8.202  0.1421  2.2281  1.1639
  159SAPE  H11Y17847  -0.664   0.704   8.079  0.5841 -0.5027 -1.2069
  159SAPE  C31217848  -0.514   0.668   8.229  0.3800  0.0757  0.0230
  159SAPE  H12X17849  -0.420   0.696   8.177  0.0516  2.1492  0.4796
  159SAPE  H12Y17850  -0.477   0.586   8.295  2.7763  0.4645 -0.7313
  159SAPE  C31317851  -0.552   0.781   8.321 -0.0421 -0.1305 -0.0051
  159SAPE  H13X17852  -0.641   0.747   8.377 -0.0469 -2.7213 -1.4189
  159SAPE  H13Y17853  -0.574   0.869   8.256  0.2785 -0.2048 -0.2214
  159SAPE  C31417854  -0.440   0.814   8.426  0.3559  0.6106 -0.0140
  159SAPE  H14X17855  -0.483   0.879   8.505 -1.7112 -1.2090  0.4218
  159SAPE  H14Y17856  -0.353   0.869   8.383  1.8323 -0.6525  1.2358
  159SAPE  C31517857  -0.371   0.692   8.496  0.5404 -1.1094  0.1672
  159SAPE  H15X17858  -0.319   0.636   8.415  1.1179 -0.8567  0.3522
  159SAPE  H15Y17859  -0.451   0.621   8.525  0.3310 -1.5471 -1.3860
  159SAPE  C31617860  -0.300   0.742   8.627  0.1616  0.6700  0.2537
  159SAPE  H16X17861  -0.246   0.655   8.670  2.9172  1.4894 -1.3375
  159SAPE  H16Y17862  -0.386   0.766   8.693 -2.5685 -3.0773 -1.5396
  159SAPE  C31717863  -0.204   0.854   8.606 -0.5376  0.0969  0.2046
  159SAPE  H17X17864  -0.267   0.943   8.582 -0.7069 -0.5549 -1.9564
  159SAPE  H17Y17865  -0.134   0.831   8.523 -1.4243  0.9501 -0.8201
  159SAPE  C31817866  -0.124   0.872   8.732  0.2359 -0.6876 -0.4617
  159SAPE  H18X17867  -0.188   0.922   8.808 -0.1526 -1.0600 -0.5418
  159SAPE  H18Y17868  -0.035   0.938   8.717 -0.7950  1.0802  0.8194
  159SAPE  H18Z17869  -0.093   0.775   8.774 -0.4038 -0.4676  0.5480
  160SAPE     N17870   5.019   2.950   6.599 -0.1188  0.2063  0.2508
  160SAPE   HN117871   4.946   2.891   6.555  2.0950 -1.1800 -1.8428
  160SAPE   HN217872   4.987   2.976   6.695  0.7434  0.1628  0.5590
  160SAPE   HN317873   5.043   3.029   6.536 -0.0134 -0.7899 -1.0097
  160SAPE   C1217874   5.149   2.872   6.621  0.3216 -0.2882 -0.1165
  160SAPE  H12A17875   5.120   2.767   6.644  0.3029 -1.0919 -3.3171
  160SAPE  H12B17876   5.212   2.923   6.697 -2.3202  1.8218  0.7825
  160SAPE   C1117877   5.217   2.869   6.482 -0.3458  0.0042  0.5127
  160SAPE  H11A17878   5.158   2.810   6.409  0.7933  0.9064 -1.2077
  160SAPE  H11B17879   5.312   2.814   6.497 -0.1838  0.6250  1.9847
  160SAPE     P17880   5.372   3.076   6.404  0.2990  0.3387  0.1791
  160SAPE   O1317881   5.466   2.965   6.373 -0.1476  0.7713  0.2524
  160SAPE   O1417882   5.354   3.186   6.309 -0.4997 -0.3111  0.5641
  160SAPE   O1217883   5.227   3.002   6.418  0.4444 -0.1083 -0.2741
  160SAPE   O1117884   5.408   3.139   6.543 -0.3419 -0.1940  0.0900
  160SAPE    C117885   5.329   3.249   6.583  0.3653 -0.6131  0.9079
  160SAPE    HA17886   5.371   3.336   6.528 -0.7547 -1.1304 -0.8524
  160SAPE    HB17887   5.225   3.230   6.549  1.3430  0.4816 -3.3473
  160SAPE    C217888   5.333   3.259   6.737 -0.4994  0.1116  0.0368
  160SAPE    HS17889   5.439   3.266   6.771 -0.5280 -1.2050  0.4714
  160SAPE   O2117890   5.270   3.140   6.795 -0.3217 -0.3764 -0.0892
  160SAPE   C2117891   5.288   3.134   6.925  1.0160  0.1259 -0.3594
  160SAPE   O2217892   5.363   3.209   6.987  0.0370 -0.1284 -0.5292
  160SAPE   C2217893   5.195   3.034   6.996  1.0794  0.4484 -0.6793
  160SAPE   H2R17894   5.089   3.068   6.999  0.5322 -1.2291  0.5179
  160SAPE   H2S17895   5.184   2.933   6.950 -1.9019  0.7084 -0.7301
  160SAPE    C317896   5.266   3.393   6.785  0.6730 -0.0469  0.3912
  160SAPE    HX17897   5.291   3.481   6.722  2.4015 -0.2502  0.7377
  160SAPE    HY17898   5.286   3.425   6.890 -0.4223  2.4164 -0.0739
  160SAPE   O3117899   5.122   3.379   6.787  0.1066 -0.2838  0.2467
  160SAPE   C3117900   5.052   3.487   6.817  0.0125  0.6327  1.2858
  160SAPE   O3217901   5.102   3.599   6.838  0.3002  0.4054  0.1167
  160SAPE   C3217902   4.903   3.451   6.838  0.2276 -0.2049 -0.0577
  160SAPE   H2X17903   4.895   3.352   6.789  1.4033 -0.4550  0.2214
  160SAPE   H2Y17904   4.837   3.520   6.782 -1.8727 -2.9248 -1.1117
  160SAPE   C2317905   5.226   3.030   7.153  0.3526  0.1067 -0.2019
  160SAPE   H3R17906   5.203   3.127   7.202  1.1611  0.8879 -1.3063
  160SAPE   H3S17907   5.335   3.014   7.166  0.3145 -0.0088 -0.0311
  160SAPE   C2417908   5.150   2.910   7.223  0.0978  0.0377 -0.2462
  160SAPE   H4R17909   5.186   2.808   7.195  0.1996  0.3224 -1.1970
  160SAPE   H4S17910   5.047   2.919   7.183 -1.2987 -1.1091  2.8106
  160SAPE   C2517911   5.162   2.928   7.375  0.1499 -0.6260  0.5162
  160SAPE   H5R17912   5.262   2.897   7.410  1.2873  1.2444 -0.9352
  160SAPE   C2617913   5.070   2.965   7.463 -0.4943  0.5918 -0.4349
  160SAPE   H6R17914   5.098   2.949   7.568  0.4218 -0.2694 -0.7851
  160SAPE   C2717915   4.925   2.993   7.438 -0.4931 -0.4256  0.7862
  160SAPE   H7R17916   4.915   3.005   7.328  0.7934  0.0408  0.7048
  160SAPE   H7S17917   4.893   3.087   7.487  3.0034  1.4035 -0.1373
  160SAPE   C2817918   4.825   2.882   7.488  0.0154 -0.1679 -0.1522
  160SAPE   H8R17919   4.774   2.831   7.405 -0.0965  0.4365 -0.4565
  160SAPE   C2917920   4.793   2.847   7.617  0.4727  0.1630 -0.0418
  160SAPE   H9R17921   4.728   2.761   7.640 -0.3882  0.2213 -2.0777
  160SAPE  C21017922   4.851   2.918   7.731  0.1834  0.4097 -0.6926
  160SAPE  H10R17923   4.815   3.022   7.729 -1.2235 -0.0149  0.9008
  160SAPE  H10S17924   4.959   2.896   7.747 -0.4889 -1.8888  1.2483
  160SAPE  C21117925   4.771   2.865   7.856  0.5554  0.1774 -0.0924
  160SAPE  H11R17926   4.662   2.883   7.856  0.4379 -0.4791  0.2408
  160SAPE  C21217927   4.809   2.814   7.972  0.3097  0.0415  0.1243
  160SAPE  H12R17928   4.730   2.794   8.046  0.9652  1.1604  1.1683
  160SAPE  C21317929   4.955   2.800   8.019 -0.1490 -0.5286 -0.5013
  160SAPE  H13R17930   5.030   2.808   7.938  1.1527 -0.4274  0.6692
  160SAPE  H13S17931   4.975   2.699   8.060 -5.0473 -1.6271 -0.1818
  160SAPE  C21417932   4.991   2.908   8.117  0.1011  0.0953 -0.0290
  160SAPE  H14R17933   5.049   2.992   8.076 -0.1713  0.2239 -0.1492
  160SAPE  C21517934   4.968   2.897   8.248 -0.3714  0.0447  0.1709
  160SAPE  H15R17935   5.004   2.977   8.314 -2.6747  2.1878 -1.0146
  160SAPE  C21617936   4.893   2.785   8.319 -0.0181  0.1427 -0.4565
  160SAPE  H16R17937   4.850   2.708   8.251 -0.3222  1.1078 -1.3681
  160SAPE  H16S17938   4.809   2.822   8.382 -0.8995 -2.9777  0.3889
  160SAPE  C21717939   4.977   2.701   8.419 -0.2662 -0.7071 -0.1847
  160SAPE  H17R17940   4.914   2.616   8.453 -3.4465  1.7863  0.6304
  160SAPE  H17S17941   5.006   2.764   8.506  0.4614 -1.2526 -0.0173
  160SAPE  C21817942   5.108   2.648   8.367  0.2199  0.4859 -0.4400
  160SAPE  H18R17943   5.172   2.738   8.352 -1.4766  2.1933  1.7911
  160SAPE  H18S17944   5.094   2.590   8.273 -0.0436 -3.4828  1.8318
  160SAPE  C21917945   5.166   2.540   8.461  0.2765  0.0542  0.0039
  160SAPE  H19R17946   5.270   2.526   8.425  0.4042  0.6794  0.1178
  160SAPE  H19S17947   5.108   2.447   8.442 -0.2642 -0.7556  4.5690
  160SAPE  C22017948   5.175   2.584   8.609 -0.8937 -0.0556  0.1186
  160SAPE  H20R17949   5.238   2.506   8.656 -2.1924 -1.2482 -0.0452
  160SAPE  H20S17950   5.079   2.589   8.665 -0.4427 -0.5253  0.9540
  160SAPE  H20T17951   5.234   2.678   8.613  0.5054 -0.7942 -1.8407
  160SAPE   C3317952   4.853   3.435   6.984 -0.2218  0.1209  0.7533
  160SAPE   H3X17953   4.742   3.435   6.975 -0.0988 -1.8412 -2.5954
  160SAPE   H3Y17954   4.887   3.526   7.038 -0.4636  1.2119 -0.8562
  160SAPE   C3417955   4.909   3.322   7.061 -0.4867  0.2235  0.4306
  160SAPE   H4X17956   5.011   3.340   7.101 -1.9867  1.8694  3.9166
  160SAPE   H4Y17957   4.921   3.237   6.991 -0.0073 -0.7195  1.6168
  160SAPE   C3517958   4.830   3.278   7.183 -0.2237 -0.2362  0.2926
  160SAPE   H5X17959   4.789   3.371   7.227 -1.0127 -1.7265  2.9507
  160SAPE   H5Y17960   4.894   3.227   7.258  0.0539  1.4550  1.2640
  160SAPE   C3617961   4.710   3.189   7.158 -0.6181  0.4378 -0.1404
  160SAPE   H6X17962   4.735   3.081   7.165 -1.4907  0.2868  0.9356
  160SAPE   H6Y17963   4.683   3.204   7.051  0.5680 -0.2293 -0.5503
  160SAPE   C3717964   4.582   3.207   7.237  0.1362 -0.6680  0.1118
  160SAPE   H7X17965   4.495   3.147   7.202 -1.1271  0.3495  1.3843
  160SAPE   H7Y17966   4.552   3.314   7.230  1.1178 -0.3254  0.8828
  160SAPE   C3817967   4.612   3.181   7.390  0.4264  0.3420  0.6870
  160SAPE   H8X17968   4.696   3.248   7.417 -1.3798  2.3719  1.5814
  160SAPE   H8Y17969   4.650   3.079   7.413 -0.8209 -0.0405  1.1191
  160SAPE   C3917970   4.495   3.216   7.479  0.4569  0.8138 -0.3229
  160SAPE   H9X17971   4.414   3.165   7.423  1.4537 -1.9709  0.6139
  160SAPE   H9Y17972   4.481   3.326   7.482  3.4301  1.2514  1.4880
  160SAPE  C31017973   4.518   3.168   7.630 -0.1712  0.7620  0.5049
  160SAPE  H10X17974   4.611   3.222   7.657 -0.4529  2.6809 -1.9708
  160SAPE  H10Y17975   4.526   3.057   7.622  1.0674  0.7827  1.3293
  160SAPE  C31117976   4.408   3.221   7.716  0.2331  0.0404  0.7676
  160SAPE  H11X17977   4.314   3.230   7.658  0.4296  0.5787  0.5269
  160SAPE  H11Y17978   4.427   3.326   7.748 -0.3594 -0.2913  2.2500
  160SAPE  C31217979   4.395   3.135   7.845 -0.0823  0.0773  0.6355
  160SAPE  H12X17980   4.377   3.029   7.819 -2.8096  0.8846 -1.1613
  160SAPE  H12Y17981   4.300   3.167   7.895 -0.3276 -0.5818  0.6044
  160SAPE  C31317982   4.504   3.158   7.958  0.1879  0.1737  0.3677
  160SAPE  H13X17983   4.510   3.266   7.985  0.0607  0.6208 -1.2618
  160SAPE  H13Y17984   4.601   3.122   7.918 -0.4920 -2.3108  0.8000
  160SAPE  C31417985   4.489   3.076   8.083  0.2025  0.2424 -0.2789
  160SAPE  H14X17986   4.585   3.074   8.140 -1.3753 -1.3959  2.5741
  160SAPE  H14Y17987   4.477   2.968   8.062 -0.9508 -0.0020  1.4520
  160SAPE  C31517988   4.365   3.120   8.170  0.3968 -0.3813 -0.2420
  160SAPE  H15X17989   4.263   3.115   8.127  0.5429 -1.1259 -0.5294
  160SAPE  H15Y17990   4.396   3.222   8.201  0.9339 -0.8734  0.9198
  160SAPE  C31617991   4.359   3.031   8.298 -0.1326 -0.4176  0.2208
  160SAPE  H16X17992   4.464   3.018   8.334 -0.2077  1.0497  1.0527
  160SAPE  H16Y17993   4.312   2.936   8.266 -1.5071  0.2885  0.0734
  160SAPE  C31717994   4.284   3.091   8.415  0.6980  0.1714  0.2743
  160SAPE  H17X17995   4.178   3.114   8.393  1.1072  1.4997 -0.4748
  160SAPE  H17Y17996   4.321   3.194   8.436  0.3608  0.9982 -2.7937
  160SAPE  C31817997   4.288   3.009   8.540 -0.5254  0.1796  0.3854
  160SAPE  H18X17998   4.393   3.000   8.578 -0.7584 -1.9977  0.6620
  160SAPE  H18Y17999   4.235   2.913   8.522 -2.3015  1.0018  1.0550
  160SAPE  H18Z18000   4.251   3.067   8.627  0.7157  0.9538  0.4165
  161SAPE     N18001   1.632   6.427   6.430  0.2060  0.6977 -0.0772
  161SAPE   HN118002   1.565   6.375   6.369 -0.1534  1.2985 -0.2014
  161SAPE   HN218003   1.690   6.490   6.371  0.3707 -0.9058 -1.7044
  161SAPE   HN318004   1.696   6.365   6.483  1.8437 -0.7633 -3.4580
  161SAPE   C1218005   1.553   6.511   6.531  0.1191  0.3944 -0.6815
  161SAPE  H12A18006   1.623   6.523   6.616  2.3489 -0.1486 -2.3588
  161SAPE  H12B18007   1.469   6.451   6.572  0.4216  0.0112 -0.6196
  161SAPE   C1118008   1.505   6.641   6.481 -0.7550 -0.2454  0.0817
  161SAPE  H11A18009   1.480   6.715   6.560  0.9289  1.5242 -0.9246
  161SAPE  H11B18010   1.417   6.626   6.415 -0.2995  0.5921 -0.7493
  161SAPE     P18011   1.634   6.850   6.391  0.3705 -0.0927  0.1244
  161SAPE   O1318012   1.690   6.892   6.263  0.1100  0.6884  0.4831
  161SAPE   O1418013   1.504   6.916   6.418  0.2454  0.0063 -0.3674
  161SAPE   O1218014   1.615   6.697   6.401  0.7538  0.0234 -0.9865
  161SAPE   O1118015   1.735   6.890   6.504  0.0128  0.1232  0.0219
  161SAPE    C118016   1.847   6.833   6.571 -0.3514 -0.3873 -0.3874
  161SAPE    HA18017   1.879   6.737   6.526  1.0295  0.4130 -1.1634
  161SAPE    HB18018   1.933   6.903   6.570  1.3964 -2.4196 -0.2059
  161SAPE    C218019   1.820   6.805   6.723  0.1320  0.1693 -0.2655
  161SAPE    HS18020   1.760   6.711   6.723  0.2801  0.0406  1.4250
  161SAPE   O2118021   1.751   6.926   6.773 -0.4370 -0.2024  0.2191
  161SAPE   C2118022   1.624   6.904   6.804 -0.3921 -0.3754 -0.7524
  161SAPE   O2218023   1.558   6.801   6.805  0.1225  0.5083  0.2533
  161SAPE   C2218024   1.576   7.041   6.864 -0.6444  0.1880 -0.8582
  161SAPE   H2R18025   1.657   7.079   6.929 -0.8173  0.6306 -0.8977
  161SAPE   H2S18026   1.580   7.119   6.784  1.5311  2.1137  0.9891
  161SAPE    C318027   1.943   6.778   6.808  0.0540 -0.1833 -0.6767
  161SAPE    HX18028   2.021   6.856   6.793 -0.0147  0.4425  1.8099
  161SAPE    HY18029   1.997   6.688   6.773  4.6428  1.7829  0.5300
  161SAPE   O3118030   1.906   6.778   6.946 -0.3198  0.4342 -0.1613
  161SAPE   C3118031   1.993   6.813   7.036 -0.3175  0.4097  0.9106
  161SAPE   O3218032   2.116   6.817   7.028  0.0490 -0.3559 -0.1269
  161SAPE   C3218033   1.922   6.865   7.157  0.1642  0.0943  0.0916
  161SAPE   H2X18034   1.824   6.813   7.158  0.3338 -0.2552 -0.9632
  161SAPE   H2Y18035   1.894   6.973   7.156 -0.4229 -0.0013  1.8860
  161SAPE   C2318036   1.446   7.025   6.951 -1.2267  0.5525 -0.1266
  161SAPE   H3R18037   1.444   6.926   7.000 -1.6833  0.1386 -0.9552
  161SAPE   H3S18038   1.357   7.023   6.884 -1.7691  0.6245  0.5798
  161SAPE   C2418039   1.422   7.124   7.068 -0.2154  0.0133 -0.0116
  161SAPE   H4R18040   1.517   7.127   7.125  0.0127 -0.1640 -0.3839
  161SAPE   H4S18041   1.340   7.080   7.131 -0.0374  0.2487  0.3902
  161SAPE   C2518042   1.396   7.265   7.018 -0.6751  0.3781 -0.2962
  161SAPE   H5R18043   1.474   7.289   6.945  0.7286  1.1815  1.4060
  161SAPE   C2618044   1.304   7.358   7.053 -0.3150  0.1510  0.2103
  161SAPE   H6R18045   1.310   7.457   7.005 -1.4295 -0.4204 -1.1984
  161SAPE   C2718046   1.201   7.339   7.160 -0.6023  0.4269  0.2234
  161SAPE   H7R18047   1.218   7.252   7.228 -0.4525  0.0633 -0.2707
  161SAPE   H7S18048   1.103   7.320   7.112  0.5846 -2.1351 -1.4425
  161SAPE   C2818049   1.197   7.462   7.244  0.1724 -0.8181  0.8148
  161SAPE   H8R18050   1.230   7.556   7.198 -0.7826 -0.5024  0.7563
  161SAPE   C2918051   1.169   7.480   7.375 -0.1583  0.1173  0.2315
  161SAPE   H9R18052   1.158   7.585   7.405 -0.7093  0.0061  0.4324
  161SAPE  C21018053   1.119   7.369   7.471  0.0965  0.2989 -0.9202
  161SAPE  H10R18054   1.147   7.269   7.432  0.1509  0.1482 -0.4963
  161SAPE  H10S18055   1.008   7.372   7.485  0.3552  0.6184  1.4412
  161SAPE  C21118056   1.196   7.378   7.599  0.5216  0.3896  0.5151
  161SAPE  H11R18057   1.294   7.327   7.604 -0.0784 -0.8830 -0.3426
  161SAPE  C21218058   1.143   7.448   7.701 -0.1454 -0.3641  0.9117
  161SAPE  H12R18059   1.196   7.439   7.798  2.9535  0.0578 -0.6051
  161SAPE  C21318060   1.023   7.539   7.708 -0.0120  0.3874 -0.2549
  161SAPE  H13R18061   0.935   7.471   7.712 -0.4393  0.9720  0.9433
  161SAPE  H13S18062   1.018   7.586   7.607  0.2062  1.7297  0.3391
  161SAPE  C21418063   1.011   7.641   7.826  0.6767 -0.3647  0.5648
  161SAPE  H14R18064   1.005   7.741   7.781  1.1078 -0.8849 -0.7100
  161SAPE  C21518065   1.016   7.621   7.958  0.0539 -0.9009  0.2693
  161SAPE  H15R18066   1.015   7.716   8.014 -0.1369 -0.8030  0.1044
  161SAPE  C21618067   1.033   7.495   8.030  0.1274  0.2884  0.7052
  161SAPE  H16R18068   1.054   7.405   7.969  1.3278 -0.4574  2.1600
  161SAPE  H16S18069   0.952   7.472   8.102 -0.0161 -0.9099  0.1666
  161SAPE  C21718070   1.163   7.502   8.107 -0.3411  0.2273  0.3780
  161SAPE  H17R18071   1.155   7.587   8.178 -1.1299  2.0871 -1.8291
  161SAPE  H17S18072   1.246   7.507   8.034  0.1622  0.6360  0.9620
  161SAPE  C21818073   1.193   7.376   8.193  0.0564 -0.3198 -0.3893
  161SAPE  H18R18074   1.188   7.292   8.121 -0.2744 -2.3803  1.9262
  161SAPE  H18S18075   1.107   7.350   8.258  0.9766  0.7278  1.3272
  161SAPE  C21918076   1.325   7.392   8.273  0.1631  0.6905 -0.0031
  161SAPE  H19R18077   1.406   7.434   8.209  0.2847 -0.3630 -0.5843
  161SAPE  H19S18078   1.365   7.292   8.304  1.2333  0.5605 -1.6631
  161SAPE  C22018079   1.309   7.485   8.396  0.3687 -0.0594 -0.4357
  161SAPE  H20R18080   1.397   7.459   8.458 -1.7911  0.6954  3.2729
  161SAPE  H20S18081   1.212   7.468   8.448  1.2928  0.7144  1.6737
  161SAPE  H20T18082   1.295   7.589   8.360  1.6776  0.7449  1.2330
  161SAPE   C3318083   1.990   6.844   7.298  0.1392 -0.3139  0.5017
  161SAPE   H3X18084   2.061   6.928   7.315  0.0596 -0.0378 -0.4683
  161SAPE   H3Y18085   2.050   6.751   7.289  0.8608  0.0455  1.4615
  161SAPE   C3418086   1.889   6.834   7.410 -0.6888 -0.3573 -0.0011
  161SAPE   H4X18087   1.813   6.756   7.391 -0.5503 -0.8737  1.4893
  161SAPE   H4Y18088   1.842   6.934   7.394  1.5446  0.7131 -0.3978
  161SAPE   C3518089   1.947   6.816   7.549  0.4625 -0.2394  0.1048
  161SAPE   H5X18090   2.042   6.873   7.556  0.2822  0.1049 -0.2661
  161SAPE   H5Y18091   1.963   6.709   7.574  0.3087 -0.0744  0.9416
  161SAPE   C3618092   1.849   6.873   7.659 -0.0479  0.0414 -0.4270
  161SAPE   H6X18093   1.757   6.812   7.661 -0.1954  0.2341 -1.0079
  161SAPE   H6Y18094   1.824   6.980   7.641 -0.5531  0.4672  2.3406
  161SAPE   C3718095   1.915   6.861   7.803  0.0034 -0.3905 -0.0877
  161SAPE   H7X18096   1.991   6.939   7.824  0.9481 -1.9927  3.0550
  161SAPE   H7Y18097   1.965   6.762   7.807  1.1536  0.1325 -0.9051
  161SAPE   C3818098   1.807   6.869   7.911 -0.3822  0.2110 -0.6855
  161SAPE   H8X18099   1.742   6.780   7.898  0.7137 -1.0526  1.7233
  161SAPE   H8Y18100   1.745   6.959   7.896  0.4468  0.9933  0.3824
  161SAPE   C3918101   1.859   6.885   8.059  0.4399  0.6457  0.0357
  161SAPE   H9X18102   1.878   6.994   8.072 -0.9614  0.6965  2.1316
  161SAPE   H9Y18103   1.958   6.836   8.073 -0.0661 -0.0245  1.3708
  161SAPE  C31018104   1.770   6.821   8.164 -0.1145  0.5266  0.7578
  161SAPE  H10X18105   1.756   6.717   8.126  1.2817  1.3489 -2.3489
  161SAPE  H10Y18106   1.671   6.869   8.154  0.3405  1.1922 -0.8356
  161SAPE  C31118107   1.825   6.819   8.308 -0.3107 -0.3364  0.2034
  161SAPE  H11X18108   1.934   6.798   8.314 -0.4858 -1.1395  0.6766
  161SAPE  H11Y18109   1.770   6.748   8.372 -3.9531  0.8008 -1.4125
  161SAPE  C31218110   1.804   6.952   8.382 -0.3935  0.3970 -0.2201
  161SAPE  H12X18111   1.701   6.993   8.367  0.3513  3.0797  1.4156
  161SAPE  H12Y18112   1.869   7.024   8.328  0.3334  0.3827  0.6207
  161SAPE  C31318113   1.832   6.933   8.531  0.2240  0.0221 -0.3739
  161SAPE  H13X18114   1.767   6.858   8.579  0.2963  0.3962  0.3140
  161SAPE  H13Y18115   1.827   7.025   8.592  2.4714 -0.9970  1.5063
  161SAPE  C31418116   1.974   6.874   8.562  1.0997  0.1391  0.1822
  161SAPE  H14X18117   2.052   6.927   8.503  3.9678 -2.0007  1.7951
  161SAPE  H14Y18118   1.977   6.768   8.530 -0.4849 -0.3273  1.4397
  161SAPE  C31518119   2.009   6.871   8.714  1.1694  0.2141 -0.5082
  161SAPE  H15X18120   2.002   6.972   8.759 -1.9931  0.8072 -2.0378
  161SAPE  H15Y18121   2.108   6.822   8.722  0.7709 -0.7185 -1.0947
  161SAPE  C31618122   1.914   6.771   8.783 -0.1844  0.3163  0.4224
  161SAPE  H16X18123   1.884   6.693   8.710  0.0402  0.7970 -0.1946
  161SAPE  H16Y18124   1.821   6.828   8.802 -0.5081 -0.0361 -0.0907
  161SAPE  C31718125   1.967   6.715   8.909 -0.1689  0.1553  0.2978
  161SAPE  H17X18126   1.987   6.799   8.980 -0.6760  0.5247  0.0139
  161SAPE  H17Y18127   2.069   6.677   8.887 -1.0493 -1.3941 -1.3906
  161SAPE  C31818128   1.884   6.613   8.974  0.9465  0.4866 -0.0465
  161SAPE  H18X18129   1.778   6.640   8.989  0.9198  0.5966 -0.4064
  161SAPE  H18Y18130   1.924   6.568   9.067  0.7253 -0.1950 -0.2751
  161SAPE  H18Z18131   1.872   6.527   8.906 -0.0301  1.1128 -0.6889
  162SAPE     N18132   5.810   2.737   6.160 -0.8060 -0.3691 -0.2608
  162SAPE   HN118133   5.755   2.826   6.154 -0.4791  0.1171  2.4714
  162SAPE   HN218134   5.896   2.739   6.103 -1.3272  0.2547 -1.0506
  162SAPE   HN318135   5.749   2.669   6.111 -2.1898 -0.6958  1.7704
  162SAPE   C1218136   5.839   2.691   6.293 -0.6975  0.4980  0.6142
  162SAPE  H12A18137   5.749   2.644   6.338 -0.9999  1.1081  0.6657
  162SAPE  H12B18138   5.870   2.775   6.359  1.1007  0.6069 -0.3066
  162SAPE   C1118139   5.951   2.577   6.290  0.6496  0.5664 -0.5205
  162SAPE  H11A18140   5.957   2.545   6.397  0.6150 -0.1272 -0.7234
  162SAPE  H11B18141   6.056   2.602   6.263  1.1252 -1.2296 -0.5066
  162SAPE     P18142   5.968   2.318   6.236  0.3633  0.6097 -0.3560
  162SAPE   O1318143   5.857   2.220   6.236 -0.2169 -0.1261  0.3019
  162SAPE   O1418144   6.075   2.312   6.129  0.3826  0.9061 -0.0808
  162SAPE   O1218145   5.905   2.460   6.216 -0.4539 -0.4140  0.3096
  162SAPE   O1118146   6.034   2.310   6.373  0.1205  0.5011  0.1246
  162SAPE    C118147   6.105   2.202   6.428 -0.6865 -0.7522 -0.1202
  162SAPE    HA18148   6.053   2.105   6.411 -0.7742 -0.7415  0.0805
  162SAPE    HB18149   6.202   2.200   6.374 -0.9586  0.3299 -0.6780
  162SAPE    C218150   6.107   2.215   6.586  1.1220 -0.6651 -0.2721
  162SAPE    HS18151   6.162   2.303   6.624 -3.0796  1.2248  2.1984
  162SAPE   O2118152   6.139   2.092   6.648 -0.0473 -0.7238 -0.4153
  162SAPE   C2118153   6.268   2.056   6.645 -0.2760 -0.1255 -0.3683
  162SAPE   O2218154   6.353   2.099   6.567  0.5191  0.0354  0.8652
  162SAPE   C2218155   6.304   1.947   6.754  0.0879  0.8590  0.8630
  162SAPE   H2R18156   6.270   1.973   6.857 -2.5809  0.0674  0.2550
  162SAPE   H2S18157   6.232   1.866   6.729 -0.3647  0.7204  2.5059
  162SAPE    C318158   5.961   2.249   6.643 -0.4023  0.4745  0.2672
  162SAPE    HX18159   5.898   2.159   6.629  0.2361  0.3394 -2.1122
  162SAPE    HY18160   5.910   2.325   6.579  0.5266  0.2711 -0.7369
  162SAPE   O3118161   5.965   2.289   6.782  0.4095  0.5723 -0.4063
  162SAPE   C3118162   5.983   2.417   6.812 -0.2116 -0.5800 -0.9575
  162SAPE   O3218163   6.033   2.502   6.740 -0.0545  0.0021 -0.1527
  162SAPE   C3218164   5.947   2.453   6.955 -0.1737  0.1202  0.6051
  162SAPE   H2X18165   5.999   2.547   6.981  0.6843  0.6456 -2.5547
  162SAPE   H2Y18166   5.989   2.373   7.021  2.2344  0.9438  0.1833
  162SAPE   C2318167   6.442   1.874   6.750  0.0556  0.6687  0.3612
  162SAPE   H3R18168   6.486   1.883   6.648 -3.5620 -1.4838 -1.6119
  162SAPE   H3S18169   6.439   1.764   6.769  0.4906  0.2264 -1.8735
  162SAPE   C2418170   6.546   1.934   6.847  0.5360  0.3647 -0.5164
  162SAPE   H4R18171   6.549   2.045   6.840  3.6928  0.5242  1.3712
  162SAPE   H4S18172   6.650   1.908   6.817  2.3347  3.1178  2.6693
  162SAPE   C2518173   6.524   1.901   6.992 -0.2097 -0.8957 -0.0160
  162SAPE   H5R18174   6.555   1.800   7.023  1.8786 -0.5866 -0.9825
  162SAPE   C2618175   6.462   1.976   7.088 -0.5196  1.1879 -0.3349
  162SAPE   H6R18176   6.450   1.929   7.186  0.4769 -0.9162 -1.1650
  162SAPE   C2718177   6.404   2.118   7.087  0.3896 -0.0392  0.1763
  162SAPE   H7R18178   6.417   2.156   6.983 -1.4280 -0.4032 -0.2237
  162SAPE   H7S18179   6.474   2.188   7.137  1.3984 -0.8519 -0.0505
  162SAPE   C2818180   6.255   2.126   7.127  0.1275 -0.3924  0.2775
  162SAPE   H8R18181   6.190   2.054   7.075 -3.3736  0.9924  2.3649
  162SAPE   C2918182   6.204   2.192   7.229  0.3576 -0.1278  0.1744
  162SAPE   H9R18183   6.096   2.180   7.247  0.5403 -0.3063  1.2472
  162SAPE  C21018184   6.277   2.285   7.324  0.3233 -0.1936  0.2316
  162SAPE  H10R18185   6.212   2.372   7.349 -0.4982 -0.7603  0.0783
  162SAPE  H10S18186   6.363   2.334   7.274  0.5623 -3.7444 -3.3090
  162SAPE  C21118187   6.326   2.208   7.440  0.2070  0.6685 -0.0653
  162SAPE  H11R18188   6.344   2.103   7.416  2.4171  1.3397 -1.6726
  162SAPE  C21218189   6.359   2.253   7.559  0.3133  0.1779  0.0530
  162SAPE  H12R18190   6.397   2.179   7.631  0.7875  0.6469  0.2918
  162SAPE  C21318191   6.335   2.394   7.616 -0.3957  0.2985  0.1656
  162SAPE  H13R18192   6.281   2.454   7.540  1.1595  2.4668  0.6783
  162SAPE  H13S18193   6.436   2.437   7.631 -0.3766  0.7123 -1.0590
  162SAPE  C21418194   6.249   2.392   7.739 -0.6003  0.1030  0.3568
  162SAPE  H14R18195   6.152   2.340   7.733  0.2098 -1.6053  1.2663
  162SAPE  C21518196   6.276   2.444   7.862 -0.0031  0.1933 -0.3086
  162SAPE  H15R18197   6.193   2.459   7.932 -2.2530  0.7712 -2.9194
  162SAPE  C21618198   6.406   2.507   7.912 -0.1929 -0.5504 -0.6959
  162SAPE  H16R18199   6.486   2.507   7.835  1.5437  0.8761  1.0428
  162SAPE  H16S18200   6.448   2.441   7.991 -0.0371 -2.2209 -2.1082
  162SAPE  C21718201   6.389   2.653   7.953 -0.4698  0.6991  0.1904
  162SAPE  H17R18202   6.316   2.708   7.889 -1.9261 -1.5638 -0.2359
  162SAPE  H17S18203   6.485   2.708   7.949  0.5135 -0.8279  1.6326
  162SAPE  C21818204   6.339   2.662   8.100  0.3772  0.1186  0.2494
  162SAPE  H18R18205   6.392   2.584   8.159 -1.4272 -0.1636  1.5818
  162SAPE  H18S18206   6.231   2.641   8.116  0.5821 -1.4809 -0.2603
  162SAPE  C21918207   6.376   2.795   8.170 -0.0432 -0.0273 -0.0540
  162SAPE  H19R18208   6.324   2.881   8.123 -0.5624 -0.8562 -1.0482
  162SAPE  H19S18209   6.486   2.813   8.160  0.9074 -4.0285  1.0556
  162SAPE  C22018210   6.351   2.785   8.319 -0.0874 -0.2071  0.1655
  162SAPE  H20R18211   6.318   2.886   8.351  2.0701 -0.0735  2.2698
  162SAPE  H20S18212   6.441   2.761   8.380  0.5580 -0.1176 -0.7362
  162SAPE  H20T18213   6.268   2.712   8.329 -1.0302  0.9685  1.1315
  162SAPE   C3318214   5.794   2.461   6.981 -0.0698  0.0237 -0.5484
  162SAPE   H3X18215   5.742   2.405   6.901  0.7368  0.3723 -1.3293
  162SAPE   H3Y18216   5.746   2.560   6.967  1.0620  0.8374  0.9953
  162SAPE   C3418217   5.751   2.382   7.114  0.3828  0.9476 -0.0553
  162SAPE   H4X18218   5.792   2.279   7.113  0.4247  0.8935  2.3639
  162SAPE   H4Y18219   5.641   2.389   7.122  0.2112 -0.2153 -1.1085
  162SAPE   C3518220   5.823   2.451   7.236 -0.0125 -0.2362 -0.0678
  162SAPE   H5X18221   5.821   2.558   7.207 -0.5536 -0.3431 -0.4537
  162SAPE   H5Y18222   5.930   2.422   7.239  0.0534 -0.1351 -0.9946
  162SAPE   C3618223   5.767   2.410   7.370  0.2822 -0.2097 -0.3881
  162SAPE   H6X18224   5.776   2.301   7.388 -0.9188 -0.6444 -2.1934
  162SAPE   H6Y18225   5.661   2.444   7.369  0.1092 -0.7426 -0.4544
  162SAPE   C3718226   5.840   2.491   7.483 -0.3267 -0.3233  0.3209
  162SAPE   H7X18227   5.845   2.597   7.451  2.7437  0.0323  1.6075
  162SAPE   H7Y18228   5.944   2.452   7.486 -0.2770 -0.1764  0.5299
  162SAPE   C3818229   5.783   2.480   7.624  0.4521  0.0746 -0.6513
  162SAPE   H8X18230   5.785   2.375   7.661  1.9675  0.4885  0.5452
  162SAPE   H8Y18231   5.685   2.533   7.617  0.9311  0.7481 -3.1970
  162SAPE   C3918232   5.864   2.554   7.729 -0.3117  0.0123  0.1853
  162SAPE   H9X18233   5.864   2.658   7.692  0.6606  0.5731  1.6829
  162SAPE   H9Y18234   5.966   2.512   7.732 -0.7409 -1.0832 -0.1503
  162SAPE  C31018235   5.799   2.547   7.866 -0.3916  0.5038 -0.6359
  162SAPE  H10X18236   5.763   2.443   7.880  0.7858  0.0194 -1.0261
  162SAPE  H10Y18237   5.718   2.623   7.871 -1.1786 -0.3503 -0.0414
  162SAPE  C31118238   5.902   2.585   7.975  0.3720  0.1952  0.1520
  162SAPE  H11X18239   5.972   2.666   7.947  0.4247  1.0412  2.4446
  162SAPE  H11Y18240   5.970   2.498   7.987 -0.8071 -1.1631 -2.2190
  162SAPE  C31218241   5.839   2.612   8.119  0.0157 -0.2041  0.2835
  162SAPE  H12X18242   5.774   2.528   8.150 -1.9269  1.2203  0.2714
  162SAPE  H12Y18243   5.767   2.696   8.107  1.5748  1.0689 -0.4693
  162SAPE  C31318244   5.938   2.657   8.231  0.3594 -0.1556  0.3482
  162SAPE  H13X18245   5.992   2.749   8.201 -0.0291  0.4151  1.3704
  162SAPE  H13Y18246   6.003   2.572   8.257  0.7728 -0.6125 -1.9638
  162SAPE  C31418247   5.867   2.703   8.368  0.4232  0.1144  0.1607
  162SAPE  H14X18248   5.820   2.801   8.346 -0.2293  0.3247  2.2866
  162SAPE  H14Y18249   5.952   2.714   8.438 -0.3465  2.1827  0.8413
  162SAPE  C31518250   5.757   2.610   8.426 -0.3559 -0.7908  0.5551
  162SAPE  H15X18251   5.803   2.509   8.425 -0.2098 -0.7174 -0.2394
  162SAPE  H15Y18252   5.682   2.600   8.344  2.0314  0.4483 -1.9249
  162SAPE  C31618253   5.695   2.649   8.560 -0.2297 -0.3422 -0.4615
  162SAPE  H16X18254   5.637   2.743   8.549  0.0879  0.6333  4.3100
  162SAPE  H16Y18255   5.773   2.680   8.633 -0.1528  0.9990 -1.0804
  162SAPE  C31718256   5.596   2.545   8.607 -0.2041  0.0539 -0.2357
  162SAPE  H17X18257   5.646   2.446   8.608  3.7156  1.8574 -0.6917
  162SAPE  H17Y18258   5.518   2.541   8.528 -0.1765  2.3374 -0.4645
  162SAPE  C31818259   5.533   2.576   8.743  0.2576  0.4016  0.6302
  162SAPE  H18X18260   5.481   2.675   8.743 -0.0534  0.2394  0.9032
  162SAPE  H18Y18261   5.612   2.589   8.820  0.5087  0.2362  0.4044
  162SAPE  H18Z18262   5.458   2.504   8.782  0.7085 -0.3356  0.1617
  163SAPE     N18263   6.307   0.175   6.435 -0.2108 -0.5626  0.3886
  163SAPE   HN118264   6.332   0.082   6.398  0.9762  0.2949 -1.0894
  163SAPE   HN218265   6.211   0.207   6.409 -1.2897 -1.0435  3.4783
  163SAPE   HN318266   6.386   0.236   6.404 -0.5667 -1.0076 -1.5363
  163SAPE   C1218267   6.287   0.164   6.581 -0.8132  0.3133  0.1398
  163SAPE  H12A18268   6.386   0.146   6.628 -0.1015  0.5034 -1.2310
  163SAPE  H12B18269   6.221   0.077   6.598 -2.2706  0.8900 -2.0949
  163SAPE   C1118270   6.205   0.283   6.635 -0.3843  0.3810 -0.6021
  163SAPE  H11A18271   6.256   0.377   6.604  2.7010 -0.4132  1.6073
  163SAPE  H11B18272   6.195   0.281   6.746  0.5767 -2.0198 -0.5085
  163SAPE     P18273   5.988   0.421   6.587 -0.1303  0.0961 -0.5888
  163SAPE   O1318274   6.071   0.542   6.581 -0.4538 -1.0115 -0.8743
  163SAPE   O1418275   5.875   0.419   6.491 -0.7342  0.4679  0.4390
  163SAPE   O1218276   6.074   0.287   6.569 -0.4816 -0.9327  0.5506
  163SAPE   O1118277   5.943   0.408   6.741 -0.8252 -0.8703 -0.2504
  163SAPE    C118278   5.895   0.283   6.789  0.4486 -0.5442 -0.3567
  163SAPE    HA18279   5.942   0.202   6.729 -0.2330 -1.7090  0.6420
  163SAPE    HB18280   5.938   0.257   6.888  0.7222  0.6264 -0.1512
  163SAPE    C218281   5.740   0.276   6.801 -0.8861  0.1303 -0.2690
  163SAPE    HS18282   5.703   0.323   6.708  0.8588 -0.0511 -1.0887
  163SAPE   O2118283   5.710   0.363   6.912  0.2915  0.1609  0.1743
  163SAPE   C2118284   5.661   0.481   6.884 -0.8751 -0.5615 -0.7596
  163SAPE   O2218285   5.639   0.531   6.774 -0.3563 -0.1652 -0.4094
  163SAPE   C2218286   5.642   0.556   7.013  0.0933 -0.2781  0.0307
  163SAPE   H2R18287   5.738   0.545   7.069 -0.6243 -0.1871  1.3067
  163SAPE   H2S18288   5.630   0.665   6.996 -2.5026 -0.5911 -0.4418
  163SAPE    C318289   5.682   0.135   6.818 -0.0010  0.1343 -0.4015
  163SAPE    HX18290   5.716   0.089   6.722  0.6686  0.0665 -0.1360
  163SAPE    HY18291   5.571   0.138   6.823 -0.0172 -1.0510  0.3890
  163SAPE   O3118292   5.734   0.059   6.930 -0.0605 -0.0548  0.0086
  163SAPE   C3118293   5.674   0.075   7.052 -0.0526 -0.4922  0.1620
  163SAPE   O3218294   5.563   0.117   7.073  0.1170  0.1902 -0.4025
  163SAPE   C3218295   5.762   0.004   7.151  0.3083  0.5409 -0.4788
  163SAPE   H2X18296   5.831   0.086   7.181 -1.5460  2.5364 -1.3423
  163SAPE   H2Y18297   5.825  -0.069   7.096 -1.3728  0.9861 -3.1771
  163SAPE   C2318298   5.534   0.503   7.111  0.2701 -0.2819 -0.1868
  163SAPE   H3R18299   5.556   0.551   7.208  1.0849 -0.6296 -0.1954
  163SAPE   H3S18300   5.529   0.392   7.105 -0.2854 -0.1983 -3.8595
  163SAPE   C2418301   5.392   0.541   7.072 -0.2306 -0.3957  0.2953
  163SAPE   H4R18302   5.328   0.478   7.137 -1.0679 -0.3778 -0.4851
  163SAPE   H4S18303   5.375   0.519   6.964  0.1804  0.3439  0.0716
  163SAPE   C2518304   5.354   0.683   7.113  0.9642 -0.4627  0.5593
  163SAPE   H5R18305   5.363   0.760   7.035 -0.1602 -1.7274 -0.8792
  163SAPE   C2618306   5.308   0.724   7.235 -0.3035  0.1158 -0.3487
  163SAPE   H6R18307   5.278   0.828   7.253  0.7010  0.5991 -1.3742
  163SAPE   C2718308   5.283   0.647   7.362 -0.5887  0.2694  0.5741
  163SAPE   H7R18309   5.293   0.538   7.345 -0.2007  0.0663  1.9973
  163SAPE   H7S18310   5.175   0.657   7.389 -0.3380 -0.4946  1.9416
  163SAPE   C2818311   5.379   0.688   7.466 -0.1428  0.2219  0.4405
  163SAPE   H8R18312   5.471   0.736   7.430  0.7572 -1.6139  0.2254
  163SAPE   C2918313   5.362   0.681   7.602  0.5563 -0.1758  0.1862
  163SAPE   H9R18314   5.445   0.715   7.667 -0.7509 -0.5683  2.1616
  163SAPE  C21018315   5.248   0.626   7.675  0.1521  0.2854  0.2415
  163SAPE  H10R18316   5.162   0.589   7.615 -1.4197 -2.1675  3.7146
  163SAPE  H10S18317   5.188   0.704   7.725 -0.9868 -0.4791  0.1248
  163SAPE  C21118318   5.292   0.517   7.766 -0.0501  0.1356 -0.3891
  163SAPE  H11R18319   5.358   0.438   7.727 -0.9917 -0.3085 -1.1205
  163SAPE  C21218320   5.265   0.498   7.897  0.0332 -0.6153  0.0830
  163SAPE  H12R18321   5.309   0.407   7.941  1.9148  0.1310 -0.1635
  163SAPE  C21318322   5.186   0.581   7.999  0.3648  0.4663 -0.0690
  163SAPE  H13R18323   5.148   0.678   7.960  0.6648  1.3203  1.6901
  163SAPE  H13S18324   5.251   0.609   8.085 -0.4399 -0.4960  0.8797
  163SAPE  C21418325   5.070   0.505   8.067 -0.1402 -0.3351 -0.3088
  163SAPE  H14R18326   5.030   0.428   7.999 -2.0009 -0.8264  1.2501
  163SAPE  C21518327   5.016   0.515   8.195 -0.5906 -0.4548 -0.4817
  163SAPE  H15R18328   4.937   0.446   8.226  0.4222 -1.0330  0.9101
  163SAPE  C21618329   5.062   0.611   8.302 -0.2322  0.0045 -0.2197
  163SAPE  H16R18330   4.971   0.659   8.344  0.1919 -1.2335  2.3469
  163SAPE  H16S18331   5.138   0.681   8.261  0.8966 -0.1188  1.5465
  163SAPE  C21718332   5.139   0.539   8.415 -0.3077 -0.0427  0.5136
  163SAPE  H17R18333   5.176   0.614   8.489 -0.5146 -0.3262  0.9121
  163SAPE  H17S18334   5.230   0.489   8.376  1.0191  2.5018  0.1468
  163SAPE  C21818335   5.051   0.434   8.490 -0.0429 -0.4866  0.2401
  163SAPE  H18R18336   5.026   0.349   8.422  0.8404 -0.1232 -0.5521
  163SAPE  H18S18337   4.947   0.471   8.506  0.3716  0.9471 -0.2323
  163SAPE  C21918338   5.099   0.377   8.632 -0.2472 -0.1758  0.1092
  163SAPE  H19R18339   5.043   0.283   8.651  0.2249 -0.4936 -0.0474
  163SAPE  H19S18340   5.076   0.455   8.708 -2.8996 -0.1167 -0.6662
  163SAPE  C22018341   5.243   0.332   8.630 -0.2176 -0.6129 -0.3692
  163SAPE  H20R18342   5.264   0.281   8.726 -0.6617 -0.5298 -0.2282
  163SAPE  H20S18343   5.310   0.419   8.610  1.3765 -1.6506  0.2560
  163SAPE  H20T18344   5.243   0.261   8.544 -2.0342 -0.6131 -0.3970
  163SAPE   C3318345   5.693  -0.061   7.278  0.2044  0.0003 -0.3636
  163SAPE   H3X18346   5.623  -0.137   7.239 -1.6222  1.8299 -0.8031
  163SAPE   H3Y18347   5.647   0.024   7.333 -0.7658 -1.5514  1.2965
  163SAPE   C3418348   5.808  -0.127   7.357  0.0100  0.3817 -0.2691
  163SAPE   H4X18349   5.886  -0.052   7.381  0.7374 -0.6175  0.5918
  163SAPE   H4Y18350   5.864  -0.201   7.296  0.9648  1.4340 -0.6977
  163SAPE   C3518351   5.758  -0.195   7.493  0.3195  0.0395  0.1504
  163SAPE   H5X18352   5.839  -0.265   7.524  1.1067  0.3541 -1.0845
  163SAPE   H5Y18353   5.661  -0.246   7.476 -0.1600  0.3582  1.7940
  163SAPE   C3618354   5.741  -0.086   7.606  0.3532 -0.3049  0.3497
  163SAPE   H6X18355   5.718   0.004   7.545  1.7873 -0.4384 -0.4477
  163SAPE   H6Y18356   5.842  -0.065   7.649  1.0891 -0.0911 -1.3782
  163SAPE   C3718357   5.632  -0.113   7.710  0.3828 -0.0681  0.5369
  163SAPE   H7X18358   5.665  -0.182   7.790 -0.6135 -0.3711  0.6976
  163SAPE   H7Y18359   5.542  -0.154   7.660  0.2365  0.7933  0.0684
  163SAPE   C3818360   5.594   0.011   7.790 -0.0073  0.1980  0.2993
  163SAPE   H8X18361   5.566   0.092   7.720 -2.0372 -0.6131  0.1001
  163SAPE   H8Y18362   5.682   0.053   7.843  1.0298 -0.7624 -0.6231
  163SAPE   C3918363   5.472  -0.017   7.876 -0.0102 -0.1050 -0.0287
  163SAPE   H9X18364   5.471   0.072   7.942  0.3567  2.3661 -3.1007
  163SAPE   H9Y18365   5.480  -0.106   7.943 -1.7285 -0.0449  0.3051
  163SAPE  C31018366   5.336  -0.018   7.802 -0.1177 -1.1104 -0.1395
  163SAPE  H10X18367   5.335  -0.080   7.710 -2.4893 -3.0977  1.1322
  163SAPE  H10Y18368   5.328   0.087   7.766 -0.6646 -0.4362  1.8576
  163SAPE  C31118369   5.207  -0.025   7.883 -1.2355  0.3590  0.1366
  163SAPE  H11X18370   5.202  -0.129   7.923  2.0132 -0.0370 -0.2651
  163SAPE  H11Y18371   5.121  -0.024   7.813 -0.7347 -2.5338 -0.6392
  163SAPE  C31218372   5.202   0.081   7.996  0.6729 -0.5505 -0.0066
  163SAPE  H12X18373   5.095   0.106   8.014  1.0916  0.8859  0.6585
  163SAPE  H12Y18374   5.250   0.177   7.968 -1.1304  0.0358 -1.2675
  163SAPE  C31318375   5.251   0.034   8.131 -0.3900  0.7992  0.3626
  163SAPE  H13X18376   5.341  -0.022   8.096 -1.3963  0.8449 -2.5440
  163SAPE  H13Y18377   5.182  -0.047   8.162 -1.3646 -0.3978 -4.2921
  163SAPE  C31418378   5.265   0.140   8.238  0.2875  0.1738 -0.0877
  163SAPE  H14X18379   5.170   0.156   8.293  1.3179  0.2705  1.7536
  163SAPE  H14Y18380   5.300   0.235   8.194  0.6619  1.0275  1.9188
  163SAPE  C31518381   5.387   0.102   8.330 -0.3493  0.2889 -0.0392
  163SAPE  H15X18382   5.404   0.177   8.410 -2.8001  0.6774  0.1952
  163SAPE  H15Y18383   5.475   0.091   8.263  0.8150  1.2223  1.2936
  163SAPE  C31618384   5.380  -0.036   8.414  0.6846 -0.9580 -0.2186
  163SAPE  H16X18385   5.367  -0.122   8.345 -2.8739  2.2177 -4.0529
  163SAPE  H16Y18386   5.286  -0.026   8.473 -0.1244  0.4715 -1.6586
  163SAPE  C31718387   5.497  -0.063   8.500 -0.5929  0.3492 -0.6329
  163SAPE  H17X18388   5.496   0.006   8.587  1.0009 -0.3730 -0.0253
  163SAPE  H17Y18389   5.589  -0.039   8.443  0.7172 -2.3068  0.2199
  163SAPE  C31818390   5.512  -0.213   8.536 -0.0842 -0.4482 -0.2088
  163SAPE  H18X18391   5.413  -0.260   8.553  1.0550 -2.3725  1.6048
  163SAPE  H18Y18392   5.569  -0.222   8.631 -2.2507 -0.3144  1.1729
  163SAPE  H18Z18393   5.565  -0.266   8.454  1.8731  0.0093  0.7031
  164SAPE     N18394   1.856   3.315   5.808 -1.2075 -0.1505 -0.1375
  164SAPE   HN118395   1.829   3.400   5.755 -3.0521 -1.7763 -1.9620
  164SAPE   HN218396   1.911   3.252   5.747 -1.5872 -0.3627 -0.2610
  164SAPE   HN318397   1.763   3.276   5.836 -0.3715 -2.0705  0.1264
  164SAPE   C1218398   1.933   3.356   5.928  0.6241  0.2458  0.3724
  164SAPE  H12A18399   2.016   3.283   5.942 -0.1141 -0.7976 -0.5953
  164SAPE  H12B18400   1.867   3.354   6.018 -0.0990  0.7415 -0.1353
  164SAPE   C1118401   2.001   3.494   5.905 -0.4391  0.1604 -0.3630
  164SAPE  H11A18402   2.070   3.486   5.819  0.8820 -2.7802  0.8327
  164SAPE  H11B18403   2.064   3.525   5.991  0.2305  0.7238 -1.0461
  164SAPE     P18404   1.853   3.720   5.961  0.2205 -0.2563 -0.1138
  164SAPE   O1318405   1.966   3.816   5.952 -0.8985  0.0554  0.2333
  164SAPE   O1418406   1.725   3.768   5.908  0.2294 -0.2822  0.4304
  164SAPE   O1218407   1.899   3.588   5.880 -0.0572  0.3069 -0.4219
  164SAPE   O1118408   1.836   3.661   6.105 -0.4632 -0.4767 -0.7904
  164SAPE    C118409   1.710   3.620   6.156  0.0493  0.5605  0.0416
  164SAPE    HA18410   1.641   3.613   6.070  0.9552 -0.4274 -0.6301
  164SAPE    HB18411   1.723   3.522   6.207 -0.5055  0.3800 -0.1611
  164SAPE    C218412   1.636   3.718   6.260 -0.5099 -0.2203 -0.8343
  164SAPE    HS18413   1.624   3.813   6.203  2.1486 -0.4132 -1.8305
  164SAPE   O2118414   1.704   3.720   6.386 -0.3843 -0.8678  0.0830
  164SAPE   C2118415   1.660   3.818   6.464 -0.0242 -0.2535  0.4810
  164SAPE   O2218416   1.585   3.906   6.435 -0.0212 -0.4260 -0.3652
  164SAPE   C2218417   1.727   3.804   6.602  0.6799 -0.2993 -0.3112
  164SAPE   H2R18418   1.709   3.699   6.634 -0.8450  0.1129  0.2494
  164SAPE   H2S18419   1.836   3.819   6.586  0.9934 -0.4939  1.4661
  164SAPE    C318420   1.491   3.658   6.290  0.1932  0.0054 -0.2056
  164SAPE    HX18421   1.447   3.633   6.191 -0.7675  0.6256  0.0470
  164SAPE    HY18422   1.433   3.744   6.329  0.1352  1.1207 -2.5841
  164SAPE   O3118423   1.506   3.547   6.383  0.1393 -0.3258  0.0382
  164SAPE   C3118424   1.386   3.502   6.427 -0.3829 -0.6659  0.9562
  164SAPE   O3218425   1.279   3.552   6.415  0.7955 -0.7391 -0.1579
  164SAPE   C3218426   1.431   3.380   6.503  0.4162  0.0025  0.4404
  164SAPE   H2X18427   1.528   3.388   6.557 -0.1679 -3.2504  2.2527
  164SAPE   H2Y18428   1.447   3.300   6.427  0.4912  0.5709 -0.1488
  164SAPE   C2318429   1.671   3.907   6.715 -0.4429  0.3125  0.2769
  164SAPE   H3R18430   1.560   3.903   6.721 -0.6505 -0.1205 -2.4180
  164SAPE   H3S18431   1.694   4.008   6.676  1.8584 -0.3054 -0.1266
  164SAPE   C2418432   1.758   3.889   6.843 -0.2811  0.5497  0.1636
  164SAPE   H4R18433   1.862   3.908   6.811  0.1310 -2.7439 -0.8518
  164SAPE   H4S18434   1.737   3.782   6.864  1.0013  0.3341  0.4213
  164SAPE   C2518435   1.707   3.965   6.960 -0.3869 -0.5793 -0.0775
  164SAPE   H5R18436   1.628   4.041   6.946  0.7587  0.3026 -2.2188
  164SAPE   C2618437   1.739   3.931   7.089 -0.3513 -0.9978 -0.0697
  164SAPE   H6R18438   1.715   3.990   7.179  0.4344 -1.4979  0.4851
  164SAPE   C2718439   1.836   3.824   7.134 -0.9201  0.0602  0.9375
  164SAPE   H7R18440   1.934   3.875   7.140 -0.0979 -0.7219 -3.1521
  164SAPE   H7S18441   1.851   3.743   7.059 -0.4635 -0.6330  1.7490
  164SAPE   C2818442   1.794   3.759   7.267  0.8843 -0.2384  0.4895
  164SAPE   H8R18443   1.711   3.688   7.259  0.5869  0.0781  0.7497
  164SAPE   C2918444   1.847   3.777   7.382 -0.9903  0.4299 -0.7466
  164SAPE   H9R18445   1.814   3.708   7.461  0.3627  0.5014 -0.0803
  164SAPE  C21018446   1.961   3.867   7.421  0.2154 -0.5462  0.4999
  164SAPE  H10R18447   2.007   3.918   7.334  3.2187 -1.2824  1.5552
  164SAPE  H10S18448   2.043   3.811   7.470 -0.8809 -1.2716  1.5473
  164SAPE  C21118449   1.912   3.983   7.515  0.3064  0.4487  0.9436
  164SAPE  H11R18450   1.872   3.957   7.614  0.1099  1.3447  1.1077
  164SAPE  C21218451   1.915   4.118   7.487 -0.1852  1.0221 -0.6209
  164SAPE  H12R18452   1.889   4.177   7.576 -2.4278 -1.1885  0.3152
  164SAPE  C21318453   1.957   4.196   7.364 -0.6286 -0.5481  0.8247
  164SAPE  H13R18454   1.904   4.294   7.361  0.7143  0.1585 -0.6490
  164SAPE  H13S18455   1.914   4.156   7.270 -2.8889  1.3942  0.9117
  164SAPE  C21418456   2.106   4.199   7.352 -0.1887 -0.4069 -0.5707
  164SAPE  H14R18457   2.161   4.123   7.409  0.6563  0.5024 -0.1311
  164SAPE  C21518458   2.181   4.277   7.277 -0.2862 -0.0248 -0.2739
  164SAPE  H15R18459   2.290   4.269   7.282 -0.3063  0.1516  0.7069
  164SAPE  C21618460   2.133   4.387   7.191 -0.2855 -0.1586 -0.1810
  164SAPE  H16R18461   2.189   4.475   7.228  0.1604 -1.3371  2.1591
  164SAPE  H16S18462   2.028   4.419   7.209 -0.2325  1.2313 -2.1158
  164SAPE  C21718463   2.159   4.362   7.042  0.9243  0.1275 -0.0487
  164SAPE  H17R18464   2.113   4.444   6.982  0.7242  0.5542  0.6746
  164SAPE  H17S18465   2.099   4.273   7.012 -1.0999  0.3651  2.8419
  164SAPE  C21818466   2.296   4.354   6.994 -0.0865 -0.4512  0.4245
  164SAPE  H18R18467   2.346   4.262   7.031  2.8816  1.4406  1.4148
  164SAPE  H18S18468   2.355   4.435   7.041  1.4368 -0.6628 -1.0287
  164SAPE  C21918469   2.296   4.380   6.838 -1.0540  0.0979 -0.5439
  164SAPE  H19R18470   2.400   4.399   6.803 -0.3210 -2.8487 -0.1752
  164SAPE  H19S18471   2.237   4.470   6.812  0.1575  0.4303 -2.3105
  164SAPE  C22018472   2.251   4.265   6.752  0.1950  0.2258 -0.0288
  164SAPE  H20R18473   2.326   4.183   6.761  0.5417  0.3622 -1.4232
  164SAPE  H20S18474   2.258   4.309   6.651  0.1404 -1.4284 -0.7877
  164SAPE  H20T18475   2.146   4.229   6.760 -0.0987  1.3807  2.2896
  164SAPE   C3318476   1.325   3.318   6.593 -0.2111 -0.5376 -0.0151
  164SAPE   H3X18477   1.374   3.233   6.644 -1.6869 -0.2463  2.0101
  164SAPE   H3Y18478   1.239   3.288   6.530  2.1543 -2.6564 -2.4667
  164SAPE   C3418479   1.273   3.418   6.707  1.0010  0.4541 -0.6736
  164SAPE   H4X18480   1.201   3.493   6.669  0.6972  0.3312 -0.3406
  164SAPE   H4Y18481   1.358   3.482   6.738 -0.0022  1.3774  0.2269
  164SAPE   C3518482   1.218   3.338   6.824  0.3873  0.4977 -0.1234
  164SAPE   H5X18483   1.295   3.267   6.862  0.6880  0.2004 -1.2461
  164SAPE   H5Y18484   1.131   3.272   6.800  0.7350  0.6060 -1.8141
  164SAPE   C3618485   1.197   3.423   6.949  0.4363  0.6455  0.7098
  164SAPE   H6X18486   1.107   3.489   6.939 -0.8906 -1.0995  0.6490
  164SAPE   H6Y18487   1.290   3.481   6.967  1.7242 -1.2791  0.4669
  164SAPE   C3718488   1.174   3.351   7.080 -0.0984  0.1366  0.1627
  164SAPE   H7X18489   1.244   3.265   7.085  0.7932  0.9084  1.9920
  164SAPE   H7Y18490   1.069   3.319   7.095 -0.0235  0.5766  1.8827
  164SAPE   C3818491   1.189   3.456   7.192 -0.1386  0.4242 -0.7690
  164SAPE   H8X18492   1.109   3.532   7.173 -0.3392  0.1221 -1.1542
  164SAPE   H8Y18493   1.287   3.508   7.185 -0.2370  0.6852 -0.2326
  164SAPE   C3918494   1.148   3.399   7.330 -0.0495 -0.6370  0.5453
  164SAPE   H9X18495   1.216   3.322   7.373  2.1017  0.9570  0.1551
  164SAPE   H9Y18496   1.049   3.352   7.315 -0.4355  0.1170  0.6861
  164SAPE  C31018497   1.152   3.507   7.436 -0.6234  0.2533 -0.0179
  164SAPE  H10X18498   1.082   3.585   7.399 -0.9094 -0.3159 -0.7231
  164SAPE  H10Y18499   1.253   3.548   7.456 -0.6229  0.3985 -0.3176
  164SAPE  C31118500   1.093   3.449   7.568 -0.3152  0.8023  0.0285
  164SAPE  H11X18501   1.181   3.399   7.613 -0.1657 -0.4782 -1.5870
  164SAPE  H11Y18502   1.008   3.379   7.553  0.0372 -0.2263  2.4871
  164SAPE  C31218503   1.059   3.557   7.671 -0.2846  0.3801 -0.0668
  164SAPE  H12X18504   0.973   3.610   7.626  0.9925  0.2477 -2.8810
  164SAPE  H12Y18505   1.141   3.631   7.678  0.9078 -1.0243  2.4204
  164SAPE  C31318506   1.037   3.501   7.808 -0.1874  0.6227 -0.2179
  164SAPE  H13X18507   1.130   3.454   7.846  0.2298 -0.4285 -2.3651
  164SAPE  H13Y18508   0.962   3.419   7.799 -1.5212  1.9080 -1.3894
  164SAPE  C31418509   0.975   3.600   7.910  0.1183  0.0991  0.0002
  164SAPE  H14X18510   0.868   3.604   7.882 -0.0277 -0.1356  0.5141
  164SAPE  H14Y18511   1.007   3.706   7.896 -4.0852  1.5835  0.1303
  164SAPE  C31518512   0.980   3.545   8.058  0.0648  0.2414 -0.5202
  164SAPE  H15X18513   0.956   3.436   8.060 -0.1231  0.2806  1.2625
  164SAPE  H15Y18514   0.893   3.583   8.117 -0.4817 -0.7753 -0.6451
  164SAPE  C31618515   1.120   3.566   8.128  0.4724 -0.1288 -0.7731
  164SAPE  H16X18516   1.152   3.672   8.122 -2.5507  0.8309 -1.6371
  164SAPE  H16Y18517   1.194   3.498   8.079  1.1477  0.1767 -0.1986
  164SAPE  C31718518   1.114   3.519   8.278 -0.5502 -0.2394 -0.5539
  164SAPE  H17X18519   1.218   3.540   8.313 -0.0974  0.7033 -2.3429
  164SAPE  H17Y18520   1.093   3.412   8.296  3.2779 -1.2237 -1.0000
  164SAPE  C31818521   1.017   3.583   8.376  0.0492  0.1945 -0.3184
  164SAPE  H18X18522   0.910   3.551   8.367  0.0857 -0.3978  1.0651
  164SAPE  H18Y18523   1.028   3.692   8.363  0.2776  0.2747  0.4872
  164SAPE  H18Z18524   1.049   3.564   8.481  0.7835  0.2702 -0.5252
  165SAPE     N18525   2.020   6.023   6.322 -0.4112  0.0348  0.2103
  165SAPE   HN118526   2.115   6.032   6.279 -0.1108 -1.9020  0.3575
  165SAPE   HN218527   2.015   5.933   6.375  0.0763 -0.4830 -0.5857
  165SAPE   HN318528   1.960   5.994   6.242  1.8776  0.5084 -1.8052
  165SAPE   C1218529   1.978   6.136   6.411  0.1111 -0.0274  0.4575
  165SAPE  H12A18530   2.019   6.128   6.514  0.9517  0.9739  0.2173
  165SAPE  H12B18531   1.867   6.131   6.415 -0.3336  3.1088 -2.4488
  165SAPE   C1118532   2.009   6.277   6.341 -0.0218  0.6959 -0.4535
  165SAPE  H11A18533   1.989   6.363   6.409  1.3862 -0.0801  1.0060
  165SAPE  H11B18534   1.942   6.283   6.253 -1.6789 -0.8939  0.6168
  165SAPE     P18535   2.206   6.377   6.201 -0.5152  0.1311  0.0650
  165SAPE   O1318536   2.329   6.322   6.144  0.2808 -0.7537 -0.1387
  165SAPE   O1418537   2.097   6.400   6.105  0.1414  0.4872  0.4333
  165SAPE   O1218538   2.156   6.279   6.320  0.4208 -0.2105 -0.1843
  165SAPE   O1118539   2.242   6.505   6.287 -0.0577  0.1311 -0.2897
  165SAPE    C118540   2.134   6.590   6.326 -0.5726 -0.1218 -0.3909
  165SAPE    HA18541   2.125   6.676   6.256  0.7505  1.7753  1.6188
  165SAPE    HB18542   2.036   6.539   6.327 -0.6640  0.0595  0.6487
  165SAPE    C218543   2.170   6.636   6.470  0.1322  0.2879 -0.0641
  165SAPE    HS18544   2.077   6.683   6.508 -0.9456 -2.3445  0.7149
  165SAPE   O2118545   2.283   6.728   6.466  0.0958  0.0857  0.1604
  165SAPE   C2118546   2.251   6.858   6.432 -0.0204  0.0095 -0.5441
  165SAPE   O2218547   2.139   6.899   6.416  0.1264 -0.0821  0.0245
  165SAPE   C2218548   2.380   6.934   6.431  0.3138  0.0740 -0.4340
  165SAPE   H2R18549   2.450   6.879   6.365  0.7070  1.0511 -0.8572
  165SAPE   H2S18550   2.374   7.036   6.387  2.9194 -0.0230 -1.1957
  165SAPE    C318551   2.209   6.520   6.551 -0.4477  0.0155  0.2122
  165SAPE    HX18552   2.297   6.462   6.516 -0.7057  0.0379 -0.4818
  165SAPE    HY18553   2.124   6.449   6.551 -1.0530  0.7374 -0.0689
  165SAPE   O3118554   2.223   6.562   6.686 -0.1824 -0.1140  0.1199
  165SAPE   C3118555   2.341   6.565   6.735 -0.6539 -0.8196  0.2372
  165SAPE   O3218556   2.450   6.535   6.691 -0.4622  0.6730 -0.0727
  165SAPE   C3218557   2.315   6.617   6.874 -0.0115 -0.1646  0.4177
  165SAPE   H2X18558   2.226   6.575   6.926  0.0976  1.2928  1.8561
  165SAPE   H2Y18559   2.305   6.728   6.870  0.6825 -0.0830  0.8636
  165SAPE   C2318560   2.451   6.938   6.571  0.6875  1.6178  0.6739
  165SAPE   H3R18561   2.543   6.997   6.554  1.0959  1.5505  2.4964
  165SAPE   H3S18562   2.462   6.833   6.606 -3.1607  1.2916  1.4279
  165SAPE   C2418563   2.376   7.018   6.678  0.7653  0.4867 -0.1687
  165SAPE   H4R18564   2.439   7.025   6.769  0.6407  2.6873 -0.1981
  165SAPE   H4S18565   2.289   6.956   6.706  1.5200 -0.6197 -0.1836
  165SAPE   C2518566   2.337   7.156   6.632  0.7631 -0.3634 -0.4437
  165SAPE   H5R18567   2.250   7.161   6.565 -0.7677 -1.4691  1.3689
  165SAPE   C2618568   2.389   7.275   6.674 -1.2818  0.0080  0.2439
  165SAPE   H6R18569   2.367   7.368   6.620  1.2534  0.6387  0.1745
  165SAPE   C2718570   2.512   7.289   6.770  0.6757  0.2150  0.0130
  165SAPE   H7R18571   2.606   7.314   6.717  1.5841  2.3314  2.3669
  165SAPE   H7S18572   2.527   7.204   6.840  1.5380  2.6264  2.9858
  165SAPE   C2818573   2.484   7.400   6.877  0.4312  0.2490 -0.1383
  165SAPE   H8R18574   2.487   7.500   6.832  1.1185 -0.0649 -0.8211
  165SAPE   C2918575   2.467   7.390   7.010 -0.2259  0.2521  0.2744
  165SAPE   H9R18576   2.456   7.486   7.063  1.4350 -0.5277  2.1589
  165SAPE  C21018577   2.455   7.265   7.096 -0.1076 -0.2555 -0.0364
  165SAPE  H10R18578   2.470   7.294   7.202  1.4008 -0.9805 -0.0244
  165SAPE  H10S18579   2.539   7.199   7.067 -0.5389  0.4742 -3.3446
  165SAPE  C21118580   2.327   7.189   7.066  0.4339 -0.2804  0.2773
  165SAPE  H11R18581   2.290   7.200   6.963 -0.2985  1.1923  0.6786
  165SAPE  C21218582   2.255   7.113   7.147  0.8358  0.2775  0.1000
  165SAPE  H12R18583   2.168   7.057   7.110  0.0691  0.8725  0.9486
  165SAPE  C21318584   2.282   7.083   7.295  0.0220 -0.2604 -0.0512
  165SAPE  H13R18585   2.388   7.109   7.319 -0.1194  1.1493 -0.8608
  165SAPE  H13S18586   2.249   6.980   7.319  0.5674 -0.5769 -0.6200
  165SAPE  C21418587   2.218   7.185   7.386  0.2758 -0.2078  0.2933
  165SAPE  H14R18588   2.169   7.271   7.337  0.7679  0.0952  0.3269
  165SAPE  C21518589   2.210   7.175   7.519  0.2229  0.3427  0.0093
  165SAPE  H15R18590   2.151   7.249   7.576 -1.6134 -1.4181  0.5238
  165SAPE  C21618591   2.268   7.068   7.607  0.0519  0.6380 -0.3308
  165SAPE  H16R18592   2.338   7.009   7.543  0.5424  0.5227  0.3023
  165SAPE  H16S18593   2.187   7.007   7.652 -0.1015  1.6903  0.8623
  165SAPE  C21718594   2.366   7.125   7.710  0.7765  0.4041  0.0195
  165SAPE  H17R18595   2.447   7.175   7.653  0.0689  2.7090  0.9123
  165SAPE  H17S18596   2.418   7.045   7.768  1.0467 -0.7267 -1.7180
  165SAPE  C21818597   2.299   7.221   7.811 -0.7494 -0.3586  0.4270
  165SAPE  H18R18598   2.275   7.320   7.767  0.1597 -0.9279 -1.4605
  165SAPE  H18S18599   2.370   7.250   7.891 -1.6511  1.6782  0.5451
  165SAPE  C21918600   2.177   7.164   7.881  0.5190 -0.1628 -0.4950
  165SAPE  H19R18601   2.092   7.150   7.811  0.6710 -1.4823 -0.4446
  165SAPE  H19S18602   2.142   7.229   7.964  0.3976 -2.6450  1.5529
  165SAPE  C22018603   2.208   7.025   7.951 -0.5042 -0.1174  0.0000
  165SAPE  H20R18604   2.309   7.038   7.996  0.6382 -1.4852 -2.0086
  165SAPE  H20S18605   2.232   6.957   7.867  3.2022 -0.7256  1.3476
  165SAPE  H20T18606   2.137   6.976   8.020 -0.7293 -0.7413 -0.6653
  165SAPE   C3318607   2.447   6.594   6.958 -0.0982 -0.6721  0.7709
  165SAPE   H3X18608   2.526   6.636   6.893 -0.5113 -2.2352 -0.8445
  165SAPE   H3Y18609   2.467   6.484   6.958 -0.9502 -0.8333  1.1211
  165SAPE   C3418610   2.450   6.657   7.100  0.4333  0.4021  0.4613
  165SAPE   H4X18611   2.460   6.767   7.095 -0.8079  0.4652 -1.5122
  165SAPE   H4Y18612   2.551   6.625   7.133  1.3939  2.2283 -0.6034
  165SAPE   C3518613   2.338   6.617   7.195  0.0398 -0.1776 -0.2049
  165SAPE   H5X18614   2.313   6.509   7.187 -0.6220 -0.0172 -0.3857
  165SAPE   H5Y18615   2.242   6.669   7.173  0.8339  1.5283  0.1783
  165SAPE   C3618616   2.378   6.648   7.344  0.5090  0.1911 -0.3401
  165SAPE   H6X18617   2.372   6.757   7.364  1.1819 -0.1024  1.6645
  165SAPE   H6Y18618   2.483   6.615   7.362  0.0369 -0.7589  0.7806
  165SAPE   C3718619   2.285   6.579   7.449  0.0398  0.1994  0.4406
  165SAPE   H7X18620   2.309   6.470   7.447 -3.0618 -0.6024  1.8174
  165SAPE   H7Y18621   2.177   6.599   7.434  0.0741  0.2206  0.2112
  165SAPE   C3818622   2.328   6.609   7.590  0.0699 -0.2114 -0.6541
  165SAPE   H8X18623   2.337   6.719   7.600  0.9385 -0.3756  0.6885
  165SAPE   H8Y18624   2.425   6.555   7.600  0.2534 -0.1474 -1.9402
  165SAPE   C3918625   2.222   6.562   7.701 -0.1110 -0.5868  0.5186
  165SAPE   H9X18626   2.236   6.454   7.724 -0.3866 -0.9088 -0.7556
  165SAPE   H9Y18627   2.121   6.579   7.659 -1.4367 -3.0839  2.4370
  165SAPE  C31018628   2.229   6.652   7.827  0.1086 -0.1947  0.0657
  165SAPE  H10X18629   2.191   6.751   7.794 -0.3007 -0.2974  0.2131
  165SAPE  H10Y18630   2.328   6.666   7.875 -0.2286  1.7055  0.2934
  165SAPE  C31118631   2.150   6.605   7.956 -0.1125  0.8505  0.5023
  165SAPE  H11X18632   2.045   6.592   7.924  0.1841  1.0103 -0.5680
  165SAPE  H11Y18633   2.147   6.688   8.030 -1.8514  0.7284  0.6031
  165SAPE  C31218634   2.211   6.484   8.029  0.7237  0.1876 -0.3006
  165SAPE  H12X18635   2.322   6.483   8.029  0.9192 -0.9502 -5.0411
  165SAPE  H12Y18636   2.165   6.394   7.983  0.1152 -0.3178  1.2273
  165SAPE  C31318637   2.167   6.487   8.184  0.6715 -0.0160 -0.6601
  165SAPE  H13X18638   2.211   6.583   8.219  0.5361  0.4105 -1.6214
  165SAPE  H13Y18639   2.204   6.405   8.250 -0.6074  2.1061  3.0072
  165SAPE  C31418640   2.013   6.482   8.218  0.0596 -0.4571  0.0051
  165SAPE  H14X18641   1.978   6.389   8.169 -1.2563  0.2258 -0.4150
  165SAPE  H14Y18642   1.960   6.562   8.162  1.1826 -1.4535 -2.6872
  165SAPE  C31518643   1.980   6.463   8.370 -0.2599 -0.0144 -0.0931
  165SAPE  H15X18644   2.002   6.552   8.432  0.0044  0.8719 -1.3959
  165SAPE  H15Y18645   2.043   6.375   8.398 -0.9739 -0.5857 -0.2445
  165SAPE  C31618646   1.836   6.423   8.396 -0.3141 -0.6101 -0.0672
  165SAPE  H16X18647   1.820   6.323   8.351  0.5229 -1.1945  0.9122
  165SAPE  H16Y18648   1.778   6.494   8.332 -1.7203 -2.3831 -0.8375
  165SAPE  C31718649   1.795   6.445   8.546 -0.1643 -0.1079 -0.4427
  165SAPE  H17X18650   1.685   6.437   8.557 -0.3456 -0.8169 -2.3453
  165SAPE  H17Y18651   1.823   6.548   8.576  1.6069 -0.9305  0.9371
  165SAPE  C31818652   1.854   6.344   8.643 -0.2265 -0.3141 -0.0479
  165SAPE  H18X18653   1.800   6.358   8.739  0.5160  2.5178  0.0336
  165SAPE  H18Y18654   1.963   6.359   8.657 -0.5810  2.0747  0.6522
  165SAPE  H18Z18655   1.834   6.245   8.597  2.8429 -0.7300 -0.6646
  166SAPE     N18656   0.643   2.026   5.928  0.0447 -0.2414  0.0505
  166SAPE   HN118657   0.618   2.126   5.918  3.2970  0.5573 -0.9572
  166SAPE   HN218658   0.744   2.016   5.951 -0.9392 -0.1737  6.2739
  166SAPE   HN318659   0.631   1.979   5.836 -0.5614  0.6874 -0.3513
  166SAPE   C1218660   0.568   1.960   6.042 -0.2631  0.7085 -0.2192
  166SAPE  H12A18661   0.641   1.890   6.089  1.7500  1.6623 -1.7687
  166SAPE  H12B18662   0.493   1.895   5.993  2.1687 -1.4661 -1.2898
  166SAPE   C1118663   0.491   2.062   6.130 -0.6530 -0.4669 -0.5608
  166SAPE  H11A18664   0.563   2.139   6.167  0.2118 -1.1774 -0.7449
  166SAPE  H11B18665   0.439   2.015   6.216 -0.0264  0.7286  0.5096
  166SAPE     P18666   0.393   2.274   6.008 -0.1202 -0.0517 -0.0430
  166SAPE   O1318667   0.525   2.286   5.947 -0.2673  0.3871  0.6274
  166SAPE   O1418668   0.277   2.303   5.926  0.0693  0.2603 -0.1855
  166SAPE   O1218669   0.388   2.121   6.056 -0.3488  0.5521  0.6691
  166SAPE   O1118670   0.385   2.348   6.152 -0.5557  0.3394  0.0174
  166SAPE    C118671   0.282   2.347   6.248  0.4644  0.5735 -1.0911
  166SAPE    HA18672   0.189   2.308   6.201 -0.4526 -1.3876  2.0713
  166SAPE    HB18673   0.297   2.271   6.328 -1.2474 -0.0241 -1.3019
  166SAPE    C218674   0.232   2.488   6.303 -0.4729  0.7692  0.0087
  166SAPE    HS18675   0.221   2.557   6.217 -0.8399  2.0789  1.0746
  166SAPE   O2118676   0.332   2.542   6.390 -0.5990 -0.1951  0.3451
  166SAPE   C2118677   0.318   2.671   6.415 -0.5407  0.1050 -0.4689
  166SAPE   O2218678   0.225   2.743   6.382  0.0904 -0.6428  0.4661
  166SAPE   C2218679   0.451   2.727   6.479  0.2419  0.6092 -0.1935
  166SAPE   H2R18680   0.532   2.652   6.471  0.2559  0.6230 -0.1809
  166SAPE   H2S18681   0.477   2.818   6.422  0.5290  0.4290 -0.3483
  166SAPE    C318682   0.090   2.470   6.375 -0.3414  0.3296  0.1611
  166SAPE    HX18683   0.002   2.450   6.311 -2.1990  1.3437  2.2605
  166SAPE    HY18684   0.071   2.572   6.416 -0.8893  0.2664  0.0738
  166SAPE   O3118685   0.093   2.371   6.480 -0.0857 -0.3662  0.7911
  166SAPE   C3118686   0.017   2.414   6.590 -0.2084 -0.8493 -0.2167
  166SAPE   O3218687  -0.033   2.525   6.595  0.8482  0.3032 -0.6449
  166SAPE   C3218688   0.037   2.314   6.702  0.2549 -1.1144 -0.3395
  166SAPE   H2X18689   0.122   2.243   6.686 -0.9576 -2.4060 -1.3318
  166SAPE   H2Y18690  -0.056   2.253   6.699 -0.2165 -0.4430  0.3509
  166SAPE   C2318691   0.433   2.780   6.624  0.9665 -0.5054 -0.0030
  166SAPE   H3R18692   0.330   2.818   6.644  0.6352 -0.9386 -0.8698
  166SAPE   H3S18693   0.500   2.866   6.648 -0.9132  0.8153  0.7635
  166SAPE   C2418694   0.458   2.676   6.732 -0.0172 -0.4361  0.0249
  166SAPE   H4R18695   0.418   2.579   6.694  0.9176 -0.6656 -0.3898
  166SAPE   H4S18696   0.414   2.698   6.832  1.7954  4.8313 -0.0406
  166SAPE   C2518697   0.604   2.649   6.757  0.0149  0.1260 -0.2351
  166SAPE   H5R18698   0.655   2.641   6.660 -2.3237  2.4572 -1.8204
  166SAPE   C2618699   0.667   2.635   6.875 -0.7404  0.2813  0.2796
  166SAPE   H6R18700   0.776   2.624   6.863 -0.9996 -0.8295 -1.2784
  166SAPE   C2718701   0.610   2.645   7.017 -0.0137 -0.3405 -0.0904
  166SAPE   H7R18702   0.501   2.626   7.010 -0.2399  0.7180  0.3826
  166SAPE   H7S18703   0.611   2.752   7.046  0.0639 -0.0933 -0.9591
  166SAPE   C2818704   0.685   2.556   7.113 -1.0882 -0.1059 -0.4814
  166SAPE   H8R18705   0.705   2.450   7.091  1.1285 -0.1022  1.0707
  166SAPE   C2918706   0.726   2.607   7.235 -0.0987  0.0789 -0.4032
  166SAPE   H9R18707   0.778   2.543   7.308 -2.4874  0.5670  1.8735
  166SAPE  C21018708   0.702   2.747   7.289 -0.1447 -0.1514  0.0687
  166SAPE  H10R18709   0.702   2.821   7.206  0.3089 -1.6059 -1.2762
  166SAPE  H10S18710   0.786   2.788   7.350  0.0323  1.9367 -1.4607
  166SAPE  C21118711   0.572   2.752   7.361  0.1439 -0.3732 -0.4064
  166SAPE  H11R18712   0.495   2.695   7.307  0.2146 -0.2930 -0.5907
  166SAPE  C21218713   0.554   2.811   7.487  0.0312  0.1073 -0.3406
  166SAPE  H12R18714   0.452   2.800   7.526  0.1701  0.1674  0.0462
  166SAPE  C21318715   0.665   2.878   7.571  0.2507  0.1510  0.1203
  166SAPE  H13R18716   0.613   2.938   7.649 -1.7262 -3.8661  2.1950
  166SAPE  H13S18717   0.732   2.944   7.511 -0.4706  0.5640 -0.2546
  166SAPE  C21418718   0.757   2.773   7.638  0.3525  0.2969  0.1026
  166SAPE  H14R18719   0.797   2.693   7.575  0.6450  2.1194 -2.1486
  166SAPE  C21518720   0.811   2.783   7.764  0.4177  0.1490 -0.2987
  166SAPE  H15R18721   0.873   2.693   7.781  0.8818 -0.0111 -2.4877
  166SAPE  C21618722   0.798   2.886   7.869 -0.8488  0.0938  0.1660
  166SAPE  H16R18723   0.792   2.847   7.973  0.6048  0.0769  0.2581
  166SAPE  H16S18724   0.700   2.938   7.860 -1.1756 -0.3946  0.7920
  166SAPE  C21718725   0.901   2.999   7.853  0.0392  0.4877 -0.8837
  166SAPE  H17R18726   0.896   3.042   7.750  0.3592 -1.0079 -1.5494
  166SAPE  H17S18727   0.997   2.944   7.865 -1.1257 -1.1682  1.3682
  166SAPE  C21818728   0.884   3.111   7.952  0.7016  0.1061  0.1455
  166SAPE  H18R18729   0.808   3.182   7.914  1.6387  0.1222 -1.8518
  166SAPE  H18S18730   0.977   3.171   7.962  0.7237  0.3772 -1.4193
  166SAPE  C21918731   0.848   3.064   8.093  0.9062 -0.4331 -0.0651
  166SAPE  H19R18732   0.930   2.999   8.128  1.0765 -0.2274 -0.0818
  166SAPE  H19S18733   0.753   3.007   8.082  0.5872 -0.0832  0.8065
  166SAPE  C22018734   0.823   3.171   8.198  0.2241 -0.3701  0.1547
  166SAPE  H20R18735   0.845   3.138   8.302 -1.5576 -0.8599  0.4021
  166SAPE  H20S18736   0.718   3.208   8.195 -0.1452 -1.1394  2.0428
  166SAPE  H20T18737   0.887   3.259   8.175 -0.4706  0.8037  2.3366
  166SAPE   C3318738   0.031   2.383   6.848  0.2921 -0.7362 -0.5509
  166SAPE   H3X18739  -0.031   2.311   6.905 -1.9175 -1.2615 -3.3574
  166SAPE   H3Y18740  -0.008   2.487   6.840  0.2340 -0.8549 -2.3388
  166SAPE   C3418741   0.171   2.398   6.905 -0.1331  0.2133 -0.6734
  166SAPE   H4X18742   0.245   2.444   6.836 -0.1736  0.0902 -0.7982
  166SAPE   H4Y18743   0.210   2.298   6.934  0.6837  1.5239  3.4770
  166SAPE   C3518744   0.187   2.483   7.042  0.1828  0.3331  0.3862
  166SAPE   H5X18745   0.089   2.530   7.066 -0.2945 -0.8827  0.8728
  166SAPE   H5Y18746   0.250   2.571   7.016 -3.0585  2.6820 -0.1680
  166SAPE   C3618747   0.235   2.406   7.166 -1.1850 -0.2289  0.4049
  166SAPE   H6X18748   0.288   2.311   7.144 -2.8865 -1.5514  1.7785
  166SAPE   H6Y18749   0.146   2.379   7.226 -0.2184 -0.3022  1.8417
  166SAPE   C3718750   0.351   2.479   7.242  0.0557 -0.0289  0.1914
  166SAPE   H7X18751   0.336   2.589   7.235  2.1620  0.4772  2.4470
  166SAPE   H7Y18752   0.447   2.455   7.193 -0.9868 -2.3926 -0.8487
  166SAPE   C3818753   0.355   2.457   7.388 -0.3876  0.0135  0.1629
  166SAPE   H8X18754   0.446   2.506   7.430 -0.9517  1.1229  0.1105
  166SAPE   H8Y18755   0.365   2.347   7.400 -0.6483 -0.0429 -0.1422
  166SAPE   C3918756   0.223   2.498   7.456  0.6107 -0.5942  0.0190
  166SAPE   H9X18757   0.142   2.439   7.408  0.5759 -1.3592  0.9844
  166SAPE   H9Y18758   0.204   2.605   7.432  4.0250 -0.4120 -2.7395
  166SAPE  C31018759   0.215   2.459   7.597 -0.1088 -0.2875 -0.7003
  166SAPE  H10X18760   0.218   2.348   7.602 -0.7454 -0.2915 -0.2597
  166SAPE  H10Y18761   0.118   2.507   7.624  0.5743  2.1683 -2.2741
  166SAPE  C31118762   0.334   2.519   7.679 -0.1009 -0.2690 -0.3523
  166SAPE  H11X18763   0.339   2.629   7.667 -1.1363 -0.2433 -0.5874
  166SAPE  H11Y18764   0.425   2.474   7.634  1.1597  0.7634  1.0464
  166SAPE  C31218765   0.363   2.471   7.820 -0.2054 -0.2978 -0.5511
  166SAPE  H12X18766   0.382   2.362   7.826  0.9834 -0.0594  0.4461
  166SAPE  H12Y18767   0.282   2.503   7.889 -0.5745  1.2751 -1.6290
  166SAPE  C31318768   0.490   2.547   7.876 -0.0477  0.0722  0.7209
  166SAPE  H13X18769   0.471   2.651   7.843 -2.0952 -0.8684 -1.3759
  166SAPE  H13Y18770   0.582   2.504   7.830  1.8334  1.3981  3.0351
  166SAPE  C31418771   0.490   2.542   8.029 -0.2828  0.6286  0.5744
  166SAPE  H14X18772   0.473   2.434   8.049  1.0850 -0.0104 -1.4023
  166SAPE  H14Y18773   0.414   2.610   8.073  0.7055  1.6524  0.7716
  166SAPE  C31518774   0.630   2.585   8.075 -0.5263 -0.1175 -0.5118
  166SAPE  H15X18775   0.690   2.625   7.991  1.4982  0.9972  1.3465
  166SAPE  H15Y18776   0.678   2.488   8.102 -1.1138 -0.0901  0.7202
  166SAPE  C31618777   0.636   2.676   8.199 -0.0698  0.5092  0.8285
  166SAPE  H16X18778   0.557   2.642   8.269 -1.9502 -0.0815 -1.4602
  166SAPE  H16Y18779   0.617   2.779   8.162  1.4763  0.2347 -0.9057
  166SAPE  C31718780   0.778   2.678   8.256  0.3429 -0.0077 -0.6293
  166SAPE  H17X18781   0.843   2.725   8.178 -0.1615 -2.1327 -2.4394
  166SAPE  H17Y18782   0.817   2.574   8.260  3.1189  0.7252 -3.8355
  166SAPE  C31818783   0.790   2.770   8.379  0.3225  0.2962  0.1997
  166SAPE  H18X18784   0.785   2.874   8.342  0.5841  1.1621  2.4597
  166SAPE  H18Y18785   0.875   2.770   8.450  0.2303 -0.2720  0.3194
  166SAPE  H18Z18786   0.699   2.745   8.438  0.2879  0.3517  0.1697
  167SAPE     N18787   2.306   2.253   5.982 -0.3724 -0.3138 -0.0877
  167SAPE   HN118788   2.351   2.280   6.072 -2.9973  0.5091  1.0804
  167SAPE   HN218789   2.306   2.150   5.969  2.6316 -0.6214  1.4427
  167SAPE   HN318790   2.340   2.298   5.895 -2.8202  1.5585 -0.1911
  167SAPE   C1218791   2.165   2.305   5.995  0.2597 -0.1226 -0.2289
  167SAPE  H12A18792   2.127   2.291   6.098  0.0614 -0.2220 -0.3155
  167SAPE  H12B18793   2.100   2.247   5.927 -1.8923  1.2491  0.5655
  167SAPE   C1118794   2.163   2.456   5.965  0.0040  0.2392 -0.2347
  167SAPE  H11A18795   2.067   2.507   5.988  0.5189  0.7539  0.8195
  167SAPE  H11B18796   2.177   2.461   5.854  1.0735 -0.7400 -0.1602
  167SAPE     P18797   2.279   2.678   6.028 -0.3190 -0.2615 -0.4041
  167SAPE   O1318798   2.403   2.702   6.112 -0.3756 -0.3820  0.5079
  167SAPE   O1418799   2.285   2.729   5.888 -0.7238  0.2316 -0.0195
  167SAPE   O1218800   2.270   2.519   6.027 -0.5011  0.9529 -0.5075
  167SAPE   O1118801   2.143   2.715   6.097 -0.3884 -0.2467 -0.1013
  167SAPE    C118802   2.098   2.677   6.226 -0.0029  0.0979  0.2951
  167SAPE    HA18803   1.989   2.697   6.229  0.0342  1.2465 -2.6281
  167SAPE    HB18804   2.104   2.568   6.249 -1.1806 -0.1433 -0.4730
  167SAPE    C218805   2.158   2.747   6.354  0.8996  0.2506 -0.2945
  167SAPE    HS18806   2.170   2.856   6.336 -1.6579  0.6731  0.1783
  167SAPE   O2118807   2.275   2.677   6.398  0.1700 -0.0912  0.2431
  167SAPE   C2118808   2.375   2.754   6.442  0.3933 -0.3634 -0.0843
  167SAPE   O2218809   2.360   2.879   6.452  0.3663  0.6007 -0.2740
  167SAPE   C2218810   2.500   2.676   6.468  0.4245  0.2295 -0.4794
  167SAPE   H2R18811   2.522   2.616   6.377 -0.4885 -0.4077 -0.2993
  167SAPE   H2S18812   2.583   2.746   6.490  0.4455 -0.2168  0.9256
  167SAPE    C318813   2.063   2.734   6.469 -0.1217 -0.1893 -0.1434
  167SAPE    HX18814   2.076   2.628   6.501 -0.5065 -0.0480  0.4899
  167SAPE    HY18815   1.958   2.753   6.439 -2.0290 -3.5326  3.4851
  167SAPE   O3118816   2.099   2.818   6.583  0.2283 -0.1241  0.1560
  167SAPE   C3118817   2.030   2.801   6.692 -0.3527 -1.1296 -0.2939
  167SAPE   O3218818   1.920   2.746   6.697  0.1715  0.2907 -0.1839
  167SAPE   C3218819   2.103   2.875   6.808 -0.3032 -0.1919 -0.0438
  167SAPE   H2X18820   2.148   2.965   6.761  0.0800  1.2935  2.9268
  167SAPE   H2Y18821   2.200   2.824   6.830 -0.5647 -2.2432 -2.9526
  167SAPE   C2318822   2.475   2.581   6.588  0.0414 -0.1287 -0.4364
  167SAPE   H3R18823   2.566   2.524   6.614  0.3085  0.0939 -0.8902
  167SAPE   H3S18824   2.387   2.516   6.568  0.3193 -1.1760  1.5465
  167SAPE   C2418825   2.458   2.660   6.725  0.4020 -0.3166 -1.1204
  167SAPE   H4R18826   2.422   2.589   6.803  0.6369  1.3654  0.5760
  167SAPE   H4S18827   2.382   2.738   6.706  1.0373  0.3389 -0.9853
  167SAPE   C2518828   2.587   2.727   6.785  0.1336 -0.6263  0.4096
  167SAPE   H5R18829   2.667   2.732   6.709  0.6853 -0.3251  0.9979
  167SAPE   C2618830   2.596   2.791   6.906 -0.2671  0.2831  0.1141
  167SAPE   H6R18831   2.693   2.835   6.934 -0.1508 -2.0268  4.2053
  167SAPE   C2718832   2.489   2.802   7.012 -0.0219  0.5180 -0.1607
  167SAPE   H7R18833   2.393   2.790   6.957  1.6106 -1.8320 -2.6972
  167SAPE   H7S18834   2.492   2.906   7.051  2.2547  0.4176  0.0638
  167SAPE   C2818835   2.513   2.690   7.108 -0.0078 -0.2315  0.0440
  167SAPE   H8R18836   2.552   2.600   7.058  0.7072  0.2925 -0.3422
  167SAPE   C2918837   2.488   2.701   7.242  0.4800 -0.3543  0.2098
  167SAPE   H9R18838   2.525   2.618   7.304  0.4372 -0.8458 -0.4023
  167SAPE  C21018839   2.452   2.828   7.314  0.0320  0.3487  0.5223
  167SAPE  H10R18840   2.402   2.891   7.237  0.1939 -2.9467 -2.5307
  167SAPE  H10S18841   2.543   2.880   7.352 -0.4011  0.0136  2.1150
  167SAPE  C21118842   2.363   2.814   7.437  0.6182  0.2755  0.1799
  167SAPE  H11R18843   2.256   2.835   7.418  1.1470  2.3309 -0.7997
  167SAPE  C21218844   2.406   2.776   7.557  0.0251 -0.2877 -0.2302
  167SAPE  H12R18845   2.330   2.757   7.634 -2.1967  0.8182 -1.9815
  167SAPE  C21318846   2.546   2.754   7.603 -0.5639 -0.6609  0.0323
  167SAPE  H13R18847   2.619   2.773   7.521 -1.3345 -1.1152 -0.7837
  167SAPE  H13S18848   2.567   2.652   7.641 -0.3888 -0.2714  0.9893
  167SAPE  C21418849   2.600   2.834   7.720  0.2798 -0.3457 -0.3484
  167SAPE  H14R18850   2.690   2.895   7.702 -0.3215  0.1429 -1.8185
  167SAPE  C21518851   2.545   2.843   7.841  0.0773 -0.0234 -0.1672
  167SAPE  H15R18852   2.583   2.913   7.916 -2.2710  3.2093 -1.7292
  167SAPE  C21618853   2.437   2.760   7.889 -0.3857  0.5706 -0.7342
  167SAPE  H16R18854   2.416   2.672   7.824  0.2124  1.3398 -2.0233
  167SAPE  H16S18855   2.347   2.821   7.907  1.1998  3.1255 -0.9577
  167SAPE  C21718856   2.472   2.706   8.024 -0.1766  0.0070  0.0292
  167SAPE  H17R18857   2.488   2.792   8.092  0.9072 -0.1529  0.0017
  167SAPE  H17S18858   2.567   2.648   8.023 -0.0251  0.2551 -0.3864
  167SAPE  C21818859   2.366   2.609   8.085  0.8383 -0.6531 -0.3185
  167SAPE  H18R18860   2.399   2.592   8.190  0.2027  2.5694  0.5273
  167SAPE  H18S18861   2.369   2.517   8.023  1.1727  0.3037 -1.7813
  167SAPE  C21918862   2.222   2.660   8.082  0.6294  1.0375 -0.0074
  167SAPE  H19R18863   2.160   2.584   8.135 -0.7777 -0.5116 -3.5587
  167SAPE  H19S18864   2.182   2.661   7.978  1.4014  0.0533 -0.3305
  167SAPE  C22018865   2.189   2.801   8.139 -0.9667 -0.1479  0.2130
  167SAPE  H20R18866   2.127   2.854   8.063  0.0358 -1.2739 -1.4681
  167SAPE  H20S18867   2.285   2.855   8.153 -0.1725 -1.4620 -0.0505
  167SAPE  H20T18868   2.148   2.795   8.242 -1.4582  0.5832  0.0712
  167SAPE   C3318869   2.025   2.907   6.934  0.5921  0.9638 -0.1636
  167SAPE   H3X18870   1.917   2.923   6.914 -0.3365 -0.7437  2.7828
  167SAPE   H3Y18871   2.064   3.004   6.974  3.3369 -0.9900  2.3435
  167SAPE   C3418872   2.022   2.792   7.041  0.1315  0.3476 -0.2904
  167SAPE   H4X18873   2.126   2.781   7.079 -1.2160 -1.9633  3.2406
  167SAPE   H4Y18874   1.998   2.697   6.989 -0.9680  0.3891  0.1050
  167SAPE   C3518875   1.927   2.812   7.158 -0.0649  0.1698 -0.1559
  167SAPE   H5X18876   1.889   2.719   7.206 -2.0059  0.7033 -0.5799
  167SAPE   H5Y18877   1.829   2.861   7.138  0.0042 -0.1457 -1.3576
  167SAPE   C3618878   2.006   2.886   7.267  0.4398  0.1757  0.6304
  167SAPE   H6X18879   2.039   2.982   7.222 -0.9972  0.1697 -0.4993
  167SAPE   H6Y18880   2.093   2.821   7.292 -0.6327 -0.5986  2.5756
  167SAPE   C3718881   1.924   2.916   7.391  0.2024  0.4393  0.1639
  167SAPE   H7X18882   1.877   2.824   7.431 -2.5689  1.3665 -0.7466
  167SAPE   H7Y18883   1.843   2.989   7.368 -1.0985  0.1146  3.1927
  167SAPE   C3818884   2.015   2.977   7.507  0.3355  0.8652  0.1714
  167SAPE   H8X18885   2.097   3.041   7.468  1.6738  0.0820  1.5797
  167SAPE   H8Y18886   2.059   2.888   7.556 -1.5220  0.5458  1.3438
  167SAPE   C3918887   1.928   3.064   7.595  0.0074  0.2316 -0.4314
  167SAPE   H9X18888   1.838   3.007   7.628  1.0883 -1.3738 -0.1317
  167SAPE   H9Y18889   1.884   3.147   7.537 -1.3373  0.4369  0.8198
  167SAPE  C31018890   2.008   3.117   7.714 -0.1125 -0.6698  0.0045
  167SAPE  H10X18891   2.098   3.171   7.676  0.1385 -1.9298 -1.2874
  167SAPE  H10Y18892   2.037   3.030   7.776  1.9847 -0.2997 -0.3862
  167SAPE  C31118893   1.918   3.208   7.791  0.2721 -0.8394 -0.5707
  167SAPE  H11X18894   1.830   3.144   7.813 -0.2641 -0.4355 -1.5011
  167SAPE  H11Y18895   1.887   3.295   7.729 -1.1436  1.8089  3.4436
  167SAPE  C31218896   1.975   3.252   7.928 -0.1515 -0.5856  0.2921
  167SAPE  H12X18897   2.061   3.322   7.919 -0.9724  0.6716  1.6380
  167SAPE  H12Y18898   2.007   3.159   7.979 -1.2253 -0.7650  0.6754
  167SAPE  C31318899   1.870   3.323   8.013  0.4966  0.9491 -0.0458
  167SAPE  H13X18900   1.788   3.248   8.018 -0.6162  2.1319 -0.1068
  167SAPE  H13Y18901   1.833   3.420   7.974 -0.7967  0.8288  0.8045
  167SAPE  C31418902   1.926   3.343   8.154 -0.2936 -0.7700  0.3177
  167SAPE  H14X18903   2.008   3.416   8.141  1.3730 -2.4406  0.9492
  167SAPE  H14Y18904   1.964   3.247   8.195 -0.0707 -1.4688 -1.4507
  167SAPE  C31518905   1.822   3.398   8.248  0.4582 -0.3451  0.2651
  167SAPE  H15X18906   1.746   3.319   8.269  0.4141 -0.7135 -1.1592
  167SAPE  H15Y18907   1.781   3.484   8.191  0.3584 -0.9053 -0.5373
  167SAPE  C31618908   1.878   3.461   8.375 -0.2023  0.1637 -0.2654
  167SAPE  H16X18909   1.958   3.529   8.341 -0.3319 -0.6997 -2.4726
  167SAPE  H16Y18910   1.919   3.380   8.440 -2.0689  1.0799  2.2049
  167SAPE  C31718911   1.780   3.539   8.466  0.2284  0.5483  0.2076
  167SAPE  H17X18912   1.822   3.557   8.567  0.0132  1.0594  0.2106
  167SAPE  H17Y18913   1.686   3.481   8.475  0.2346  0.5825  0.4894
  167SAPE  C31818914   1.751   3.680   8.402  0.1340 -0.3690 -0.3092
  167SAPE  H18X18915   1.701   3.740   8.481  1.0707 -1.0775  0.8622
  167SAPE  H18Y18916   1.694   3.681   8.307  1.3576  0.1780 -1.0694
  167SAPE  H18Z18917   1.848   3.731   8.384 -1.2917  2.9138  0.5471
  168SAPE     N18918   2.883   3.153   6.115 -0.3924 -0.3197 -0.3260
  168SAPE   HN118919   2.958   3.082   6.114 -1.9188 -1.9839 -0.9245
  168SAPE   HN218920   2.797   3.103   6.084 -1.7700  0.7758  1.4728
  168SAPE   HN318921   2.916   3.218   6.041  0.0609  0.3310  0.4287
  168SAPE   C1218922   2.881   3.196   6.265  0.0810  0.2060 -0.5128
  168SAPE  H12A18923   2.901   3.101   6.320  1.6745  0.1653 -1.1009
  168SAPE  H12B18924   2.783   3.236   6.297  0.8021  0.4361  1.6009
  168SAPE   C1118925   2.995   3.288   6.324  0.0954  0.2428 -0.1950
  168SAPE  H11A18926   2.963   3.314   6.427  1.0133 -1.2230  0.4991
  168SAPE  H11B18927   2.992   3.376   6.256  1.7040 -0.9831 -1.9537
  168SAPE     P18928   3.196   3.157   6.445 -0.1654 -0.4326 -0.2139
  168SAPE   O1318929   3.230   3.022   6.408 -0.2896  0.1765  0.1171
  168SAPE   O1418930   3.314   3.233   6.473 -0.0490  0.1367  0.0402
  168SAPE   O1218931   3.122   3.228   6.320  0.4234 -0.1472 -0.3226
  168SAPE   O1118932   3.091   3.156   6.563  0.2213  0.2612  0.1479
  168SAPE    C118933   3.073   3.265   6.652 -0.0998 -0.0647  0.7456
  168SAPE    HA18934   3.099   3.361   6.602 -0.5594 -0.5779 -0.5178
  168SAPE    HB18935   2.966   3.269   6.680 -0.2544  0.3299  0.1115
  168SAPE    C218936   3.154   3.259   6.787  0.3983  0.6106 -0.3679
  168SAPE    HS18937   3.258   3.239   6.754  1.1915  0.6315  1.9798
  168SAPE   O2118938   3.111   3.155   6.873 -0.0282 -0.1032 -0.2011
  168SAPE   C2118939   3.199   3.099   6.961  0.5436 -0.0469 -0.0167
  168SAPE   O2218940   3.321   3.118   6.952  0.2901 -0.1737 -0.7225
  168SAPE   C2218941   3.129   2.997   7.053  0.3718 -0.2632 -0.2878
  168SAPE   H2R18942   3.020   3.014   7.064  0.1279 -1.9238  0.1183
  168SAPE   H2S18943   3.142   2.892   7.017 -1.9199 -0.5307 -0.5019
  168SAPE    C318944   3.129   3.394   6.864  0.5515 -0.5747  0.0223
  168SAPE    HX18945   3.021   3.400   6.891  0.2252 -0.9344 -1.1672
  168SAPE    HY18946   3.150   3.475   6.791 -0.7231 -0.2793 -0.0457
  168SAPE   O3118947   3.187   3.406   6.990  0.2485  0.1053 -0.3657
  168SAPE   C3118948   3.314   3.440   6.993  0.2633 -0.0346  0.3853
  168SAPE   O3218949   3.386   3.471   6.898  0.2192  0.6889  0.4940
  168SAPE   C3218950   3.353   3.451   7.140  0.6854 -0.0494  0.3000
  168SAPE   H2X18951   3.267   3.435   7.208  1.6958 -1.1165  1.3948
  168SAPE   H2Y18952   3.407   3.547   7.151  1.8675 -0.7120  0.5213
  168SAPE   C2318953   3.191   2.998   7.201 -0.1989  0.3520  0.3264
  168SAPE   H3R18954   3.301   3.010   7.192 -0.2313 -0.3224 -1.1889
  168SAPE   H3S18955   3.160   2.910   7.262 -1.1172  1.0319  0.8628
  168SAPE   C2418956   3.150   3.134   7.271  0.1574 -0.3012 -0.7679
  168SAPE   H4R18957   3.039   3.129   7.266  0.1635 -0.5247 -0.7199
  168SAPE   H4S18958   3.182   3.214   7.201  0.1758 -1.3378 -2.0040
  168SAPE   C2518959   3.206   3.148   7.412  0.6933  0.3962  0.7400
  168SAPE   H5R18960   3.315   3.161   7.421  0.5586  0.9901  1.6375
  168SAPE   C2618961   3.137   3.127   7.521 -0.1292 -0.0737  0.4926
  168SAPE   H6R18962   3.192   3.130   7.617 -0.1172 -3.8578  0.7513
  168SAPE   C2718963   2.991   3.085   7.535 -0.4573  0.2567  0.2819
  168SAPE   H7R18964   2.952   3.038   7.442  0.3134  1.9216 -0.9206
  168SAPE   H7S18965   2.911   3.161   7.524 -1.4666 -1.0333 -2.0454
  168SAPE   C2818966   2.963   3.003   7.649 -0.1721  0.3322  0.0126
  168SAPE   H8R18967   2.941   2.900   7.619 -0.3059  0.8695 -1.8172
  168SAPE   C2918968   2.960   3.041   7.780  0.1440 -0.3359 -0.1908
  168SAPE   H9R18969   2.944   2.968   7.860 -1.3330 -1.0787 -1.1294
  168SAPE  C21018970   2.977   3.178   7.843  0.5255  0.1763 -0.2566
  168SAPE  H10R18971   2.880   3.205   7.890  1.2050  2.5357 -0.0595
  168SAPE  H10S18972   3.002   3.258   7.770  1.0605 -1.1571 -1.5675
  168SAPE  C21118973   3.083   3.167   7.947 -0.1791  0.6226 -0.9291
  168SAPE  H11R18974   3.183   3.151   7.905 -0.3256 -1.6910 -0.5378
  168SAPE  C21218975   3.064   3.163   8.078 -0.1619 -0.5191  0.3168
  168SAPE  H12R18976   3.155   3.148   8.139 -0.3772 -0.9382  0.5436
  168SAPE  C21318977   2.932   3.164   8.148 -0.5354  0.5861 -0.3984
  168SAPE  H13R18978   2.866   3.248   8.117 -1.2718  0.8930  1.7939
  168SAPE  H13S18979   2.958   3.184   8.255 -1.4212 -0.6662  0.0704
  168SAPE  C21418980   2.857   3.036   8.142  0.2312  0.2864  0.1812
  168SAPE  H14R18981   2.905   2.948   8.097 -1.5885 -1.3304  1.2240
  168SAPE  C21518982   2.742   3.014   8.211  0.9096 -0.3158  0.7070
  168SAPE  H15R18983   2.698   2.914   8.201 -0.6563  0.5874 -4.2143
  168SAPE  C21618984   2.656   3.102   8.301  0.0400 -0.2215 -0.2760
  168SAPE  H16R18985   2.555   3.109   8.256  0.5918 -3.0120 -2.1851
  168SAPE  H16S18986   2.691   3.208   8.299 -0.0738  0.0502  3.5953
  168SAPE  C21718987   2.627   3.042   8.435 -0.4435  0.4066 -0.3490
  168SAPE  H17R18988   2.552   3.108   8.482 -0.6288 -1.3164  1.9700
  168SAPE  H17S18989   2.722   3.056   8.490 -0.3606 -0.0974 -0.3525
  168SAPE  C21818990   2.588   2.891   8.435 -0.1574 -0.4129  0.3282
  168SAPE  H18R18991   2.676   2.828   8.409 -0.3574 -0.8484  0.6915
  168SAPE  H18S18992   2.514   2.887   8.352  0.2684  0.7942 -0.1177
  168SAPE  C21918993   2.527   2.845   8.569 -0.4875 -0.2695  0.2576
  168SAPE  H19R18994   2.605   2.863   8.646 -1.0721  0.7069  0.6255
  168SAPE  H19S18995   2.508   2.737   8.551  0.0828  0.0338 -2.7513
  168SAPE  C22018996   2.394   2.914   8.591 -0.2755  0.0031 -0.6801
  168SAPE  H20R18997   2.342   2.869   8.679 -0.2717  0.7109 -0.3060
  168SAPE  H20S18998   2.320   2.891   8.512 -3.3709  1.2607  1.6494
  168SAPE  H20T18999   2.419   3.019   8.614  0.6175 -0.4742  0.6467
  168SAPE   C3319000   3.474   3.350   7.167  0.1578  0.2626 -0.4660
  168SAPE   H3X19001   3.539   3.329   7.079 -0.5345 -0.3674 -0.8540
  168SAPE   H3Y19002   3.418   3.254   7.178  0.5414  0.1511  0.5879
  168SAPE   C3419003   3.561   3.374   7.293  0.3673  0.0166  0.8089
  168SAPE   H4X19004   3.632   3.453   7.261 -2.4544  2.3129 -0.2506
  168SAPE   H4Y19005   3.624   3.284   7.308  1.2471  0.4522 -0.1051
  168SAPE   C3519006   3.489   3.421   7.422  0.6339 -0.5987 -0.3062
  168SAPE   H5X19007   3.398   3.359   7.434  0.3812 -1.2813 -4.2636
  168SAPE   H5Y19008   3.444   3.520   7.397 -0.2528 -0.9466 -0.0980
  168SAPE   C3619009   3.570   3.430   7.551  0.4183  0.4189  0.2647
  168SAPE   H6X19010   3.639   3.517   7.547  0.4079  0.3787 -1.6484
  168SAPE   H6Y19011   3.638   3.341   7.553  0.3498  0.3482 -0.2810
  168SAPE   C3719012   3.486   3.429   7.684  0.8769  0.3453  0.2612
  168SAPE   H7X19013   3.412   3.346   7.689 -0.3284  1.4329  1.2843
  168SAPE   H7Y19014   3.416   3.515   7.683 -0.3267 -0.6044 -1.1382
  168SAPE   C3819015   3.569   3.420   7.814  0.7595  0.5877  0.0290
  168SAPE   H8X19016   3.645   3.502   7.810  0.9268  0.5342  1.4667
  168SAPE   H8Y19017   3.632   3.329   7.816 -1.0928 -0.7830 -0.8247
  168SAPE   C3919018   3.478   3.423   7.938 -0.4926  0.4906 -0.1221
  168SAPE   H9X19019   3.553   3.410   8.019 -0.4982  2.5770  0.2760
  168SAPE   H9Y19020   3.403   3.341   7.942 -0.4085  0.4597  1.1909
  168SAPE  C31019021   3.394   3.557   7.960 -0.6644  0.5724  0.2596
  168SAPE  H10X19022   3.332   3.559   7.868  0.2451 -1.0513 -0.4323
  168SAPE  H10Y19023   3.462   3.643   7.978  0.0191  0.2047 -0.4675
  168SAPE  C31119024   3.307   3.554   8.083  0.4980  0.4665 -0.3744
  168SAPE  H11X19025   3.243   3.465   8.062  0.3369 -0.0029  1.8313
  168SAPE  H11Y19026   3.257   3.652   8.094  1.3785  0.9597 -0.6430
  168SAPE  C31219027   3.379   3.538   8.220 -0.3464 -0.3879  1.3546
  168SAPE  H12X19028   3.445   3.626   8.237 -0.8411  0.0765  0.9075
  168SAPE  H12Y19029   3.457   3.458   8.214 -1.3382 -1.2703 -1.4432
  168SAPE  C31319030   3.301   3.538   8.345  0.2630  0.2748 -0.2812
  168SAPE  H13X19031   3.239   3.447   8.359  0.0659  0.3110 -0.9039
  168SAPE  H13Y19032   3.230   3.623   8.337 -1.5164 -1.0665  0.6395
  168SAPE  C31419033   3.384   3.579   8.458  0.4147  0.3842 -0.0755
  168SAPE  H14X19034   3.422   3.683   8.466  1.7927 -0.1685  0.9504
  168SAPE  H14Y19035   3.471   3.510   8.453  0.9931  1.1875 -1.9676
  168SAPE  C31519036   3.312   3.530   8.588 -1.1589  0.0211 -0.1639
  168SAPE  H15X19037   3.276   3.425   8.584 -0.0706 -0.5479  2.4961
  168SAPE  H15Y19038   3.220   3.591   8.602 -0.7850  0.4854  0.3031
  168SAPE  C31619039   3.412   3.539   8.703  0.2342 -0.0832  0.1444
  168SAPE  H16X19040   3.459   3.640   8.701  1.0526 -0.4277  0.9470
  168SAPE  H16Y19041   3.500   3.471   8.693  0.8093  0.7627 -0.6997
  168SAPE  C31719042   3.338   3.515   8.831 -0.0513  0.2213  0.1393
  168SAPE  H17X19043   3.293   3.413   8.835  1.2314 -0.3410  1.2639
  168SAPE  H17Y19044   3.262   3.595   8.840  1.3889  1.3990  2.7939
  168SAPE  C31819045   3.422   3.539   8.956 -0.3262  0.2892  0.2351
  168SAPE  H18X19046   3.475   3.636   8.965 -1.3026  0.8038  0.6581
  168SAPE  H18Y19047   3.494   3.455   8.960 -1.0525 -0.3011  1.5567
  168SAPE  H18Z19048   3.368   3.532   9.053 -1.0593  3.4436  0.1512
  169SAPE     N19049   3.459   6.245   6.156 -0.0541 -0.4014 -0.0240
  169SAPE   HN119050   3.435   6.277   6.252 -1.7314  0.5779 -0.7292
  169SAPE   HN219051   3.526   6.313   6.115 -0.6960  0.6698  0.6469
  169SAPE   HN319052   3.367   6.258   6.110 -0.8161  0.0105  1.5343
  169SAPE   C1219053   3.522   6.110   6.157 -0.0941  0.1458 -0.0165
  169SAPE  H12A19054   3.613   6.102   6.219 -0.4673 -0.5794  0.4440
  169SAPE  H12B19055   3.554   6.081   6.055  0.1535 -2.3833  0.7191
  169SAPE   C1119056   3.414   6.014   6.205 -0.6186  0.4743  0.0245
  169SAPE  H11A19057   3.327   6.014   6.135 -0.1043 -0.3083 -0.6249
  169SAPE  H11B19058   3.385   6.039   6.309 -0.0340 -1.9163  0.8178
  169SAPE     P19059   3.485   5.778   6.316  0.0702 -0.2732 -0.1635
  169SAPE   O1319060   3.347   5.751   6.366 -0.5997 -0.2589 -0.2856
  169SAPE   O1419061   3.563   5.659   6.275 -0.1961  0.8009  0.3458
  169SAPE   O1219062   3.466   5.878   6.201  0.5032  0.0331  0.0653
  169SAPE   O1119063   3.570   5.866   6.419  0.3549 -0.0606 -0.0841
  169SAPE    C119064   3.600   5.804   6.543 -0.3001  0.0159 -0.2250
  169SAPE    HA19065   3.545   5.710   6.563 -0.0734  0.1210  1.0090
  169SAPE    HB19066   3.707   5.777   6.556 -1.0573 -2.8159  0.9881
  169SAPE    C219067   3.561   5.905   6.659 -0.4314  0.1914  1.3515
  169SAPE    HS19068   3.620   5.998   6.655 -1.2264  0.6866  0.6337
  169SAPE   O2119069   3.569   5.851   6.790 -0.2401  0.5413  0.2061
  169SAPE   C2119070   3.689   5.805   6.827 -0.5473 -0.3652  0.3827
  169SAPE   O2219071   3.798   5.836   6.775  0.0217 -0.1008  0.3302
  169SAPE   C2219072   3.689   5.714   6.951  0.6091 -0.1191  0.0298
  169SAPE   H2R19073   3.612   5.637   6.935  0.9053 -0.3612 -0.2414
  169SAPE   H2S19074   3.786   5.662   6.937 -0.8930 -2.8222 -0.9568
  169SAPE    C319075   3.419   5.946   6.647 -0.2610 -0.3873  0.0541
  169SAPE    HX19076   3.362   5.850   6.643  0.3958 -0.7575 -1.2854
  169SAPE    HY19077   3.405   5.985   6.544  0.0906 -3.7307 -1.4085
  169SAPE   O3119078   3.369   6.028   6.755 -0.2112 -0.5558  0.1825
  169SAPE   C3119079   3.404   6.159   6.749  0.0484  0.3710 -0.0230
  169SAPE   O3219080   3.481   6.213   6.674  0.4401  0.3628  0.6024
  169SAPE   C3219081   3.336   6.232   6.865 -0.8603  0.0112 -0.3126
  169SAPE   H2X19082   3.239   6.266   6.823  1.2188  3.1832 -3.1797
  169SAPE   H2Y19083   3.396   6.324   6.884 -3.2431  1.1573  2.3793
  169SAPE   C2319084   3.704   5.789   7.091 -0.1054 -0.1167 -0.2412
  169SAPE   H3R19085   3.664   5.719   7.167  1.4205 -0.6261  0.1152
  169SAPE   H3S19086   3.640   5.879   7.099  0.2631  0.1571 -0.3687
  169SAPE   C2419087   3.854   5.824   7.123 -0.1677  0.0587  0.2091
  169SAPE   H4R19088   3.851   5.915   7.186  0.1599 -1.7246  2.9671
  169SAPE   H4S19089   3.922   5.841   7.036  2.7883 -2.0313  1.9351
  169SAPE   C2519090   3.914   5.719   7.209 -0.2745  0.0522  0.3808
  169SAPE   H5R19091   3.962   5.638   7.152  1.6905  0.3597  1.5188
  169SAPE   C2619092   3.935   5.713   7.342 -0.6407 -0.3396  0.0589
  169SAPE   H6R19093   3.995   5.634   7.389 -2.4591 -1.2184  1.0314
  169SAPE   C2719094   3.893   5.819   7.442  0.3057 -0.2763 -0.0216
  169SAPE   H7R19095   3.893   5.925   7.410 -1.6858  0.1379  1.1593
  169SAPE   H7S19096   3.969   5.826   7.522  2.9303  2.2405 -2.5050
  169SAPE   C2819097   3.755   5.778   7.497 -0.5821 -0.9606  0.0703
  169SAPE   H8R19098   3.702   5.687   7.465 -1.7525 -0.9855  1.9554
  169SAPE   C2919099   3.698   5.851   7.590  0.2998 -0.0619  0.4881
  169SAPE   H9R19100   3.607   5.815   7.641 -0.8117  1.6768 -0.1434
  169SAPE  C21019101   3.762   5.977   7.652 -0.1631 -0.4231  0.0688
  169SAPE  H10R19102   3.847   6.015   7.592  0.7953 -1.4831  0.7061
  169SAPE  H10S19103   3.810   5.946   7.747  1.5349  0.5288 -0.4390
  169SAPE  C21119104   3.648   6.076   7.667  0.1125 -0.1248  0.5225
  169SAPE  H11R19105   3.598   6.098   7.572  0.3758  1.7373  0.7807
  169SAPE  C21219106   3.600   6.129   7.783  0.3192  0.1474  0.3718
  169SAPE  H12R19107   3.508   6.190   7.784 -0.6747 -1.3031  1.1116
  169SAPE  C21319108   3.639   6.094   7.927  0.0627  0.5586 -0.0369
  169SAPE  H13R19109   3.642   6.192   7.980 -3.5421  1.6889 -1.6295
  169SAPE  H13S19110   3.740   6.050   7.939 -0.8279 -1.2984  1.1681
  169SAPE  C21419111   3.542   5.998   7.996  1.0668 -0.1524 -0.1940
  169SAPE  H14R19112   3.478   5.937   7.930 -0.0173  1.3541 -0.5755
  169SAPE  C21519113   3.546   5.967   8.128 -0.1604 -1.0634 -0.0833
  169SAPE  H15R19114   3.455   5.919   8.167 -0.9274 -0.9936 -1.7082
  169SAPE  C21619115   3.647   6.022   8.229  0.0797 -0.4413  0.0551
  169SAPE  H16R19116   3.716   6.100   8.192 -0.0269 -0.3997 -0.0515
  169SAPE  H16S19117   3.708   5.935   8.264 -0.7968 -1.4146 -0.7683
  169SAPE  C21719118   3.583   6.087   8.356  0.5000  0.3273 -0.0323
  169SAPE  H17R19119   3.552   6.011   8.430 -0.0368  1.4073  0.8850
  169SAPE  H17S19120   3.486   6.128   8.319 -0.8528 -2.8218 -0.2713
  169SAPE  C21819121   3.662   6.203   8.415 -0.1226  0.6072 -0.0756
  169SAPE  H18R19122   3.761   6.171   8.455 -0.8505 -1.6450  0.0345
  169SAPE  H18S19123   3.592   6.243   8.491 -0.7847  0.4684 -0.6034
  169SAPE  C21919124   3.678   6.322   8.321  0.7359 -0.0939 -0.0006
  169SAPE  H19R19125   3.745   6.290   8.238 -0.2980  1.2019 -1.4002
  169SAPE  H19S19126   3.731   6.410   8.365 -0.6661  0.5109  0.5372
  169SAPE  C22019127   3.555   6.369   8.240 -0.4433  0.7993 -0.3095
  169SAPE  H20R19128   3.513   6.282   8.184  0.0612  1.0357 -1.0721
  169SAPE  H20S19129   3.572   6.443   8.159  2.2200  0.3486 -0.2538
  169SAPE  H20T19130   3.477   6.411   8.307 -0.3434  2.0902 -0.9670
  169SAPE   C3319131   3.335   6.152   7.001  1.0063  0.2265  0.8676
  169SAPE   H3X19132   3.426   6.088   7.007 -0.3847 -2.0186 -0.5143
  169SAPE   H3Y19133   3.241   6.094   6.987 -0.3985  1.6512  3.6977
  169SAPE   C3419134   3.315   6.236   7.121  0.7830  0.7976 -0.0701
  169SAPE   H4X19135   3.229   6.303   7.099 -0.0291 -0.0450  0.4935
  169SAPE   H4Y19136   3.398   6.304   7.151  0.5059  1.4450 -0.7334
  169SAPE   C3519137   3.281   6.143   7.247  0.1211 -1.0918 -0.6255
  169SAPE   H5X19138   3.193   6.079   7.226 -1.3437  0.3891  0.6926
  169SAPE   H5Y19139   3.254   6.209   7.332 -1.8863 -0.8363 -1.4181
  169SAPE   C3619140   3.403   6.066   7.307  0.7478 -0.1763 -0.5186
  169SAPE   H6X19141   3.497   6.122   7.293 -1.2228  3.1517 -1.4408
  169SAPE   H6Y19142   3.406   5.972   7.247 -2.4098 -1.8286  1.5642
  169SAPE   C3719143   3.372   6.021   7.450  1.1080 -0.4430  0.1681
  169SAPE   H7X19144   3.394   6.095   7.530 -4.1203 -0.5205  2.0961
  169SAPE   H7Y19145   3.429   5.933   7.485 -0.2841 -1.0227  1.0817
  169SAPE   C3819146   3.224   5.979   7.484 -0.4276 -0.8505 -0.0016
  169SAPE   H8X19147   3.196   5.925   7.391 -1.6168  1.0391 -0.8204
  169SAPE   H8Y19148   3.165   6.073   7.497 -0.5560 -0.4966 -2.5902
  169SAPE   C3919149   3.222   5.886   7.598 -0.0362 -0.2307 -0.8312
  169SAPE   H9X19150   3.286   5.798   7.575  0.4196  0.0841 -0.7670
  169SAPE   H9Y19151   3.116   5.857   7.614 -0.1040  0.5767  0.2846
  169SAPE  C31019152   3.258   5.949   7.730 -0.4113 -0.2019 -0.3131
  169SAPE  H10X19153   3.198   6.041   7.743 -3.8584 -2.3514  0.3391
  169SAPE  H10Y19154   3.365   5.979   7.732 -0.7963  1.2234  0.6296
  169SAPE  C31119155   3.229   5.859   7.852  0.2392 -0.4496 -0.4043
  169SAPE  H11X19156   3.121   5.835   7.861  0.1563  0.4619  1.4794
  169SAPE  H11Y19157   3.262   5.909   7.946  0.4185 -0.1154 -0.6454
  169SAPE  C31219158   3.301   5.721   7.849  0.3425 -0.4422 -0.0931
  169SAPE  H12X19159   3.399   5.771   7.828 -0.3767  0.5299 -1.2779
  169SAPE  H12Y19160   3.288   5.658   7.758 -1.2921  0.8436 -0.7915
  169SAPE  C31319161   3.291   5.638   7.970  0.2817 -0.3269  0.2215
  169SAPE  H13X19162   3.196   5.583   7.951  0.7534 -0.3192 -2.5404
  169SAPE  H13Y19163   3.272   5.685   8.069 -0.2676  1.9067 -0.8921
  169SAPE  C31419164   3.399   5.536   7.984  0.2159  0.7144  0.6634
  169SAPE  H14X19165   3.408   5.463   7.901 -2.3713 -1.2879  1.9560
  169SAPE  H14Y19166   3.384   5.471   8.074  1.8496 -0.9070 -0.1802
  169SAPE  C31519167   3.537   5.598   8.009  0.0371 -0.5882  0.1899
  169SAPE  H15X19168   3.535   5.680   8.085 -0.5539  0.4555 -0.9191
  169SAPE  H15Y19169   3.573   5.639   7.913  0.1135 -1.6542 -0.2529
  169SAPE  C31619170   3.638   5.499   8.062 -0.4627 -0.4307 -0.0927
  169SAPE  H16X19171   3.736   5.549   8.044 -0.8836  0.3955 -0.1262
  169SAPE  H16Y19172   3.644   5.403   8.007 -1.7782 -1.4576  1.4364
  169SAPE  C31719173   3.630   5.470   8.213  0.0442  0.2682  1.0642
  169SAPE  H17X19174   3.522   5.456   8.232 -0.3696  0.4056 -1.0218
  169SAPE  H17Y19175   3.667   5.566   8.255 -1.1409  0.5616  1.4645
  169SAPE  C31819176   3.724   5.357   8.261 -0.5366 -0.4066  0.0769
  169SAPE  H18X19177   3.705   5.330   8.367 -1.4867 -1.5882 -0.3794
  169SAPE  H18Y19178   3.829   5.394   8.254 -0.1769 -1.2994  0.6818
  169SAPE  H18Z19179   3.710   5.264   8.202 -0.7074 -0.9392  0.9378
  170SAPE     N19180   4.072   2.892   6.036 -0.0715 -0.2822  0.3141
  170SAPE   HN119181   3.999   2.954   6.077 -1.1964  0.3583 -2.4461
  170SAPE   HN219182   4.031   2.798   6.019  0.5298 -0.7005  1.0955
  170SAPE   HN319183   4.146   2.874   6.107  0.2549 -0.0452  0.0380
  170SAPE   C1219184   4.134   2.957   5.918  0.4232 -0.8261 -0.1637
  170SAPE  H12A19185   4.061   2.973   5.836 -0.0196  0.9864  0.5208
  170SAPE  H12B19186   4.213   2.883   5.894  0.1204 -0.5775 -2.0623
  170SAPE   C1119187   4.209   3.092   5.962  0.3575  0.4625 -0.3869
  170SAPE  H11A19188   4.130   3.170   5.973  0.0009  0.0119  0.2839
  170SAPE  H11B19189   4.269   3.118   5.872  0.5683 -0.2215 -0.4530
  170SAPE     P19190   4.345   3.206   6.143  0.4147 -0.1167 -0.2078
  170SAPE   O1319191   4.420   3.174   6.268 -0.1492 -0.8822 -0.0006
  170SAPE   O1419192   4.413   3.293   6.041  0.0366  0.5147 -1.0194
  170SAPE   O1219193   4.300   3.077   6.071 -0.2240  0.5531  0.2281
  170SAPE   O1119194   4.212   3.276   6.177  0.0376 -0.1743 -0.5698
  170SAPE    C119195   4.139   3.233   6.294  0.0634 -0.1642 -0.5320
  170SAPE    HA19196   4.036   3.271   6.277 -0.4910  0.0818  2.6693
  170SAPE    HB19197   4.145   3.125   6.321  0.5031  0.6875  3.3456
  170SAPE    C219198   4.179   3.311   6.421  0.8490 -0.0512  0.0474
  170SAPE    HS19199   4.287   3.297   6.445  0.7842  3.3683  3.1569
  170SAPE   O2119200   4.077   3.280   6.524 -0.4788  0.6919 -0.0128
  170SAPE   C2119201   4.115   3.180   6.610 -0.4267 -0.1572 -0.9681
  170SAPE   O2219202   4.228   3.133   6.611  0.7162 -0.0745 -0.5959
  170SAPE   C2219203   4.001   3.140   6.700  0.1308  0.3744  0.0029
  170SAPE   H2R19204   3.909   3.199   6.683  1.7609  3.1970  0.4157
  170SAPE   H2S19205   3.988   3.035   6.665  2.4688 -0.3961  1.2227
  170SAPE    C319206   4.156   3.462   6.385 -0.4443  0.9436  0.0393
  170SAPE    HX19207   4.049   3.476   6.359 -0.4245 -1.0544 -1.3937
  170SAPE    HY19208   4.214   3.494   6.295  1.0494  1.4200  1.1152
  170SAPE   O3119209   4.188   3.548   6.499  0.0181  0.4904  0.1688
  170SAPE   C3119210   4.189   3.676   6.466  0.1923 -0.1661 -0.0399
  170SAPE   O3219211   4.194   3.717   6.351 -0.7105 -0.3783 -0.1732
  170SAPE   C3219212   4.196   3.762   6.593  0.4576 -0.8183 -0.4662
  170SAPE   H2X19213   4.297   3.735   6.632  0.0115 -0.6943  0.8119
  170SAPE   H2Y19214   4.114   3.738   6.663 -0.0677 -0.3748 -0.9239
  170SAPE   C2319215   4.044   3.139   6.846  0.1584  0.4016 -0.3860
  170SAPE   H3R19216   4.049   3.241   6.889 -1.2351  0.4206 -0.2444
  170SAPE   H3S19217   4.145   3.100   6.872 -0.4735 -1.6403 -0.8199
  170SAPE   C2419218   3.943   3.060   6.927  1.1355 -0.5068 -0.3317
  170SAPE   H4R19219   3.985   3.047   7.029  1.7398 -1.2413 -0.6653
  170SAPE   H4S19220   3.948   2.959   6.882  2.2478 -0.9940  0.8503
  170SAPE   C2519221   3.806   3.108   6.946  0.9132  0.0397 -0.3139
  170SAPE   H5R19222   3.769   3.158   6.856 -1.6236 -0.5727  0.2997
  170SAPE   C2619223   3.717   3.077   7.044  0.5416 -0.1093  0.0171
  170SAPE   H6R19224   3.618   3.124   7.039  0.2868 -0.7239 -1.0878
  170SAPE   C2719225   3.748   2.993   7.164 -0.0768  0.4483 -0.7286
  170SAPE   H7R19226   3.827   2.919   7.138  2.6651  2.5413  1.0817
  170SAPE   H7S19227   3.661   2.925   7.176 -0.9352  1.8518  1.6980
  170SAPE   C2819228   3.801   3.062   7.293  0.4171  0.0913  0.0662
  170SAPE   H8R19229   3.868   3.147   7.273 -0.1357  1.2105  2.5439
  170SAPE   C2919230   3.780   3.024   7.424 -0.0156 -0.0801  0.9473
  170SAPE   H9R19231   3.821   3.079   7.510  0.4534  1.9335 -0.4716
  170SAPE  C21019232   3.697   2.905   7.465  0.2142 -0.3838  0.8229
  170SAPE  H10R19233   3.727   2.863   7.563  2.1532 -1.5859 -0.2187
  170SAPE  H10S19234   3.708   2.816   7.399  3.6363 -1.1211  2.1588
  170SAPE  C21119235   3.548   2.922   7.477 -0.1083  0.2589  0.5289
  170SAPE  H11R19236   3.484   2.889   7.394 -1.2234  0.1255  1.4153
  170SAPE  C21219237   3.481   2.972   7.583  0.7072 -0.1696  0.9131
  170SAPE  H12R19238   3.376   2.997   7.566  0.9321 -0.1410 -0.6585
  170SAPE  C21319239   3.532   3.025   7.716  0.0954 -0.1314 -0.1854
  170SAPE  H13R19240   3.557   3.131   7.691  1.5019  0.3804  2.9474
  170SAPE  H13S19241   3.628   2.974   7.739  2.9798  3.7291 -2.4345
  170SAPE  C21419242   3.435   3.014   7.835  0.1209  0.1428  0.6341
  170SAPE  H14R19243   3.329   2.998   7.810  0.1293  0.8623  0.1111
  170SAPE  C21519244   3.461   3.014   7.960  0.5341  0.0244 -0.2252
  170SAPE  H15R19245   3.370   3.020   8.021 -0.3290  0.8273 -1.5315
  170SAPE  C21619246   3.593   3.037   8.032  0.2705  0.2199  0.1186
  170SAPE  H16R19247   3.587   3.139   8.075 -0.1303  0.7262 -1.1018
  170SAPE  H16S19248   3.677   3.026   7.960 -0.3212  3.4134 -1.1912
  170SAPE  C21719249   3.617   2.931   8.146 -0.2149 -0.6617  0.3439
  170SAPE  H17R19250   3.623   2.825   8.113 -1.4302 -1.2161  1.7424
  170SAPE  H17S19251   3.523   2.915   8.203  0.9207 -1.0697  2.1912
  170SAPE  C21819252   3.738   2.971   8.229  0.9072 -0.1161 -0.1562
  170SAPE  H18R19253   3.720   3.077   8.255 -2.4274 -0.3755 -0.9417
  170SAPE  H18S19254   3.838   2.961   8.182  0.4330 -0.7204 -1.0767
  170SAPE  C21919255   3.744   2.897   8.361 -0.3194  0.7439 -0.5224
  170SAPE  H19R19256   3.775   2.795   8.330  0.8642  0.8646  0.1868
  170SAPE  H19S19257   3.645   2.909   8.410  0.7103  1.1398  1.6202
  170SAPE  C22019258   3.862   2.954   8.447 -0.0798  0.0453  0.3547
  170SAPE  H20R19259   3.889   2.892   8.536 -0.3878  0.2152  0.5673
  170SAPE  H20S19260   3.832   3.058   8.472 -1.2899 -0.3116  0.4406
  170SAPE  H20T19261   3.949   2.970   8.379 -2.6413  0.1935 -3.1575
  170SAPE   C3319262   4.180   3.910   6.558  0.2661  0.3704  1.0353
  170SAPE   H3X19263   4.076   3.924   6.522  0.4919  1.5902  0.8027
  170SAPE   H3Y19264   4.244   3.947   6.475 -0.0148  2.0361  1.5314
  170SAPE   C3419265   4.215   4.000   6.684 -0.1963  0.6718  0.1646
  170SAPE   H4X19266   4.186   4.105   6.660  1.3374  0.9767 -0.5216
  170SAPE   H4Y19267   4.324   3.997   6.708  0.2014  0.0635 -1.5383
  170SAPE   C3519268   4.129   3.974   6.813  0.5039  0.4618 -0.4552
  170SAPE   H5X19269   4.149   3.869   6.842  0.3123  0.7972  0.9785
  170SAPE   H5Y19270   4.022   3.984   6.785 -0.0471 -1.5466  0.7646
  170SAPE   C3619271   4.166   4.066   6.926  0.1722  0.5999 -0.6394
  170SAPE   H6X19272   4.127   4.165   6.895 -1.0033  0.1397 -0.6795
  170SAPE   H6Y19273   4.276   4.075   6.939  0.1609 -1.1780  1.2330
  170SAPE   C3719274   4.113   4.033   7.074 -0.0548  0.5375  0.8565
  170SAPE   H7X19275   4.007   4.003   7.064  0.1735  0.0080 -0.2333
  170SAPE   H7Y19276   4.123   4.114   7.149 -0.2070 -1.2750  2.9245
  170SAPE   C3819277   4.176   3.914   7.141 -0.0231 -0.3447  0.3534
  170SAPE   H8X19278   4.286   3.928   7.138 -0.0918  0.0849 -0.9022
  170SAPE   H8Y19279   4.141   3.826   7.083 -0.9488 -0.0458  0.4457
  170SAPE   C3919280   4.138   3.882   7.284 -0.0531 -0.4709 -0.3739
  170SAPE   H9X19281   4.183   3.783   7.307 -0.6769 -0.8560 -0.7638
  170SAPE   H9Y19282   4.028   3.864   7.288  0.0907 -1.2898  3.0993
  170SAPE  C31019283   4.182   3.985   7.389 -0.2907  0.3386  0.0162
  170SAPE  H10X19284   4.116   4.074   7.391 -2.6744 -1.3546  0.0305
  170SAPE  H10Y19285   4.283   4.018   7.355  0.2016 -0.2849  0.8404
  170SAPE  C31119286   4.203   3.931   7.531  0.3108  0.3778  0.7698
  170SAPE  H11X19287   4.307   3.891   7.540  0.4103  0.1979 -0.8220
  170SAPE  H11Y19288   4.142   3.839   7.544  1.1369 -0.0133  1.9991
  170SAPE  C31219289   4.155   4.012   7.648 -0.6417  0.6136  0.2703
  170SAPE  H12X19290   4.048   3.990   7.667 -0.7474  1.0155  0.1494
  170SAPE  H12Y19291   4.164   4.121   7.629 -3.0390  1.0913  1.5095
  170SAPE  C31319292   4.235   3.986   7.778 -0.5198  1.2669 -0.6610
  170SAPE  H13X19293   4.203   4.065   7.850 -0.6700  0.1036  0.5826
  170SAPE  H13Y19294   4.343   3.988   7.754 -0.4855 -1.9984 -1.1618
  170SAPE  C31419295   4.228   3.836   7.826  0.3253  0.6682  0.1227
  170SAPE  H14X19296   4.283   3.772   7.753  0.4974  1.6152 -0.6016
  170SAPE  H14Y19297   4.123   3.801   7.833 -0.0391  1.9621  1.5253
  170SAPE  C31519298   4.282   3.830   7.975 -0.4431  0.0399 -0.4477
  170SAPE  H15X19299   4.231   3.905   8.039  0.4427  0.2904 -0.0151
  170SAPE  H15Y19300   4.385   3.869   7.988  0.7054 -2.5384 -1.0041
  170SAPE  C31619301   4.301   3.685   8.027  0.4391  0.1847  0.0660
  170SAPE  H16X19302   4.319   3.623   7.937 -2.1657 -0.7647  0.1021
  170SAPE  H16Y19303   4.208   3.655   8.081 -0.3085  3.0132  0.5157
  170SAPE  C31719304   4.405   3.664   8.140 -0.2163  0.6838  0.7233
  170SAPE  H17X19305   4.366   3.697   8.239 -0.4196  1.0446  0.5229
  170SAPE  H17Y19306   4.498   3.723   8.121 -0.3400  0.3651 -0.9458
  170SAPE  C31819307   4.454   3.519   8.141 -0.3080  0.0743  0.0978
  170SAPE  H18X19308   4.468   3.477   8.039  0.3835 -1.1780  0.6851
  170SAPE  H18Y19309   4.396   3.444   8.199 -1.6311 -0.5448 -1.9318
  170SAPE  H18Z19310   4.561   3.517   8.170 -0.2313  0.8879 -0.1261
  171SAPE     N19311   6.716   4.974   6.369  0.1992 -0.4448  0.5355
  171SAPE   HN119312   6.630   5.000   6.317  0.4910  1.1147  0.7846
  171SAPE   HN219313   6.691   4.910   6.447 -1.7410 -1.9544 -1.2071
  171SAPE   HN319314   6.773   5.058   6.387  2.0745 -0.4804 -3.8288
  171SAPE   C1219315   6.792   4.893   6.273  0.1143  0.5841 -1.2486
  171SAPE  H12A19316   6.816   4.954   6.184  2.5380  3.1268  0.9374
  171SAPE  H12B19317   6.731   4.806   6.240  3.9425 -2.5188 -0.9033
  171SAPE   C1119318   6.930   4.847   6.334  0.2201  0.2227  0.2792
  171SAPE  H11A19319   6.961   4.758   6.274 -0.7428 -2.1160  3.0168
  171SAPE  H11B19320   6.916   4.812   6.438  0.6514 -2.5419 -0.4941
  171SAPE     P19321   7.153   4.960   6.264 -0.1669 -0.1253 -0.0317
  171SAPE   O1319322   7.208   4.828   6.229  0.0984  0.0215 -0.1694
  171SAPE   O1419323   7.158   5.057   6.152  0.0227 -0.2512  0.3947
  171SAPE   O1219324   7.019   4.956   6.341  0.7607 -0.3116 -0.0241
  171SAPE   O1119325   7.242   5.018   6.374 -0.2405 -0.0565 -0.0961
  171SAPE    C119326   7.270   5.161   6.396  0.7698 -0.2868 -0.6828
  171SAPE    HA19327   7.368   5.174   6.446 -0.1297  1.8880  0.6130
  171SAPE    HB19328   7.261   5.223   6.305  0.8028  0.6838 -0.0402
  171SAPE    C219329   7.166   5.221   6.503  0.0124 -0.6201  0.0427
  171SAPE    HS19330   7.070   5.237   6.450 -0.3286 -2.8760 -0.1330
  171SAPE   O2119331   7.214   5.346   6.556  0.5153  0.3489  0.2911
  171SAPE   C2119332   7.175   5.453   6.496  0.7563 -0.6184  0.1799
  171SAPE   O2219333   7.119   5.463   6.390 -0.1612  0.1392  0.6671
  171SAPE   C2219334   7.208   5.571   6.587 -0.4439  0.2103 -0.5184
  171SAPE   H2R19335   7.318   5.561   6.600 -0.3052  1.1520 -0.8860
  171SAPE   H2S19336   7.190   5.661   6.525 -0.7814  0.6182  0.1592
  171SAPE    C319337   7.137   5.113   6.616 -0.1260  0.1470 -0.0181
  171SAPE    HX19338   7.233   5.074   6.657  0.9651  0.8698 -1.7636
  171SAPE    HY19339   7.098   5.019   6.571  0.5841 -0.3592  0.3995
  171SAPE   O3119340   7.049   5.162   6.719 -0.3975  0.2790  0.8806
  171SAPE   C3119341   6.919   5.167   6.684 -0.3782  0.0508 -0.3716
  171SAPE   O3219342   6.867   5.116   6.589  0.1875  0.2978 -0.0905
  171SAPE   C3219343   6.847   5.229   6.803 -0.3739 -0.1958 -0.0500
  171SAPE   H2X19344   6.846   5.340   6.802 -2.0442 -0.1789 -1.6599
  171SAPE   H2Y19345   6.902   5.200   6.895  0.6537  1.3755 -0.1281
  171SAPE   C2319346   7.139   5.578   6.723 -0.2830 -0.0776 -0.8710
  171SAPE   H3R19347   7.159   5.486   6.783  1.9646  1.7455  1.4072
  171SAPE   H3S19348   7.032   5.585   6.693 -1.4556 -1.3471  2.5202
  171SAPE   C2419349   7.190   5.693   6.807 -0.1742  0.3202  0.6465
  171SAPE   H4R19350   7.296   5.712   6.782 -0.4009  1.3275  0.3899
  171SAPE   H4S19351   7.195   5.670   6.916  2.2712 -1.0478  0.3141
  171SAPE   C2519352   7.112   5.818   6.782  0.2556  0.7527  0.4361
  171SAPE   H5R19353   7.124   5.845   6.676  0.8386 -1.0072  0.0239
  171SAPE   C2619354   7.046   5.898   6.871 -0.0433 -0.0283  0.2406
  171SAPE   H6R19355   6.982   5.975   6.827  1.6321  1.2115 -0.1243
  171SAPE   C2719356   7.031   5.876   7.022 -0.0928  0.1749  0.1467
  171SAPE   H7R19357   7.105   5.807   7.068  1.6078  0.4933 -1.9594
  171SAPE   H7S19358   6.925   5.849   7.040 -0.6895  1.7895 -0.6788
  171SAPE   C2819359   7.063   6.009   7.083  0.0448 -0.1958  0.7305
  171SAPE   H8R19360   7.152   6.053   7.037 -0.6961 -0.5419 -1.1667
  171SAPE   C2919361   6.995   6.081   7.173  0.4317 -0.0237  0.2349
  171SAPE   H9R19362   7.046   6.164   7.222  1.6946 -1.1645  0.9091
  171SAPE  C21019363   6.856   6.050   7.236  0.4922 -0.1944 -0.4958
  171SAPE  H10R19364   6.842   5.941   7.220  0.4990 -0.4416  1.0580
  171SAPE  H10S19365   6.770   6.097   7.184 -0.9218 -0.9911  1.0382
  171SAPE  C21119366   6.834   6.091   7.379  0.4294  0.0640  0.0673
  171SAPE  H11R19367   6.838   6.198   7.402  1.1359 -0.1077  0.8000
  171SAPE  C21219368   6.834   6.006   7.486  0.1377 -0.6986 -0.2464
  171SAPE  H12R19369   6.831   6.048   7.588 -2.0173 -0.1120 -0.5027
  171SAPE  C21319370   6.852   5.854   7.477 -0.8069  0.7249 -0.2360
  171SAPE  H13R19371   6.904   5.822   7.570  1.4219  2.0375 -0.9413
  171SAPE  H13S19372   6.928   5.834   7.397  0.3565  1.5698  0.6211
  171SAPE  C21419373   6.722   5.775   7.456  0.1932  0.1153  0.3038
  171SAPE  H14R19374   6.681   5.801   7.357  0.9040 -1.0294 -0.3219
  171SAPE  C21519375   6.662   5.696   7.545  0.3662  0.3265  0.7535
  171SAPE  H15R19376   6.581   5.633   7.506  0.1756  1.9269 -1.6564
  171SAPE  C21619377   6.704   5.664   7.687  0.6879 -1.4698 -0.1883
  171SAPE  H16R19378   6.795   5.723   7.713 -0.0235  0.2560 -1.4446
  171SAPE  H16S19379   6.723   5.555   7.700  2.1905 -1.6620 -3.1654
  171SAPE  C21719380   6.592   5.717   7.784 -0.0567 -0.1844 -0.7034
  171SAPE  H17R19381   6.503   5.651   7.787  0.4441 -0.8462 -0.0209
  171SAPE  H17S19382   6.569   5.818   7.746 -0.4592 -0.3139 -0.8078
  171SAPE  C21819383   6.649   5.741   7.927 -0.5999 -0.0862 -0.4093
  171SAPE  H18R19384   6.736   5.808   7.913 -0.2110 -0.4796  0.1176
  171SAPE  H18S19385   6.693   5.651   7.973 -1.0350  0.9791  2.3096
  171SAPE  C21919386   6.539   5.791   8.019 -0.2739  0.0141  0.3008
  171SAPE  H19R19387   6.459   5.714   8.027  1.4008 -1.9637 -0.9518
  171SAPE  H19S19388   6.496   5.889   7.991 -1.5281 -1.0182 -1.5759
  171SAPE  C22019389   6.580   5.801   8.161  0.5937 -0.3771 -1.0096
  171SAPE  H20R19390   6.494   5.821   8.230 -0.9408 -2.9016 -2.0446
  171SAPE  H20S19391   6.653   5.883   8.174 -2.2913  2.2446  0.1355
  171SAPE  H20T19392   6.630   5.707   8.193 -0.5959 -0.9553 -0.7809
  171SAPE   C3319393   6.699   5.194   6.812  0.3157  0.1067 -1.0067
  171SAPE   H3X19394   6.652   5.209   6.712 -1.0198 -0.0383 -0.4186
  171SAPE   H3Y19395   6.636   5.251   6.884 -0.6225 -1.7653 -0.2862
  171SAPE   C3419396   6.672   5.051   6.867 -0.2089 -0.6456 -0.2238
  171SAPE   H4X19397   6.706   5.066   6.972  0.1080 -0.4038 -0.3573
  171SAPE   H4Y19398   6.729   4.966   6.825 -2.7966 -2.7957  0.3748
  171SAPE   C3519399   6.522   5.026   6.863 -0.2932 -0.0624 -0.6035
  171SAPE   H5X19400   6.483   5.046   6.761 -4.7365  0.2656  0.9749
  171SAPE   H5Y19401   6.466   5.096   6.928 -0.1243  0.6480 -1.2101
  171SAPE   C3619402   6.488   4.889   6.920  0.5364  0.1617  0.2576
  171SAPE   H6X19403   6.515   4.813   6.844 -1.9837 -0.6632  0.0932
  171SAPE   H6Y19404   6.379   4.875   6.934  0.6175 -2.5653 -1.1675
  171SAPE   C3719405   6.559   4.855   7.049 -0.1084  0.0856 -0.1323
  171SAPE   H7X19406   6.666   4.829   7.038 -0.2095 -1.2638  1.5085
  171SAPE   H7Y19407   6.524   4.754   7.081 -0.7827  0.7491  1.3683
  171SAPE   C3819408   6.535   4.949   7.168  0.3203  0.1552  0.1230
  171SAPE   H8X19409   6.428   4.977   7.166 -0.0588 -1.2515 -0.4127
  171SAPE   H8Y19410   6.591   5.045   7.158  0.2924  0.1858  0.2597
  171SAPE   C3919411   6.584   4.871   7.293  1.0592 -0.0530 -0.4586
  171SAPE   H9X19412   6.682   4.819   7.288  0.5333 -0.9853 -2.7229
  171SAPE   H9Y19413   6.510   4.788   7.305  0.3968  0.4173 -1.1816
  171SAPE  C31019414   6.567   4.951   7.430  0.1994 -0.0396  0.4469
  171SAPE  H10X19415   6.461   4.982   7.431  0.0776 -0.4464  1.2992
  171SAPE  H10Y19416   6.642   5.033   7.439  0.0113  0.1938 -0.1056
  171SAPE  C31119417   6.590   4.853   7.548  0.0379 -0.6890  0.5923
  171SAPE  H11X19418   6.694   4.815   7.548  0.5621  0.6576 -0.4541
  171SAPE  H11Y19419   6.523   4.767   7.528  0.9364 -1.4398  0.7117
  171SAPE  C31219420   6.557   4.922   7.679 -0.1845  0.1429 -0.4747
  171SAPE  H12X19421   6.447   4.939   7.682  0.0324  2.1051 -1.7066
  171SAPE  H12Y19422   6.617   5.015   7.682  0.5003 -0.2668 -1.1339
  171SAPE  C31319423   6.600   4.835   7.792  0.4458  0.2779 -0.2666
  171SAPE  H13X19424   6.710   4.838   7.804  0.2902  1.1972  1.1801
  171SAPE  H13Y19425   6.572   4.730   7.771  0.7622 -0.3617  2.1626
  171SAPE  C31419426   6.523   4.862   7.923  0.1683 -0.5621  0.0445
  171SAPE  H14X19427   6.417   4.889   7.903  0.2528 -0.9374 -0.9071
  171SAPE  H14Y19428   6.563   4.957   7.966 -1.1805  0.1956 -0.3179
  171SAPE  C31519429   6.539   4.760   8.035 -0.3928 -0.2468 -0.0440
  171SAPE  H15X19430   6.480   4.673   8.000 -0.2067 -0.0028 -0.9781
  171SAPE  H15Y19431   6.496   4.804   8.128 -1.7110  0.3574 -0.9036
  171SAPE  C31619432   6.677   4.711   8.076  0.2844 -0.2482 -0.1392
  171SAPE  H16X19433   6.733   4.805   8.094 -0.1388  0.2667 -1.4302
  171SAPE  H16Y19434   6.724   4.666   7.986  2.1558  0.4740  0.4190
  171SAPE  C31719435   6.683   4.604   8.190  0.1658 -0.3961 -0.5167
  171SAPE  H17X19436   6.633   4.650   8.278  0.9789  0.6603 -0.5833
  171SAPE  H17Y19437   6.791   4.590   8.212 -0.2562  1.9611  4.3677
  171SAPE  C31819438   6.614   4.473   8.161 -0.0101  0.2647 -0.7181
  171SAPE  H18X19439   6.684   4.397   8.120  3.1610  0.9702  2.8977
  171SAPE  H18Y19440   6.527   4.485   8.092  0.2694 -1.7069 -1.4865
  171SAPE  H18Z19441   6.570   4.425   8.251  0.5690 -2.5833 -1.8161
  172SAPE     N19442   4.426   2.251   6.140 -0.4364 -0.5321  0.3189
  172SAPE   HN119443   4.396   2.232   6.238  0.0644 -2.0410  0.2128
  172SAPE   HN219444   4.497   2.175   6.128 -0.3118 -0.5260  0.9890
  172SAPE   HN319445   4.469   2.345   6.125  0.0288 -0.4073  2.1457
  172SAPE   C1219446   4.309   2.234   6.053 -0.1113  0.1669 -0.0181
  172SAPE  H12A19447   4.246   2.151   6.093  1.3471 -1.8500 -1.6822
  172SAPE  H12B19448   4.340   2.194   5.955  0.0371  0.1567  0.0332
  172SAPE   C1119449   4.239   2.370   6.047 -0.1462  0.3403  0.1181
  172SAPE  H11A19450   4.146   2.370   5.986 -0.5517  2.6469  0.6235
  172SAPE  H11B19451   4.311   2.438   5.996  0.6845 -0.1204  0.6571
  172SAPE     P19452   4.126   2.547   6.189 -0.0205 -0.0416  0.2505
  172SAPE   O1319453   4.154   2.636   6.075 -0.4421 -0.4409 -0.1789
  172SAPE   O1419454   3.988   2.496   6.219  0.2300 -1.0120  0.6433
  172SAPE   O1219455   4.221   2.422   6.179 -0.3368  0.0846  0.2726
  172SAPE   O1119456   4.178   2.620   6.325 -0.0033  0.0931  0.6912
  172SAPE    C119457   4.251   2.544   6.420 -0.1018  0.3689 -0.2190
  172SAPE    HA19458   4.310   2.463   6.373 -0.4196  0.3176 -0.5270
  172SAPE    HB19459   4.310   2.624   6.471 -0.8079  0.0797  1.0773
  172SAPE    C219460   4.152   2.486   6.533  0.4412 -0.5499 -0.0858
  172SAPE    HS19461   4.065   2.445   6.477 -1.2600  0.1554  1.9176
  172SAPE   O2119462   4.113   2.607   6.608  0.1132 -0.1406 -0.1434
  172SAPE   C2119463   3.977   2.612   6.645 -0.5961 -0.1093 -0.8614
  172SAPE   O2219464   3.890   2.541   6.611  0.1807 -0.0253 -0.4114
  172SAPE   C2219465   3.970   2.733   6.741 -0.7006 -0.3349  0.0431
  172SAPE   H2R19466   4.061   2.797   6.740 -0.9759  0.1037 -2.1341
  172SAPE   H2S19467   3.897   2.799   6.689 -0.2785  0.8618  0.9126
  172SAPE    C319468   4.215   2.374   6.626 -0.1647  0.1585  0.5540
  172SAPE    HX19469   4.317   2.395   6.664  0.8282 -2.9494 -0.0801
  172SAPE    HY19470   4.231   2.290   6.555  0.3816  1.9505 -1.5473
  172SAPE   O3119471   4.128   2.329   6.733 -0.0762 -0.0016 -0.5439
  172SAPE   C3119472   4.027   2.247   6.699 -0.1320  0.0340  0.7868
  172SAPE   O3219473   4.011   2.198   6.589  1.1443 -0.1073 -0.2315
  172SAPE   C3219474   3.942   2.220   6.821  0.6878  0.4312 -0.2750
  172SAPE   H2X19475   3.899   2.314   6.863 -0.6807 -0.2389 -0.1398
  172SAPE   H2Y19476   4.003   2.179   6.905  0.8666 -1.5274 -1.3122
  172SAPE   C2319477   3.909   2.694   6.876  0.3340  0.0706 -0.4227
  172SAPE   H3R19478   3.865   2.592   6.867  1.3877 -0.3514 -0.9985
  172SAPE   H3S19479   3.833   2.766   6.912 -1.6706 -2.2368  0.2961
  172SAPE   C2419480   4.022   2.689   6.983  0.0281  0.2324  0.3706
  172SAPE   H4R19481   3.974   2.687   7.082  0.4201 -0.5837  0.5630
  172SAPE   H4S19482   4.075   2.786   6.986 -1.0812  0.9424 -1.5500
  172SAPE   C2519483   4.126   2.579   6.967  0.1517 -0.1015  0.9830
  172SAPE   H5R19484   4.194   2.601   6.883  1.2325 -2.4810  1.1657
  172SAPE   C2619485   4.143   2.458   7.026  0.1409 -0.5157 -0.4909
  172SAPE   H6R19486   4.234   2.400   7.006  1.3123  0.9491  0.3320
  172SAPE   C2719487   4.053   2.402   7.130  0.7427 -0.3708  0.8704
  172SAPE   H7R19488   4.012   2.309   7.086 -0.5409  1.0653 -1.1473
  172SAPE   H7S19489   3.963   2.467   7.144  1.6582  0.6540  2.3192
  172SAPE   C2819490   4.121   2.391   7.263  0.2439 -0.2962 -0.3307
  172SAPE   H8R19491   4.195   2.309   7.267  0.7644  0.2146  1.0499
  172SAPE   C2919492   4.119   2.484   7.368 -0.0301  0.2813 -0.2293
  172SAPE   H9R19493   4.176   2.458   7.458  3.0528  0.1828 -2.0711
  172SAPE  C21019494   4.043   2.606   7.370  0.1624 -0.9726 -0.1110
  172SAPE  H10R19495   3.940   2.583   7.404  0.5999 -0.3790  1.7181
  172SAPE  H10S19496   4.023   2.653   7.271 -0.7417 -0.6992  0.1890
  172SAPE  C21119497   4.101   2.706   7.465  0.0479 -0.0679 -0.2325
  172SAPE  H11R19498   4.128   2.791   7.401  2.3516 -0.1367  0.5606
  172SAPE  C21219499   4.105   2.712   7.605  0.5236  0.4149  0.2487
  172SAPE  H12R19500   4.160   2.795   7.651  0.1456  0.7690  0.0748
  172SAPE  C21319501   4.041   2.611   7.698 -0.3977 -0.2775  0.3058
  172SAPE  H13R19502   4.111   2.586   7.780 -1.0158 -2.3472  0.2636
  172SAPE  H13S19503   4.026   2.519   7.638 -1.2302 -0.6973  1.1403
  172SAPE  C21419504   3.914   2.667   7.766  0.1850  0.1312 -0.6800
  172SAPE  H14R19505   3.821   2.625   7.724 -0.5456  0.2371  0.7554
  172SAPE  C21519506   3.916   2.753   7.864 -0.6631  0.2726 -0.5690
  172SAPE  H15R19507   3.820   2.785   7.907  0.3269  0.6080  1.5615
  172SAPE  C21619508   4.029   2.816   7.937  0.1985  0.2587 -0.0395
  172SAPE  H16R19509   4.018   2.927   7.931 -1.1997  0.1558  0.3076
  172SAPE  H16S19510   4.125   2.804   7.882  0.9144  2.1211  0.6801
  172SAPE  C21719511   4.039   2.781   8.088 -0.0083  0.4504  0.3236
  172SAPE  H17R19512   3.942   2.780   8.142  0.4039 -1.4982  1.1144
  172SAPE  H17S19513   4.105   2.855   8.137  1.7184  0.2283 -1.5390
  172SAPE  C21819514   4.101   2.640   8.110  0.4621 -0.0670 -0.1709
  172SAPE  H18R19515   4.206   2.638   8.073 -0.7153  0.5328 -3.9562
  172SAPE  H18S19516   4.044   2.576   8.039 -0.5393  0.5979  0.0187
  172SAPE  C21919517   4.071   2.575   8.248  0.3542 -0.3218 -0.2415
  172SAPE  H19R19518   4.037   2.471   8.228 -0.6116  0.2091 -1.5297
  172SAPE  H19S19519   3.980   2.622   8.292 -0.1468 -1.1581 -0.3666
  172SAPE  C22019520   4.185   2.568   8.349 -0.2177  0.0895 -0.0477
  172SAPE  H20R19521   4.146   2.515   8.439  0.8511 -0.4595  0.0992
  172SAPE  H20S19522   4.231   2.665   8.377  0.7013 -0.2838 -0.2505
  172SAPE  H20T19523   4.270   2.508   8.312 -1.6978 -1.1177 -1.6823
  172SAPE   C3319524   3.827   2.120   6.794  0.3477 -0.1542 -0.1351
  172SAPE   H3X19525   3.859   2.015   6.809  1.1382  0.2146  0.9139
  172SAPE   H3Y19526   3.791   2.135   6.690  1.4462 -1.6575 -0.7764
  172SAPE   C3419527   3.710   2.147   6.891  1.2028 -0.1004 -0.6473
  172SAPE   H4X19528   3.645   2.062   6.860 -1.9070  0.5569  3.2337
  172SAPE   H4Y19529   3.656   2.243   6.877  1.6935  0.2406 -0.2668
  172SAPE   C3519530   3.761   2.141   7.038  0.1746  0.3591  0.2502
  172SAPE   H5X19531   3.826   2.229   7.057 -0.7501  0.8485  1.2328
  172SAPE   H5Y19532   3.819   2.047   7.048 -2.9102 -1.5838  0.9987
  172SAPE   C3619533   3.639   2.150   7.135  0.1477 -0.1727  0.3005
  172SAPE   H6X19534   3.553   2.084   7.111 -0.4007  0.5920  0.1318
  172SAPE   H6Y19535   3.589   2.249   7.141 -0.1380 -0.3461  0.8718
  172SAPE   C3719536   3.687   2.104   7.274  0.3507  0.0072  0.7763
  172SAPE   H7X19537   3.736   2.005   7.263  1.5962  0.5495  1.2668
  172SAPE   H7Y19538   3.607   2.072   7.345  1.7592 -1.9413  1.5654
  172SAPE   C3819539   3.784   2.196   7.350 -0.1184  0.2933 -0.0970
  172SAPE   H8X19540   3.759   2.304   7.348  0.8345  0.5688  1.1857
  172SAPE   H8Y19541   3.880   2.193   7.293 -0.0574 -1.3454  0.0444
  172SAPE   C3919542   3.811   2.139   7.488  0.8061  0.1920  0.4113
  172SAPE   H9X19543   3.835   2.031   7.487 -0.5108 -0.1661  2.0811
  172SAPE   H9Y19544   3.713   2.154   7.537 -1.2231 -2.0253 -2.6208
  172SAPE  C31019545   3.912   2.227   7.561  0.1095  0.6650 -0.6855
  172SAPE  H10X19546   3.882   2.334   7.564 -0.8521  0.3919  1.5385
  172SAPE  H10Y19547   4.010   2.228   7.510  2.4397  0.7634  3.3372
  172SAPE  C31119548   3.922   2.182   7.709  0.0357 -0.4118  0.5123
  172SAPE  H11X19549   3.911   2.072   7.715 -0.1170 -0.3324  2.5519
  172SAPE  H11Y19550   3.831   2.225   7.757  0.9562  0.3493  1.6309
  172SAPE  C31219551   4.040   2.238   7.787 -0.1349  0.6998 -0.7871
  172SAPE  H12X19552   4.041   2.349   7.783 -0.3128  0.7279 -0.2016
  172SAPE  H12Y19553   4.141   2.217   7.748 -0.2458  0.5402 -0.9897
  172SAPE  C31319554   4.029   2.182   7.931  0.0628  0.7069 -0.7883
  172SAPE  H13X19555   4.045   2.072   7.931 -0.0993  0.6823 -0.8620
  172SAPE  H13Y19556   3.941   2.220   7.988  0.9099 -1.4937  2.2637
  172SAPE  C31419557   4.155   2.224   8.010  0.6407  0.2447  0.2328
  172SAPE  H14X19558   4.174   2.333   8.010  3.2095 -0.0787  3.0945
  172SAPE  H14Y19559   4.238   2.185   7.948 -0.7767 -1.6986 -0.5682
  172SAPE  C31519560   4.153   2.179   8.157  0.2946 -0.2514 -0.4139
  172SAPE  H15X19561   4.129   2.070   8.157  3.1461 -0.9570 -1.8273
  172SAPE  H15Y19562   4.072   2.235   8.209  2.7664  1.7338  1.6117
  172SAPE  C31619563   4.287   2.216   8.215  0.3241 -0.1044  0.0486
  172SAPE  H16X19564   4.305   2.322   8.189  1.9542  0.1750  2.0565
  172SAPE  H16Y19565   4.364   2.152   8.168  0.6877  0.8269 -0.6497
  172SAPE  C31719566   4.307   2.201   8.369 -0.6322  0.1353  0.7986
  172SAPE  H17X19567   4.292   2.095   8.397 -0.5139 -0.1464 -0.1650
  172SAPE  H17Y19568   4.231   2.265   8.419 -2.5698 -2.2246  1.0533
  172SAPE  C31819569   4.460   2.233   8.400  0.1146 -0.0587  0.7078
  172SAPE  H18X19570   4.519   2.141   8.382  0.5592  0.8203 -3.4986
  172SAPE  H18Y19571   4.480   2.257   8.507  0.0617  3.3227  0.0936
  172SAPE  H18Z19572   4.496   2.315   8.334 -1.1732  0.7668  0.9728
  173SOPE     N19573   0.184   1.849  10.837 -0.9122  0.1689  0.2616
  173SOPE   HN119574   0.165   1.800  10.748 -1.0237 -0.6888  0.7520
  173SOPE   HN219575   0.127   1.935  10.822  1.5452  1.8720  0.0892
  173SOPE   HN319576   0.283   1.879  10.853 -1.2388  0.4746  1.9209
  173SOPE   C1219577   0.132   1.776  10.956  0.0631  0.3231  0.1625
  173SOPE  H12A19578   0.173   1.821  11.049  0.1942  0.4790  0.0309
  173SOPE  H12B19579   0.178   1.676  10.939  1.3853  1.0947 -1.0089
  173SOPE   C1119580  -0.024   1.765  10.941  0.1585  0.2886  0.2146
  173SOPE  H11A19581  -0.065   1.864  10.972  1.0781  0.4963  0.8238
  173SOPE  H11B19582  -0.065   1.698  11.020  0.0228 -0.8911 -0.8344
  173SOPE     P19583  -0.182   1.632  10.771 -0.5309 -0.5030  0.0765
  173SOPE   O1319584  -0.266   1.601  10.888 -0.4213  0.0025 -0.1082
  173SOPE   O1419585  -0.113   1.517  10.707  0.1641 -0.0171 -0.0134
  173SOPE   O1219586  -0.059   1.735  10.808  0.2473 -0.1343  0.2369
  173SOPE   O1119587  -0.271   1.705  10.655 -0.7206 -0.1938  0.2591
  173SOPE    C119588  -0.395   1.643  10.625  0.7560  0.1266  0.6534
  173SOPE    HA19589  -0.467   1.714  10.579  0.1365  0.4035  1.9921
  173SOPE    HB19590  -0.451   1.608  10.714  0.6237  1.2490  1.0289
  173SOPE    C219591  -0.380   1.525  10.520  1.0220 -0.1625  0.6844
  173SOPE    HS19592  -0.308   1.454  10.565  1.2116  0.5700  1.5638
  173SOPE   O2119593  -0.333   1.582  10.399  0.0247  0.6087  0.2744
  173SOPE   C2119594  -0.305   1.496  10.302 -0.0720  0.2432 -0.0141
  173SOPE   O2219595  -0.277   1.379  10.312 -0.4188  0.4169  0.1877
  173SOPE   C2219596  -0.295   1.568  10.160  0.2053 -0.0765 -0.2513
  173SOPE   H2R19597  -0.200   1.541  10.110  0.7559  3.9219 -1.7702
  173SOPE   H2S19598  -0.278   1.676  10.182 -2.4647  0.4992 -0.6096
  173SOPE    C319599  -0.519   1.451  10.497  0.0157 -0.2773 -0.4160
  173SOPE    HX19600  -0.557   1.417  10.595  0.9967 -3.7436 -1.1054
  173SOPE    HY19601  -0.507   1.353  10.446 -1.7792 -0.7552 -0.0114
  173SOPE   O3119602  -0.616   1.540  10.438  0.1399 -0.2972  0.9302
  173SOPE   C3119603  -0.740   1.497  10.426 -0.8616  0.1498  0.5378
  173SOPE   O3219604  -0.768   1.378  10.434  0.1685 -0.2604 -0.6313
  173SOPE   C3219605  -0.838   1.613  10.391 -0.1062 -0.2210  0.0507
  173SOPE   H2X19606  -0.820   1.697  10.462 -0.7978  1.3808 -1.5869
  173SOPE   H2Y19607  -0.944   1.581  10.400 -0.6969  1.5516 -0.3606
  173SOPE   C2319608  -0.423   1.552  10.080  0.1068  0.0671 -0.3202
  173SOPE   H3R19609  -0.502   1.596  10.145 -0.4859 -1.6758  0.1953
  173SOPE   H3S19610  -0.441   1.443  10.076 -0.9883  0.0978  2.1795
  173SOPE   C2419611  -0.421   1.614   9.938 -0.0980  0.0726  0.1452
  173SOPE   H4R19612  -0.361   1.707   9.944  0.9496 -0.5453 -0.3533
  173SOPE   H4S19613  -0.355   1.563   9.864  1.2302  3.1968 -0.9870
  173SOPE   C2519614  -0.557   1.637   9.880  0.3955  0.0423  0.2582
  173SOPE   H5R19615  -0.601   1.543   9.841  0.9726 -0.4381  0.7603
  173SOPE   H5S19616  -0.616   1.692   9.957  2.0020  1.1015  0.7829
  173SOPE   C2619617  -0.550   1.726   9.755 -0.0414  0.4401  0.2972
  173SOPE   H6R19618  -0.654   1.756   9.729 -0.0947  0.9846  1.1169
  173SOPE   H6S19619  -0.499   1.816   9.795  0.5962  0.3825 -0.3630
  173SOPE   C2719620  -0.472   1.674   9.628  0.7071 -0.4054 -0.4144
  173SOPE   H7R19621  -0.449   1.760   9.560  0.8257  0.1610  0.3295
  173SOPE   H7S19622  -0.375   1.631   9.660  0.5600 -0.5287 -0.1352
  173SOPE   C2819623  -0.538   1.562   9.550  0.8506  0.2189  0.0039
  173SOPE   H8R19624  -0.562   1.480   9.620  3.1347  0.3038  0.9596
  173SOPE   H8S19625  -0.635   1.585   9.500  1.5669  0.4936 -1.3083
  173SOPE   C2919626  -0.435   1.521   9.442 -0.2477  0.2934  0.1716
  173SOPE   H9119627  -0.351   1.464   9.485 -0.4239 -0.0580  0.0534
  173SOPE  C21019628  -0.429   1.556   9.313 -0.3769 -0.1767  0.0765
  173SOPE  H10119629  -0.349   1.508   9.255  0.5528 -2.0295  2.7009
  173SOPE  C21119630  -0.530   1.631   9.229 -0.7425  1.0414 -0.4646
  173SOPE  H11R19631  -0.469   1.718   9.197  0.3573  0.1979 -0.7352
  173SOPE  H11S19632  -0.618   1.668   9.286 -1.1134  0.4279 -0.6302
  173SOPE  C21219633  -0.595   1.547   9.121 -0.1886 -0.7035 -0.3442
  173SOPE  H12R19634  -0.658   1.473   9.175 -0.0292 -0.0573  0.7440
  173SOPE  H12S19635  -0.518   1.497   9.059  0.3222 -0.2315 -0.1017
  173SOPE  C21319636  -0.692   1.615   9.023  0.6743  0.6474 -0.2233
  173SOPE  H13R19637  -0.645   1.711   8.996 -0.1153  1.7509  2.0605
  173SOPE  H13S19638  -0.781   1.654   9.077  0.0762  0.3474 -0.9670
  173SOPE  C21419639  -0.724   1.538   8.890 -0.6771 -0.0905 -0.0207
  173SOPE  H14R19640  -0.776   1.441   8.907 -0.6591 -0.0818  0.0824
  173SOPE  H14S19641  -0.632   1.492   8.847 -1.4433 -1.3487 -0.3698
  173SOPE  C21519642  -0.781   1.624   8.782  0.1188 -0.4994  0.1750
  173SOPE  H15R19643  -0.723   1.718   8.770  0.6497 -0.6499  1.4819
  173SOPE  H15S19644  -0.876   1.672   8.816 -0.7604 -0.3955 -2.2617
  173SOPE  C21619645  -0.794   1.559   8.643  0.1576 -1.3323 -0.3021
  173SOPE  H16R19646  -0.865   1.473   8.648  0.6983 -1.7785 -0.0817
  173SOPE  H16S19647  -0.697   1.512   8.618  0.7051  0.8079 -2.5431
  173SOPE  C21719648  -0.829   1.662   8.539 -0.1872  0.8198  1.2804
  173SOPE  H17R19649  -0.739   1.725   8.528 -0.3817  0.8288 -0.5188
  173SOPE  H17S19650  -0.906   1.734   8.575 -0.6010  1.5543 -0.9246
  173SOPE  C21819651  -0.868   1.591   8.402 -0.0278 -0.2435  0.2329
  173SOPE  H18R19652  -0.950   1.518   8.416 -1.5029  1.4242  0.7977
  173SOPE  H18S19653  -0.782   1.541   8.354  0.4033 -1.7450  2.4202
  173SOPE  H18T19654  -0.899   1.682   8.346 -0.4055 -2.4105 -3.3855
  173SOPE   C3319655  -0.823   1.681  10.255  0.2669 -0.6287 -0.1194
  173SOPE   H3X19656  -0.716   1.687  10.227  0.1207 -1.7533 -1.0305
  173SOPE   H3Y19657  -0.857   1.787  10.261  3.3525  0.4879 -0.7786
  173SOPE   C3419658  -0.897   1.604  10.152 -0.3566 -0.2326  0.0647
  173SOPE   H4X19659  -1.003   1.582  10.176 -0.7265 -1.3127 -2.2823
  173SOPE   H4Y19660  -0.840   1.509  10.139  1.6932  1.2642 -3.6894
  173SOPE   C3519661  -0.904   1.682  10.023 -0.5800  0.4865  0.1410
  173SOPE   H5X19662  -0.829   1.644   9.951  0.7761 -1.7671  2.5570
  173SOPE   H5Y19663  -0.884   1.788  10.048 -0.7729  1.0543 -1.9582
  173SOPE   C3619664  -1.038   1.680   9.954 -0.0737  0.9725 -0.4422
  173SOPE   H6X19665  -1.107   1.730  10.026 -0.9461 -0.9915  0.1617
  173SOPE   H6Y19666  -1.079   1.579   9.930  1.1416 -0.1125  1.7241
  173SOPE   C3719667  -1.040   1.769   9.827  0.4644  0.1560 -0.4212
  173SOPE   H7X19668  -0.989   1.863   9.860 -0.1925 -0.0950  1.4254
  173SOPE   H7Y19669  -1.140   1.807   9.798  0.2713 -0.4794 -0.5961
  173SOPE   C3819670  -0.973   1.728   9.698 -0.2525 -0.3971  0.0996
  173SOPE   H8X19671  -0.877   1.682   9.728 -0.7751 -1.1253  0.6953
  173SOPE   H8Y19672  -0.952   1.814   9.631 -0.0520 -2.1722 -2.2627
  173SOPE   C3919673  -1.064   1.646   9.612 -0.7044  0.4618 -0.0161
  173SOPE   H9X19674  -1.160   1.701   9.606 -0.8882  0.1737  0.2559
  173SOPE   H9Y19675  -1.098   1.559   9.673  0.5565  0.0138  0.0947
  173SOPE  C31019676  -1.007   1.605   9.476 -0.1677  0.0109 -0.2958
  173SOPE  H10X19677  -0.926   1.529   9.484  0.5109  0.5475 -1.7450
  173SOPE  H10Y19678  -0.962   1.695   9.430  0.9039  0.1310  0.9222
  173SOPE  C31119679  -1.118   1.556   9.383 -0.1038 -0.1316 -0.1979
  173SOPE  H11X19680  -1.194   1.637   9.370  0.5828  0.4362 -0.7239
  173SOPE  H11Y19681  -1.177   1.475   9.431 -0.9114 -0.0311 -0.9710
  173SOPE  C31219682  -1.059   1.519   9.245 -0.6963 -0.3552  0.3045
  173SOPE  H12X19683  -0.978   1.444   9.264 -0.9580 -0.7193 -0.0120
  173SOPE  H12Y19684  -1.010   1.610   9.204  2.7353 -0.9712  2.5896
  173SOPE  C31319685  -1.149   1.457   9.139  0.4792  0.5122  1.0720
  173SOPE  H13X19686  -1.245   1.511   9.123 -0.5957 -1.7937 -1.0521
  173SOPE  H13Y19687  -1.175   1.352   9.167 -0.8663  0.0998 -1.4215
  173SOPE  C31419688  -1.080   1.467   9.009  0.0731 -0.7396  0.3772
  173SOPE  H14X19689  -0.987   1.406   9.006  1.3300  1.0464  0.7603
  173SOPE  H14Y19690  -1.054   1.570   8.976 -0.5371 -1.1280 -1.4412
  173SOPE  C31519691  -1.176   1.413   8.891 -0.0955  0.2437  0.3732
  173SOPE  H15X19692  -1.133   1.449   8.795 -1.2003 -1.2022 -0.7112
  173SOPE  H15Y19693  -1.277   1.457   8.896  0.0715  0.7925 -0.7898
  173SOPE  C31619694  -1.201   1.262   8.890 -0.4524 -0.1594  0.3414
  173SOPE  H16X19695  -1.277   1.229   8.816 -0.6549  0.2143  0.3815
  173SOPE  H16Y19696  -1.235   1.234   8.993 -1.6856  0.7828  0.2159
  173SOPE  C31719697  -1.068   1.186   8.859 -0.2317 -0.3589 -0.1617
  173SOPE  H17X19698  -1.083   1.081   8.892  2.9716 -0.6617  0.6133
  173SOPE  H17Y19699  -0.984   1.217   8.924  1.3280 -0.8085 -1.9060
  173SOPE  C31819700  -1.029   1.195   8.714  0.2191 -0.1498 -0.3376
  173SOPE  H18X19701  -0.989   1.293   8.678 -1.9756  0.9990  0.2030
  173SOPE  H18Y19702  -1.127   1.182   8.664 -1.4201 -2.7057  3.1921
  173SOPE  H18Z19703  -0.960   1.114   8.683  0.2407  0.6061 -2.4807
  174SOPE     N19704   3.879   6.576  10.902 -0.3347  0.4174 -0.3602
  174SOPE   HN119705   3.899   6.478  10.872  1.1857  0.8685 -0.8730
  174SOPE   HN219706   3.841   6.575  10.999  0.4945 -0.9479 -0.0202
  174SOPE   HN319707   3.811   6.612  10.832 -2.7179 -1.7717  0.6485
  174SOPE   C1219708   4.010   6.649  10.906  0.2811 -0.0339 -0.2605
  174SOPE  H12A19709   4.076   6.599  10.980  0.8731 -2.0539 -2.0576
  174SOPE  H12B19710   3.988   6.754  10.937  0.6072 -0.1975  0.5654
  174SOPE   C1119711   4.076   6.647  10.765 -0.1427 -0.3253 -0.3356
  174SOPE  H11A19712   4.174   6.700  10.770 -1.5975  2.5349  0.3443
  174SOPE  H11B19713   4.006   6.710  10.706 -1.1413  1.2632  2.3529
  174SOPE     P19714   4.217   6.423  10.729 -0.0741  0.0660  0.1158
  174SOPE   O1319715   4.201   6.294  10.660  0.1167 -0.2594 -0.3869
  174SOPE   O1419716   4.243   6.424  10.870  0.2196 -0.0015  0.0934
  174SOPE   O1219717   4.083   6.511  10.708 -0.5704 -0.3939  0.4236
  174SOPE   O1119718   4.323   6.510  10.656  0.4406  0.3143 -0.6684
  174SOPE    C119719   4.305   6.571  10.528 -0.8869 -0.1801 -0.4713
  174SOPE    HA19720   4.232   6.655  10.533 -0.1967  0.3836  0.4991
  174SOPE    HB19721   4.254   6.508  10.452  1.8834  0.8816 -3.4475
  174SOPE    C219722   4.439   6.621  10.460  0.4241 -0.9717 -0.3512
  174SOPE    HS19723   4.397   6.668  10.369  1.9555  0.8773 -0.1666
  174SOPE   O2119724   4.521   6.515  10.431  0.0991 -0.4588 -0.4048
  174SOPE   C2119725   4.481   6.433  10.340 -0.2963  0.2246  0.0722
  174SOPE   O2219726   4.373   6.432  10.285  0.6336  0.0594  0.1289
  174SOPE   C2219727   4.590   6.330  10.311  0.3663 -0.0971 -0.2224
  174SOPE   H2R19728   4.592   6.264  10.400 -0.6541  0.4061  0.1914
  174SOPE   H2S19729   4.691   6.377  10.311  0.8840 -1.1315 -1.8039
  174SOPE    C319730   4.511   6.721  10.557 -0.2546 -0.0474 -0.1721
  174SOPE    HX19731   4.568   6.657  10.628 -1.3518  0.3647  1.1215
  174SOPE    HY19732   4.431   6.770  10.616 -0.7964 -0.4763 -0.5355
  174SOPE   O3119733   4.592   6.804  10.480  0.0202 -1.0070  0.2018
  174SOPE   C3119734   4.722   6.810  10.503 -0.3851 -0.5054 -0.5683
  174SOPE   O3219735   4.785   6.750  10.584 -0.1547  0.2129 -0.0167
  174SOPE   C3219736   4.790   6.911  10.408  0.6303  0.7490 -0.0040
  174SOPE   H2X19737   4.895   6.920  10.442  1.8068 -0.9940 -2.8510
  174SOPE   H2Y19738   4.727   7.003  10.418  0.7072  0.7721  0.2946
  174SOPE   C2319739   4.558   6.245  10.182 -0.2418  0.0985 -0.1770
  174SOPE   H3R19740   4.461   6.198  10.207  0.7058 -2.6888 -1.4094
  174SOPE   H3S19741   4.638   6.169  10.167 -1.0707 -1.3133  2.0256
  174SOPE   C2419742   4.549   6.318  10.047  0.0173  0.1487  0.1319
  174SOPE   H4R19743   4.488   6.411  10.047 -0.2242 -0.0036 -0.1011
  174SOPE   H4S19744   4.643   6.371  10.025 -0.5593  1.3160  0.4056
  174SOPE   C2519745   4.518   6.227   9.929  0.1797 -0.6389 -0.0723
  174SOPE   H5R19746   4.594   6.146   9.931  0.3111 -0.5040  0.4666
  174SOPE   H5S19747   4.420   6.185   9.962 -0.8131  3.3371  2.7286
  174SOPE   C2619748   4.507   6.288   9.783  0.6714  1.0005 -0.0382
  174SOPE   H6R19749   4.436   6.372   9.766  1.1370  1.4849  0.3849
  174SOPE   H6S19750   4.610   6.327   9.767  1.5243 -1.0307  0.1772
  174SOPE   C2719751   4.493   6.178   9.677  0.3415 -0.7653 -0.3158
  174SOPE   H7R19752   4.575   6.107   9.700  0.6316 -0.2936  0.1173
  174SOPE   H7S19753   4.392   6.135   9.695  1.0348 -1.3188  2.8323
  174SOPE   C2819754   4.507   6.237   9.533 -0.5633  1.0784  0.0762
  174SOPE   H8R19755   4.445   6.329   9.523 -0.0963  1.7996  2.8359
  174SOPE   H8S19756   4.613   6.262   9.511  0.0156  1.0580  2.5371
  174SOPE   C2919757   4.468   6.118   9.443  0.0920 -0.4911  0.3204
  174SOPE   H9119758   4.472   6.019   9.491  0.3766 -0.5427  0.1870
  174SOPE  C21019759   4.436   6.128   9.313 -0.5896  0.1380  0.8808
  174SOPE  H10119760   4.436   6.042   9.245 -0.4954  1.1624 -0.4828
  174SOPE  C21119761   4.446   6.252   9.227 -0.5385  0.0844 -0.5963
  174SOPE  H11R19762   4.454   6.346   9.286  1.7602  0.4328 -1.3641
  174SOPE  H11S19763   4.359   6.264   9.159 -2.4035 -1.0418  1.4597
  174SOPE  C21219764   4.580   6.270   9.145 -0.4553  0.4114 -0.3488
  174SOPE  H12R19765   4.665   6.256   9.215  1.1869  1.7260 -2.0041
  174SOPE  H12S19766   4.592   6.368   9.094  0.7244  0.8723  0.7642
  174SOPE  C21319767   4.586   6.172   9.033  0.3942 -0.1894  0.2962
  174SOPE  H13R19768   4.496   6.173   8.967  1.1406  0.5227 -0.7356
  174SOPE  H13S19769   4.598   6.070   9.077  2.6552 -0.1907 -0.2205
  174SOPE  C21419770   4.707   6.192   8.939  0.0938  0.6396  0.1431
  174SOPE  H14R19771   4.806   6.177   8.988  1.2844  0.4529 -2.1814
  174SOPE  H14S19772   4.712   6.298   8.907 -1.5184  0.6603 -0.0760
  174SOPE  C21519773   4.695   6.092   8.822  0.0783  0.6717  0.1368
  174SOPE  H15R19774   4.623   6.125   8.745  0.8111 -1.6855 -1.6812
  174SOPE  H15S19775   4.667   5.994   8.867  2.2312  0.1664  0.4923
  174SOPE  C21619776   4.830   6.072   8.741  1.1914 -0.0760  0.3936
  174SOPE  H16R19777   4.905   6.022   8.806  2.0323 -3.7165 -3.0529
  174SOPE  H16S19778   4.877   6.169   8.713 -0.3659  0.6144  0.0607
  174SOPE  C21719779   4.825   5.973   8.620  0.4562 -0.1007  0.2734
  174SOPE  H17R19780   4.781   5.874   8.648 -1.1298  0.7866  1.0201
  174SOPE  H17S19781   4.930   5.950   8.589  0.7339  0.4957  0.7529
  174SOPE  C21819782   4.752   6.039   8.505  0.0265  0.5570 -0.1341
  174SOPE  H18R19783   4.798   6.138   8.481 -0.7770  1.1807  0.8480
  174SOPE  H18S19784   4.650   6.068   8.538  0.4090  1.8580 -0.0208
  174SOPE  H18T19785   4.757   5.972   8.416 -0.4563 -1.2543  1.1570
  174SOPE   C3319786   4.783   6.858  10.267 -0.3007  0.1779 -0.3787
  174SOPE   H3X19787   4.813   6.929  10.188 -2.3451  0.7138 -0.7073
  174SOPE   H3Y19788   4.684   6.819  10.235 -0.0591  0.5110 -1.5711
  174SOPE   C3419789   4.883   6.741  10.262 -0.5442  0.6137 -0.4241
  174SOPE   H4X19790   4.848   6.659  10.329 -0.6749  0.3016 -0.8662
  174SOPE   H4Y19791   4.981   6.783  10.292 -0.3386  1.1513 -1.7725
  174SOPE   C3519792   4.898   6.692  10.119  0.2491  0.7350  0.8022
  174SOPE   H5X19793   4.986   6.624  10.114 -0.5350 -0.1968 -1.3670
  174SOPE   H5Y19794   4.930   6.781  10.059 -0.8791  2.3922  2.5274
  174SOPE   C3619795   4.765   6.652  10.059  0.2975  0.5155 -0.8103
  174SOPE   H6X19796   4.693   6.735  10.073  0.0543  0.1266  0.4618
  174SOPE   H6Y19797   4.725   6.559  10.107  1.3396 -0.8819 -2.5317
  174SOPE   C3719798   4.776   6.622   9.908 -0.3057 -0.2113 -0.2662
  174SOPE   H7X19799   4.841   6.534   9.889  0.8217  0.5756 -0.1937
  174SOPE   H7Y19800   4.828   6.714   9.872 -0.8907  1.0283  1.8632
  174SOPE   C3819801   4.649   6.616   9.824  0.0333 -0.1527 -0.2973
  174SOPE   H8X19802   4.597   6.713   9.837 -0.9280 -0.8386  1.2980
  174SOPE   H8Y19803   4.583   6.542   9.874  0.7960  0.3080  1.4502
  174SOPE   C3919804   4.679   6.578   9.679 -0.5831  0.1163  0.9782
  174SOPE   H9X19805   4.581   6.561   9.630  0.4379 -1.0182 -0.7823
  174SOPE   H9Y19806   4.740   6.488   9.656 -1.6752 -0.3104 -0.3409
  174SOPE  C31019807   4.760   6.688   9.604  0.7967 -0.2864 -0.3175
  174SOPE  H10X19808   4.857   6.703   9.655 -0.0251  0.0163  1.2223
  174SOPE  H10Y19809   4.718   6.790   9.616  0.5107 -0.5834  1.5269
  174SOPE  C31119810   4.776   6.672   9.456 -0.3595 -0.1370 -0.2553
  174SOPE  H11X19811   4.829   6.574   9.450  3.0069  1.6016 -1.8603
  174SOPE  H11Y19812   4.855   6.741   9.421  1.3040 -0.7835  1.9742
  174SOPE  C31219813   4.646   6.657   9.372 -0.0356 -0.3195 -0.0259
  174SOPE  H12X19814   4.589   6.752   9.377  0.6320  0.0320  0.9939
  174SOPE  H12Y19815   4.589   6.575   9.419 -0.0893  0.7095  1.7773
  174SOPE  C31319816   4.680   6.626   9.225  0.3513  0.2877  0.3445
  174SOPE  H13X19817   4.725   6.524   9.228  2.2110  0.9130 -2.7156
  174SOPE  H13Y19818   4.761   6.689   9.184  0.7378 -1.8019 -2.3822
  174SOPE  C31419819   4.561   6.637   9.130  0.1035 -0.4466 -0.0744
  174SOPE  H14X19820   4.508   6.733   9.148 -0.3987 -0.6518 -0.4052
  174SOPE  H14Y19821   4.486   6.560   9.158 -0.3926  0.4131  1.0482
  174SOPE  C31519822   4.588   6.614   8.984 -0.2291 -0.2378  0.7984
  174SOPE  H15X19823   4.657   6.528   8.975  1.3288  0.8332  1.8655
  174SOPE  H15Y19824   4.645   6.703   8.951  1.0686 -0.5082  2.2159
  174SOPE  C31619825   4.472   6.577   8.888  0.3661  0.4143  0.5294
  174SOPE  H16X19826   4.399   6.660   8.891  1.0488  1.0435  0.1137
  174SOPE  H16Y19827   4.423   6.487   8.932 -0.6304  1.3927  1.4867
  174SOPE  C31719828   4.518   6.567   8.750  0.0496  0.7980  0.3670
  174SOPE  H17X19829   4.555   6.669   8.723  1.9070 -0.0451 -0.4632
  174SOPE  H17Y19830   4.432   6.549   8.682 -0.6909 -0.2282  1.5245
  174SOPE  C31819831   4.623   6.462   8.714 -0.1261 -0.8199  0.5517
  174SOPE  H18X19832   4.609   6.442   8.606  0.6568 -0.0565  0.2975
  174SOPE  H18Y19833   4.603   6.364   8.762 -0.0062 -1.8896 -1.4894
  174SOPE  H18Z19834   4.724   6.506   8.726 -0.1372 -0.8399  0.7200
  175SOPE     N19835   0.701   1.178  11.147 -0.0729 -0.2356 -0.2056
  175SOPE   HN119836   0.762   1.254  11.111  1.2151 -1.3813 -0.5187
  175SOPE   HN219837   0.602   1.209  11.154 -0.6853 -2.1906  0.4721
  175SOPE   HN319838   0.730   1.146  11.242 -2.5793 -0.0785  0.6839
  175SOPE   C1219839   0.719   1.058  11.050  0.3254 -0.0793 -0.6215
  175SOPE  H12A19840   0.621   1.007  11.056 -0.6645  1.7068 -0.8420
  175SOPE  H12B19841   0.813   1.001  11.061 -0.2329 -0.9492 -0.2915
  175SOPE   C1119842   0.724   1.109  10.914 -0.1018  0.3527  0.2073
  175SOPE  H11A19843   0.633   1.168  10.889 -1.1198 -0.2074  2.3856
  175SOPE  H11B19844   0.720   1.016  10.853 -0.7031  1.1978 -1.0809
  175SOPE     P19845   0.874   1.265  10.760 -0.3480  0.0442 -0.3893
  175SOPE   O1319846   1.019   1.306  10.768  0.1659 -0.3622 -0.2584
  175SOPE   O1419847   0.772   1.370  10.756  0.5171 -0.3448 -0.3231
  175SOPE   O1219848   0.842   1.190  10.891 -0.3119  0.2030 -0.4786
  175SOPE   O1119849   0.859   1.160  10.640  0.4832  0.7483  0.4738
  175SOPE    C119850   0.981   1.099  10.587  1.0593  0.0054  0.1133
  175SOPE    HA19851   0.954   0.992  10.573 -3.4474  0.4391  3.3187
  175SOPE    HB19852   1.071   1.111  10.651  0.9344  0.5576  0.1805
  175SOPE    C219853   1.032   1.165  10.457 -0.1416 -0.2496  0.0125
  175SOPE    HS19854   1.042   1.270  10.492  2.4153  0.4572 -2.4698
  175SOPE   O2119855   0.934   1.147  10.350  0.0554  0.0069  0.2642
  175SOPE   C2119856   0.871   1.248  10.308 -0.2591  0.3640 -0.0982
  175SOPE   O2219857   0.874   1.362  10.353  0.7042  0.1817 -0.0033
  175SOPE   C2219858   0.785   1.211  10.191  0.4803  0.1033 -0.0175
  175SOPE   H2R19859   0.693   1.273  10.196  2.2922  2.9113  0.6210
  175SOPE   H2S19860   0.772   1.101  10.198 -0.4726  0.2460  0.5700
  175SOPE    C319861   1.165   1.103  10.416 -0.1216 -0.1340  0.0465
  175SOPE    HX19862   1.140   1.000  10.383 -0.2573 -0.0037 -0.2594
  175SOPE    HY19863   1.231   1.097  10.505 -2.1519  1.4295  1.7789
  175SOPE   O3119864   1.211   1.177  10.297  0.7544 -0.4742 -0.2235
  175SOPE   C3119865   1.342   1.179  10.289 -0.3219 -0.0971  0.3099
  175SOPE   O3219866   1.416   1.109  10.353 -0.4141 -0.0779 -0.0693
  175SOPE   C3219867   1.386   1.262  10.168  0.2440  0.3951  0.7042
  175SOPE   H2X19868   1.483   1.219  10.134 -0.5010  0.0057 -1.0231
  175SOPE   H2Y19869   1.391   1.370  10.195  0.8404  0.6261 -0.2515
  175SOPE   C2319870   0.858   1.247  10.059 -0.0544  0.8959 -0.0488
  175SOPE   H3R19871   0.947   1.183  10.041 -0.4050  1.0623 -2.8570
  175SOPE   H3S19872   0.896   1.352  10.065 -0.1349  0.8599  1.3865
  175SOPE   C2419873   0.774   1.237   9.934  0.0114  0.2449  0.4671
  175SOPE   H4R19874   0.743   1.132   9.913  0.0198  0.3018  0.1628
  175SOPE   H4S19875   0.690   1.309   9.945 -1.3604 -1.0396 -1.0588
  175SOPE   C2519876   0.855   1.286   9.817  0.6303 -0.5406  0.0960
  175SOPE   H5R19877   0.867   1.396   9.816 -2.2878 -0.1313 -0.1278
  175SOPE   H5S19878   0.953   1.234   9.812  0.4519 -0.7627 -1.6516
  175SOPE   C2619879   0.782   1.251   9.689 -0.3811  0.4355  0.2700
  175SOPE   H6R19880   0.762   1.142   9.688  1.2890  0.0927  1.2618
  175SOPE   H6S19881   0.681   1.296   9.697  1.0753  3.6302  2.9931
  175SOPE   C2719882   0.854   1.290   9.557  0.7396  0.1300  0.2691
  175SOPE   H7R19883   0.863   1.400   9.560 -0.7170  0.2568  1.3049
  175SOPE   H7S19884   0.957   1.250   9.545  0.9083  0.9922 -1.4297
  175SOPE   C2819885   0.778   1.247   9.429  0.3566  0.0329  0.3971
  175SOPE   H8R19886   0.836   1.299   9.349 -0.0472  1.0341  0.7412
  175SOPE   H8S19887   0.788   1.137   9.419 -0.7808  0.0837 -2.3722
  175SOPE   C2919888   0.631   1.291   9.427 -0.2490 -0.1412 -0.7797
  175SOPE   H9119889   0.587   1.324   9.522 -1.6183 -0.2506 -1.3416
  175SOPE  C21019890   0.550   1.298   9.323  0.7853  0.0125  0.7143
  175SOPE  H10119891   0.448   1.338   9.335  0.6239  0.2270 -1.1785
  175SOPE  C21119892   0.596   1.276   9.181 -0.4190  0.6822  0.4897
  175SOPE  H11R19893   0.530   1.222   9.110  1.9489 -1.5408 -0.1942
  175SOPE  H11S19894   0.686   1.210   9.181 -2.1792 -1.9822 -2.0481
  175SOPE  C21219895   0.650   1.411   9.117 -0.8553  0.5439 -0.1796
  175SOPE  H12R19896   0.714   1.402   9.026  0.8928 -2.1878  1.2011
  175SOPE  H12S19897   0.721   1.469   9.179 -0.2996 -0.2800 -0.0252
  175SOPE  C21319898   0.530   1.507   9.097 -0.3737 -0.0666 -0.6016
  175SOPE  H13R19899   0.503   1.560   9.191 -3.7028 -0.5994 -1.1244
  175SOPE  H13S19900   0.437   1.453   9.068 -1.7203  0.9918  1.4919
  175SOPE  C21419901   0.554   1.608   8.983  0.4921  0.2439  0.1606
  175SOPE  H14R19902   0.662   1.631   8.974  0.5779 -0.0485  0.4259
  175SOPE  H14S19903   0.496   1.702   8.988 -2.0195 -1.0943 -1.5243
  175SOPE  C21519904   0.512   1.547   8.847 -0.1665  0.0451 -0.1544
  175SOPE  H15R19905   0.403   1.528   8.859 -1.0148  2.3387 -3.0299
  175SOPE  H15S19906   0.561   1.449   8.833  1.4460  0.9593 -1.1425
  175SOPE  C21619907   0.544   1.634   8.732 -0.1671  0.6558  0.2061
  175SOPE  H16R19908   0.654   1.632   8.723  0.0803 -0.4514  2.6546
  175SOPE  H16S19909   0.509   1.736   8.761  0.1549  0.7728  0.1799
  175SOPE  C21719910   0.478   1.592   8.602  0.3354 -0.0969  0.1961
  175SOPE  H17R19911   0.537   1.640   8.521 -1.9709  1.0565 -0.8751
  175SOPE  H17S19912   0.369   1.611   8.600  0.4329  0.4315 -0.5393
  175SOPE  C21819913   0.495   1.442   8.590  0.2668  0.5389  0.3999
  175SOPE  H18R19914   0.602   1.422   8.616  1.2667  3.1461 -1.2749
  175SOPE  H18S19915   0.476   1.418   8.484  0.1503  0.7777  0.3662
  175SOPE  H18T19916   0.433   1.380   8.657  0.7716  0.3633  0.7131
  175SOPE   C3319917   1.287   1.255  10.046  0.3136 -0.1607  0.9272
  175SOPE   H3X19918   1.188   1.294  10.077  0.8602  1.0092  1.2803
  175SOPE   H3Y19919   1.278   1.147  10.020  0.9042 -0.4434  1.8413
  175SOPE   C3419920   1.338   1.358   9.930 -0.0173  0.3156  0.1102
  175SOPE   H4X19921   1.435   1.313   9.898  0.9050  0.4131  2.5047
  175SOPE   H4Y19922   1.373   1.454   9.974  2.8926 -0.4562 -0.3039
  175SOPE   C3519923   1.234   1.357   9.822 -0.2702  0.3678  0.4216
  175SOPE   H5X19924   1.131   1.372   9.861 -0.8379 -2.3773  0.1526
  175SOPE   H5Y19925   1.232   1.254   9.780 -1.7931  0.9039 -0.9690
  175SOPE   C3619926   1.277   1.435   9.698  0.2185  0.2210 -0.0260
  175SOPE   H6X19927   1.375   1.403   9.657 -0.6053  0.0072 -1.9352
  175SOPE   H6Y19928   1.281   1.543   9.722  0.3194  0.5581 -1.4414
  175SOPE   C3719929   1.178   1.425   9.581 -0.5940 -0.2957 -0.5693
  175SOPE   H7X19930   1.076   1.432   9.626  0.3211 -1.3132  1.8448
  175SOPE   H7Y19931   1.185   1.327   9.530 -2.2259  0.2652 -1.9864
  175SOPE   C3819932   1.211   1.525   9.475  0.0638 -0.2899 -0.2462
  175SOPE   H8X19933   1.303   1.492   9.422  1.0405 -0.4887  1.4853
  175SOPE   H8Y19934   1.236   1.620   9.526 -2.9656  1.2208 -1.3627
  175SOPE   C3919935   1.090   1.558   9.387 -0.3788 -0.1203 -0.2005
  175SOPE   H9X19936   1.003   1.579   9.453  1.4872 -1.6781  3.0643
  175SOPE   H9Y19937   1.049   1.469   9.336 -2.1363  0.0147  0.8690
  175SOPE  C31019938   1.121   1.671   9.289 -0.0257  0.4151 -0.6590
  175SOPE  H10X19939   1.211   1.642   9.230 -0.4099  0.2762 -1.1788
  175SOPE  H10Y19940   1.126   1.769   9.342  1.2233  0.0879 -0.1312
  175SOPE  C31119941   1.004   1.695   9.190  0.3493  0.0916  0.2678
  175SOPE  H11X19942   0.910   1.727   9.239 -0.6105 -0.2354 -1.2959
  175SOPE  H11Y19943   0.978   1.611   9.122 -1.4850  0.7096  0.1501
  175SOPE  C31219944   1.030   1.812   9.095  0.2152  0.6943  0.2569
  175SOPE  H12X19945   1.126   1.808   9.039  0.0698  0.3670  0.0306
  175SOPE  H12Y19946   1.045   1.893   9.171 -2.3552 -0.2555  1.8928
  175SOPE  C31319947   0.916   1.848   8.999  0.4501  0.4052  0.0808
  175SOPE  H13X19948   0.936   1.944   8.948  4.0266 -0.4259 -0.3201
  175SOPE  H13Y19949   0.815   1.846   9.045  0.2412  1.2736 -0.3281
  175SOPE  C31419950   0.902   1.752   8.873 -0.8838  0.4919  0.9119
  175SOPE  H14X19951   0.795   1.744   8.842 -0.7813 -0.3087  0.7462
  175SOPE  H14Y19952   0.934   1.651   8.908  3.8077  2.1182  2.0695
  175SOPE  C31519953   0.972   1.799   8.747 -0.1427 -0.8228 -0.0581
  175SOPE  H15X19954   0.950   1.715   8.678  0.8415 -1.1414 -0.0031
  175SOPE  H15Y19955   1.082   1.803   8.764  0.1615 -1.6671 -1.6038
  175SOPE  C31619956   0.917   1.927   8.673  0.2130  0.0633  0.0021
  175SOPE  H16X19957   0.931   2.019   8.733  0.0407 -0.0435  0.2075
  175SOPE  H16Y19958   0.815   1.907   8.635  1.1963 -0.3767 -2.6518
  175SOPE  C31719959   0.982   1.944   8.534 -0.0212  0.5535  0.0425
  175SOPE  H17X19960   0.922   2.023   8.484  0.2645 -0.1511 -1.4754
  175SOPE  H17Y19961   0.962   1.850   8.479 -2.0576  1.8505 -1.5723
  175SOPE  C31819962   1.123   1.992   8.542 -0.1407 -0.4703 -0.7535
  175SOPE  H18X19963   1.126   2.089   8.596  0.8239 -1.5974  1.3386
  175SOPE  H18Y19964   1.173   2.012   8.445  0.2447  0.4618 -0.3758
  175SOPE  H18Z19965   1.182   1.926   8.609  0.0568  0.3624 -0.0840
  176SOPE     N19966   4.341   1.837  10.915 -0.5524 -0.4378 -0.2028
  176SOPE   HN119967   4.368   1.740  10.887 -0.0762 -0.0780 -1.0229
  176SOPE   HN219968   4.420   1.862  10.978  0.3666 -0.6091 -1.2514
  176SOPE   HN319969   4.258   1.845  10.978  0.7461 -1.3097  1.7130
  176SOPE   C1219970   4.330   1.931  10.796  0.6644 -0.0117  0.9873
  176SOPE  H12A19971   4.253   1.878  10.736  0.2914 -0.3070  1.7205
  176SOPE  H12B19972   4.430   1.944  10.748 -0.5388  4.9852 -0.8248
  176SOPE   C1119973   4.286   2.074  10.837 -0.4387 -1.1114  0.1378
  176SOPE  H11A19974   4.186   2.068  10.885 -0.4189 -0.6805  0.2327
  176SOPE  H11B19975   4.278   2.136  10.745  0.6128  0.1985  0.9023
  176SOPE     P19976   4.483   2.243  10.896 -0.1330 -0.1717  0.4525
  176SOPE   O1319977   4.582   2.244  11.004 -0.3581 -0.5713 -0.6564
  176SOPE   O1419978   4.417   2.370  10.856  0.2894 -0.5986 -0.3644
  176SOPE   O1219979   4.369   2.140  10.933 -0.3364  0.6378 -0.1041
  176SOPE   O1119980   4.541   2.169  10.767 -0.1744  0.7278  0.5115
  176SOPE    C119981   4.671   2.125  10.761 -0.3298  0.3997 -0.7119
  176SOPE    HA19982   4.675   2.033  10.698  0.3761 -1.1290  1.4202
  176SOPE    HB19983   4.698   2.083  10.860 -0.2949 -0.2846 -1.0039
  176SOPE    C219984   4.772   2.236  10.725  0.5482  0.0892 -0.0858
  176SOPE    HS19985   4.751   2.319  10.797  1.5493  1.3226 -1.1806
  176SOPE   O2119986   4.741   2.274  10.591 -0.6629  0.1677  0.6264
  176SOPE   C2119987   4.774   2.395  10.559  0.0091  0.1397 -0.4001
  176SOPE   O2219988   4.817   2.481  10.633 -0.2155 -0.3860 -0.4127
  176SOPE   C2219989   4.745   2.422  10.412  0.4107  0.3052 -0.0269
  176SOPE   H2R19990   4.801   2.346  10.354  0.2114  0.7743 -0.8483
  176SOPE   H2S19991   4.800   2.513  10.379 -0.8796  0.1516 -2.8766
  176SOPE    C319992   4.920   2.198  10.745  0.4321 -0.5317  0.4532
  176SOPE    HX19993   4.935   2.184  10.854 -0.8365  1.4165  0.9192
  176SOPE    HY19994   4.983   2.286  10.718 -1.6180  0.9073  0.0803
  176SOPE   O3119995   4.958   2.085  10.660  0.4706  0.1096 -0.1581
  176SOPE   C3119996   5.029   2.106  10.548  1.1077 -0.0798  0.5063
  176SOPE   O3219997   5.081   2.210  10.516  0.6002  0.8522  0.3756
  176SOPE   C3219998   5.024   1.987  10.452 -1.0242  0.2037 -1.3289
  176SOPE   H2X19999   5.008   1.895  10.512  1.2162  0.7308  0.1737
  176SOPE   H2Y20000   5.128   1.985  10.414  0.1856 -0.5385  1.7188
  176SOPE   C2320001   4.595   2.424  10.370 -0.3268 -0.0477  0.2034
  176SOPE   H3R20002   4.555   2.518  10.415  0.1222  1.4715 -2.3732
  176SOPE   H3S20003   4.532   2.334  10.386 -0.0699 -0.0541  1.2933
  176SOPE   C2420004   4.567   2.434  10.219  0.4886 -0.5925 -0.8227
  176SOPE   H4R20005   4.647   2.498  10.176 -1.1091  1.6357 -0.6797
  176SOPE   H4S20006   4.576   2.331  10.179  0.0055 -1.9627  2.2778
  176SOPE   C2520007   4.424   2.497  10.201  0.4018  0.3911  0.8694
  176SOPE   H5R20008   4.350   2.423  10.238  0.7713 -1.9912 -2.6335
  176SOPE   H5S20009   4.418   2.594  10.255 -1.7273 -0.3350  2.0117
  176SOPE   C2620010   4.409   2.513  10.050  0.4731  0.1675 -0.2098
  176SOPE   H6R20011   4.311   2.564  10.038  0.3009 -0.3025 -0.8595
  176SOPE   H6S20012   4.490   2.576  10.008  0.1980  0.5229 -0.2191
  176SOPE   C2720013   4.395   2.381   9.975  0.2785  0.1584  0.0110
  176SOPE   H7R20014   4.487   2.320   9.970 -0.9428 -1.7179 -0.4686
  176SOPE   H7S20015   4.318   2.327  10.034 -0.4564 -1.2130 -2.0883
  176SOPE   C2820016   4.342   2.401   9.830 -0.3610 -0.0192 -0.0526
  176SOPE   H8R20017   4.311   2.299   9.797  1.4847 -0.9965  1.0148
  176SOPE   H8S20018   4.249   2.462   9.827 -1.4145 -1.5738 -0.2037
  176SOPE   C2920019   4.450   2.466   9.751  0.0467 -0.5112 -0.4713
  176SOPE   H9120020   4.482   2.562   9.793 -0.1177 -0.9669  0.7219
  176SOPE  C21020021   4.518   2.416   9.643  0.3571 -0.8132 -0.2990
  176SOPE  H10120022   4.590   2.474   9.583  0.1493  0.2379  0.4510
  176SOPE  C21120023   4.493   2.280   9.589 -0.5131  0.1035 -0.3631
  176SOPE  H11R20024   4.386   2.251   9.601 -0.6466  0.1341 -1.3916
  176SOPE  H11S20025   4.534   2.196   9.649 -0.1094 -3.1488 -4.7311
  176SOPE  C21220026   4.523   2.269   9.438 -0.2827 -0.1883  0.3169
  176SOPE  H12R20027   4.516   2.162   9.407  1.7541 -0.2434 -0.0755
  176SOPE  H12S20028   4.630   2.288   9.417 -0.2451  0.0526  0.7197
  176SOPE  C21320029   4.436   2.343   9.331  1.1988 -0.1976 -0.1985
  176SOPE  H13R20030   4.420   2.451   9.348 -1.8417 -0.6465  0.3755
  176SOPE  H13S20031   4.332   2.320   9.362  1.8244 -0.5666  1.7860
  176SOPE  C21420032   4.460   2.294   9.188  0.8315  0.0896 -0.2326
  176SOPE  H14R20033   4.439   2.185   9.184  0.5383  0.1684 -3.0599
  176SOPE  H14S20034   4.568   2.311   9.171  1.2635 -2.1894 -0.0986
  176SOPE  C21520035   4.375   2.372   9.081 -0.1093  0.2822 -0.2866
  176SOPE  H15R20036   4.394   2.481   9.095 -1.5147  0.1655  3.7194
  176SOPE  H15S20037   4.267   2.361   9.104 -0.5051 -0.7365 -2.3790
  176SOPE  C21620038   4.395   2.318   8.941  0.2096  0.4498  0.4343
  176SOPE  H16R20039   4.502   2.342   8.924  0.4331 -0.7491  0.0606
  176SOPE  H16S20040   4.340   2.379   8.867  1.2605  0.7081 -0.1636
  176SOPE  C21720041   4.369   2.163   8.909  0.0987  0.0158 -0.1300
  176SOPE  H17R20042   4.261   2.138   8.923  0.7181 -2.9854 -0.0227
  176SOPE  H17S20043   4.422   2.102   8.986 -0.6288  1.3515  1.4966
  176SOPE  C21820044   4.403   2.115   8.773 -0.8527 -0.0173 -0.1652
  176SOPE  H18R20045   4.509   2.135   8.746 -0.5212  0.6601  1.4949
  176SOPE  H18S20046   4.341   2.160   8.692  1.2918 -1.0339 -2.4883
  176SOPE  H18T20047   4.378   2.010   8.747 -0.8404  0.5020 -2.4874
  176SOPE   C3320048   4.929   2.004  10.336 -0.0549 -0.3798 -0.3779
  176SOPE   H3X20049   4.832   2.045  10.370  1.4729  1.5763  1.9822
  176SOPE   H3Y20050   4.918   1.906  10.285  1.4592  0.0837 -1.6907
  176SOPE   C3420051   4.991   2.090  10.228 -0.5683 -0.2788  0.1250
  176SOPE   H4X20052   5.074   2.029  10.185  1.4877  2.1217  0.4590
  176SOPE   H4Y20053   5.031   2.185  10.268 -1.5166  0.6628 -1.0947
  176SOPE   C3520054   4.888   2.129  10.119 -0.1700  0.4846  0.1369
  176SOPE   H5X20055   4.943   2.190  10.045  1.0773  0.2281  0.8325
  176SOPE   H5Y20056   4.792   2.169  10.159  1.2697  1.2544  3.0645
  176SOPE   C3620057   4.839   1.998  10.046 -0.3823 -0.0310  0.0133
  176SOPE   H6X20058   4.790   1.929  10.118 -0.7345  0.6943  0.4689
  176SOPE   H6Y20059   4.928   1.944  10.008 -0.8861 -1.9951  1.4442
  176SOPE   C3720060   4.744   2.025   9.934  0.2569 -0.1904  0.1242
  176SOPE   H7X20061   4.784   2.109   9.874  0.4621  0.8839  1.7158
  176SOPE   H7Y20062   4.647   2.053   9.981  0.1345 -0.5022  0.0614
  176SOPE   C3820063   4.719   1.905   9.838 -0.4527  0.8780  0.0338
  176SOPE   H8X20064   4.704   1.838   9.925  0.3617  1.2988  0.5060
  176SOPE   H8Y20065   4.808   1.871   9.782 -0.3198  1.1759  0.0626
  176SOPE   C3920066   4.609   1.928   9.730 -1.2478  0.6559 -0.2611
  176SOPE   H9X20067   4.650   2.005   9.661  3.0701  0.4814  1.7876
  176SOPE   H9Y20068   4.515   1.961   9.779 -1.0640  1.3279 -0.3432
  176SOPE  C31020069   4.567   1.798   9.655  0.3862 -0.5880  0.2852
  176SOPE  H10X20070   4.465   1.817   9.615  0.1523 -0.9156  0.7092
  176SOPE  H10Y20071   4.557   1.726   9.739 -1.7405 -0.4416  0.2171
  176SOPE  C31120072   4.659   1.763   9.531 -0.6708  0.3849  0.1744
  176SOPE  H11X20073   4.631   1.663   9.491  0.6240 -0.7876  2.0614
  176SOPE  H11Y20074   4.764   1.760   9.567 -1.6659  0.0667  3.3168
  176SOPE  C31220075   4.646   1.863   9.414 -0.4419  0.3344 -0.2156
  176SOPE  H12X20076   4.684   1.964   9.442  0.4352  0.5563 -2.0835
  176SOPE  H12Y20077   4.538   1.881   9.394 -0.5329  0.7111  0.5482
  176SOPE  C31320078   4.732   1.819   9.293 -0.1550 -0.0971  0.4245
  176SOPE  H13X20079   4.730   1.708   9.287  0.7910 -0.0390 -2.0377
  176SOPE  H13Y20080   4.838   1.846   9.313 -0.4251 -0.6203  2.8051
  176SOPE  C31420081   4.694   1.877   9.163 -0.1410 -0.5492  0.7307
  176SOPE  H14X20082   4.680   1.986   9.176 -1.8063 -0.7796  0.9981
  176SOPE  H14Y20083   4.594   1.841   9.131  0.0253  0.5945 -1.2322
  176SOPE  C31520084   4.791   1.857   9.048  0.0494  0.1204 -0.2836
  176SOPE  H15X20085   4.792   1.749   9.020  0.6107  0.3303 -1.1303
  176SOPE  H15Y20086   4.891   1.897   9.078 -0.1897  0.8245 -0.4007
  176SOPE  C31620087   4.743   1.935   8.917  0.2344 -0.1437  0.1237
  176SOPE  H16X20088   4.691   2.027   8.952 -0.7140 -0.3233 -0.7502
  176SOPE  H16Y20089   4.659   1.878   8.872 -1.1415  0.2053  2.1128
  176SOPE  C31720090   4.862   1.977   8.820 -0.6895  0.3698 -0.3717
  176SOPE  H17X20091   4.931   1.895   8.791 -0.8406 -0.1057  0.5848
  176SOPE  H17Y20092   4.911   2.057   8.881 -0.7756  0.6813 -0.7050
  176SOPE  C31820093   4.819   2.034   8.682 -0.8047 -0.0876 -0.2552
  176SOPE  H18X20094   4.901   2.078   8.622  1.1248 -2.7076  0.3187
  176SOPE  H18Y20095   4.737   2.108   8.694 -0.2958  0.6428 -1.1217
  176SOPE  H18Z20096   4.785   1.954   8.613  0.3821  0.2029 -1.2190
  177SOPE     N20097   4.901   0.035  11.022  0.1559  0.2655 -0.3116
  177SOPE   HN120098   4.827   0.108  11.028 -0.1440 -0.1430  1.2419
  177SOPE   HN220099   4.871  -0.048  11.076  1.2011  0.1736  0.1387
  177SOPE   HN320100   4.976   0.080  11.079 -0.4301  1.7658 -0.6691
  177SOPE   C1220101   4.939  -0.007  10.885  0.6778 -0.1882 -0.5521
  177SOPE  H12A20102   4.853  -0.063  10.843  0.2253  0.1843 -0.1340
  177SOPE  H12B20103   5.025  -0.078  10.885  0.9233 -0.0111  2.1321
  177SOPE   C1120104   4.960   0.110  10.797 -0.1138 -0.5791 -0.0684
  177SOPE  H11A20105   4.869   0.172  10.814 -0.3202 -0.4378 -1.5746
  177SOPE  H11B20106   4.962   0.089  10.688  0.2540 -0.7894 -0.0237
  177SOPE     P20107   5.094   0.333  10.853  0.0273 -0.4648  0.0313
  177SOPE   O1320108   5.198   0.352  10.951  0.6750 -0.0061 -0.6222
  177SOPE   O1420109   4.959   0.387  10.877 -0.1657 -0.0508 -0.3249
  177SOPE   O1220110   5.078   0.174  10.836 -0.9535 -0.2685  0.6392
  177SOPE   O1120111   5.146   0.374  10.715  0.2061 -0.2919  0.3427
  177SOPE    C120112   5.244   0.305  10.630 -0.2797 -0.5000  0.4565
  177SOPE    HA20113   5.224   0.326  10.523  1.1587  3.7824  0.8051
  177SOPE    HB20114   5.244   0.195  10.644 -0.2308 -0.4504  0.8528
  177SOPE    C220115   5.389   0.360  10.654  0.1880  0.6034  0.5757
  177SOPE    HS20116   5.426   0.346  10.758 -0.6962  1.3442  1.0138
  177SOPE   O2120117   5.378   0.507  10.623  0.1908  0.1996  0.7321
  177SOPE   C2120118   5.479   0.577  10.624 -0.4408  0.1459 -0.4146
  177SOPE   O2220119   5.594   0.547  10.661 -0.1972 -0.0679  0.1004
  177SOPE   C2220120   5.448   0.716  10.579 -0.2738 -0.3210 -0.1449
  177SOPE   H2R20121   5.449   0.780  10.670  2.8362  0.5491 -0.6725
  177SOPE   H2S20122   5.356   0.722  10.516 -1.2054 -2.0265  0.9614
  177SOPE    C320123   5.491   0.293  10.553 -0.1156 -0.2093  0.3390
  177SOPE    HX20124   5.474   0.184  10.554  3.0165 -0.7732  0.5641
  177SOPE    HY20125   5.594   0.312  10.591 -0.2967  1.7050 -0.0280
  177SOPE   O3120126   5.477   0.352  10.426  0.1131  0.3124  0.2040
  177SOPE   C3120127   5.572   0.315  10.335 -0.1288 -0.4672 -1.0271
  177SOPE   O3220128   5.648   0.219  10.353  0.7342  0.9186 -0.3985
  177SOPE   C3220129   5.587   0.418  10.222  0.1695  0.0329  0.0605
  177SOPE   H2X20130   5.672   0.484  10.251  0.4258 -0.1717 -0.2174
  177SOPE   H2Y20131   5.497   0.484  10.218  0.6558  0.6658 -0.6601
  177SOPE   C2320132   5.566   0.770  10.493  0.0593 -0.2379  0.2792
  177SOPE   H3R20133   5.581   0.707  10.403  0.3852  0.5113 -0.2006
  177SOPE   H3S20134   5.664   0.781  10.543  0.6061 -3.5084  0.1517
  177SOPE   C2420135   5.535   0.910  10.432  0.1772 -0.1223 -0.5202
  177SOPE   H4R20136   5.435   0.897  10.385 -0.9657 -0.9861  1.9896
  177SOPE   H4S20137   5.525   0.985  10.513 -0.5547  1.5128 -2.0667
  177SOPE   C2520138   5.637   0.955  10.330  0.1880  0.0286 -0.2872
  177SOPE   H5R20139   5.625   0.881  10.248  1.7067  0.7101 -1.1743
  177SOPE   H5S20140   5.611   1.048  10.276 -0.7600 -0.9125 -1.5258
  177SOPE   C2620141   5.779   0.967  10.387  0.1398  0.0407  0.1221
  177SOPE   H6R20142   5.777   1.034  10.476  0.5975  1.7551 -1.0989
  177SOPE   H6S20143   5.817   0.870  10.425 -0.0982  0.8444  2.6366
  177SOPE   C2720144   5.878   1.018  10.283 -0.2405 -0.0314 -0.1239
  177SOPE   H7R20145   5.979   0.989  10.321 -0.9080 -0.6937  1.1830
  177SOPE   H7S20146   5.855   0.969  10.186 -3.8632  0.4122  0.3742
  177SOPE   C2820147   5.871   1.170  10.239  0.1919 -0.5552  0.1673
  177SOPE   H8R20148   5.785   1.179  10.169  2.1196  0.8312 -2.1768
  177SOPE   H8S20149   5.838   1.238  10.320 -1.2128 -0.1441 -0.7158
  177SOPE   C2920150   6.002   1.204  10.167  0.0081  0.9798 -0.4137
  177SOPE   H9120151   6.076   1.237  10.241  0.1930 -2.4278  1.1302
  177SOPE  C21020152   6.029   1.192  10.032  0.9198  0.5289 -0.4857
  177SOPE  H10120153   6.129   1.215   9.993  1.5492 -1.1985  0.0156
  177SOPE  C21120154   5.934   1.134   9.932 -0.2609  0.1283  0.4417
  177SOPE  H11R20155   5.878   1.055   9.987  0.2283 -0.0680  0.6669
  177SOPE  H11S20156   6.006   1.083   9.865 -0.4316  1.2162 -0.6125
  177SOPE  C21220157   5.837   1.226   9.862 -0.6714  0.3542 -0.5907
  177SOPE  H12R20158   5.768   1.283   9.929  1.3158  2.2181 -0.0381
  177SOPE  H12S20159   5.774   1.165   9.794  1.4758 -2.4496 -0.2129
  177SOPE  C21320160   5.898   1.346   9.783 -0.4172 -0.5509 -0.1758
  177SOPE  H13R20161   5.955   1.412   9.852 -1.1663  0.5342 -0.5787
  177SOPE  H13S20162   5.817   1.417   9.759 -3.2067 -3.2484  0.6195
  177SOPE  C21420163   5.985   1.307   9.665  0.3413  0.1778  0.6224
  177SOPE  H14R20164   6.077   1.264   9.709  0.3789 -1.0099 -0.5577
  177SOPE  H14S20165   6.010   1.402   9.613 -1.6258 -0.3332 -1.4130
  177SOPE  C21520166   5.916   1.227   9.563  0.5070  0.6097 -0.6380
  177SOPE  H15R20167   5.809   1.253   9.547  0.2525  0.4338  0.6774
  177SOPE  H15S20168   5.919   1.119   9.587 -0.0316  0.4992 -1.0482
  177SOPE  C21620169   5.986   1.235   9.424  0.4109 -0.5752 -0.4594
  177SOPE  H16R20170   6.092   1.207   9.442  1.0514  2.3812  1.0040
  177SOPE  H16S20171   5.983   1.341   9.392 -1.3457 -0.2183  0.7599
  177SOPE  C21720172   5.931   1.137   9.322 -0.8298 -0.0048  0.0857
  177SOPE  H17R20173   5.824   1.167   9.323 -1.5982 -2.1063 -3.2793
  177SOPE  H17S20174   5.930   1.031   9.355 -2.1294  0.3242  1.2007
  177SOPE  C21820175   5.984   1.167   9.188  0.0783  0.1108  0.0703
  177SOPE  H18R20176   5.954   1.086   9.119  3.3065  0.1438 -1.5455
  177SOPE  H18S20177   6.094   1.176   9.179 -0.0301  0.4101 -1.0618
  177SOPE  H18T20178   5.947   1.267   9.154  0.1096 -0.4696 -1.8007
  177SOPE   C3320179   5.612   0.354  10.079 -0.1184  0.0206 -0.3893
  177SOPE   H3X20180   5.557   0.258  10.063  0.8644 -0.4464 -1.0621
  177SOPE   H3Y20181   5.718   0.322  10.067 -0.2939 -0.2085 -1.4663
  177SOPE   C3420182   5.582   0.445   9.966 -0.8056 -0.1316  0.4061
  177SOPE   H4X20183   5.633   0.544   9.975 -0.7722  0.0147 -1.0354
  177SOPE   H4Y20184   5.474   0.469   9.969 -1.0091 -1.0336  0.5422
  177SOPE   C3520185   5.603   0.386   9.820 -0.0787 -0.3659  0.3235
  177SOPE   H5X20186   5.522   0.313   9.794 -0.7658  0.4886  0.0283
  177SOPE   H5Y20187   5.698   0.328   9.824 -0.5206 -1.0997  0.5363
  177SOPE   C3620188   5.604   0.504   9.729 -0.1614 -0.4945  0.4798
  177SOPE   H6X20189   5.669   0.581   9.774  0.7579  0.6079 -2.4749
  177SOPE   H6Y20190   5.498   0.535   9.718 -0.7005 -1.8270  1.5409
  177SOPE   C3720191   5.654   0.470   9.588 -0.1992  0.2724  0.4545
  177SOPE   H7X20192   5.737   0.399   9.608  0.1519  0.3034 -0.8301
  177SOPE   H7Y20193   5.701   0.561   9.545 -0.2568 -0.0046 -0.1969
  177SOPE   C3820194   5.554   0.406   9.492 -0.1208  0.2281 -0.7634
  177SOPE   H8X20195   5.492   0.495   9.467  3.6076  3.4112  0.4910
  177SOPE   H8Y20196   5.485   0.326   9.528  0.2661 -0.3342 -1.2555
  177SOPE   C3920197   5.626   0.347   9.365 -0.0358 -0.0061 -0.8177
  177SOPE   H9X20198   5.550   0.285   9.313 -1.4073  1.6954 -0.9292
  177SOPE   H9Y20199   5.705   0.271   9.386  1.2706  0.3019 -4.0661
  177SOPE  C31020200   5.684   0.440   9.259  0.2756  0.4466 -0.4559
  177SOPE  H10X20201   5.759   0.500   9.313 -3.1242  2.8806  2.0021
  177SOPE  H10Y20202   5.599   0.504   9.226 -0.8343 -0.1009  1.2176
  177SOPE  C31120203   5.757   0.349   9.152 -0.0765  0.1417  0.2225
  177SOPE  H11X20204   5.679   0.278   9.121  0.5904 -0.1516 -0.8431
  177SOPE  H11Y20205   5.849   0.309   9.199 -0.5339 -0.7931  0.3258
  177SOPE  C31220206   5.784   0.433   9.027  0.4417  0.0654  0.3041
  177SOPE  H12X20207   5.840   0.526   9.050 -2.8552  2.2984 -0.0302
  177SOPE  H12Y20208   5.686   0.479   9.001 -0.1618 -1.5751 -0.5071
  177SOPE  C31320209   5.849   0.360   8.912  0.1087  0.0091  0.3411
  177SOPE  H13X20210   5.829   0.252   8.932 -0.6371  0.2557  0.9896
  177SOPE  H13Y20211   5.958   0.375   8.919  0.2439 -0.4248 -0.6014
  177SOPE  C31420212   5.783   0.402   8.775 -0.1311 -0.7218 -0.4772
  177SOPE  H14X20213   5.758   0.510   8.770 -3.2318 -1.3977 -2.4940
  177SOPE  H14Y20214   5.688   0.344   8.780 -0.9627  0.6835  0.5105
  177SOPE  C31520215   5.842   0.350   8.648 -0.6443  0.8847  0.3084
  177SOPE  H15X20216   5.933   0.404   8.615 -1.0653  0.9684 -0.7564
  177SOPE  H15Y20217   5.774   0.349   8.560 -0.0128 -0.8500 -0.2011
  177SOPE  C31620218   5.877   0.195   8.673  0.8776 -0.1958  0.3359
  177SOPE  H16X20219   5.792   0.156   8.732 -0.1758  1.8613  0.2493
  177SOPE  H16Y20220   5.976   0.183   8.723  1.6302  0.3187 -0.9825
  177SOPE  C31720221   5.877   0.115   8.540 -0.3386  0.5998  0.7094
  177SOPE  H17X20222   5.771   0.112   8.507 -0.3965 -1.6226  0.9773
  177SOPE  H17Y20223   5.907   0.011   8.563 -2.6290 -0.1676  0.4040
  177SOPE  C31820224   5.973   0.168   8.437  0.4447  0.9737  0.1484
  177SOPE  H18X20225   5.952   0.271   8.400 -0.4210  1.3473  1.5899
  177SOPE  H18Y20226   5.967   0.096   8.352  1.9957  1.3251 -0.2765
  177SOPE  H18Z20227   6.080   0.164   8.467  0.9308  1.1293 -1.4735
  178SOPE     N20228   3.064   3.673  10.790  0.6230 -0.2172 -0.6790
  178SOPE   HN120229   3.050   3.717  10.697 -0.1436 -0.8279 -0.8621
  178SOPE   HN220230   3.131   3.728  10.848  0.2510 -0.9832  0.5281
  178SOPE   HN320231   3.100   3.579  10.765 -0.7707 -0.2300 -2.7890
  178SOPE   C1220232   2.937   3.663  10.866 -0.2006  0.0602 -0.6871
  178SOPE  H12A20233   2.937   3.583  10.943 -2.7660  0.9746  0.3821
  178SOPE  H12B20234   2.860   3.636  10.791  0.5914 -0.5891 -1.2851
  178SOPE   C1120235   2.887   3.803  10.915  0.5826 -0.4018  0.4780
  178SOPE  H11A20236   2.958   3.835  10.995  1.8034  1.4525 -1.2249
  178SOPE  H11B20237   2.781   3.802  10.946  0.9417  0.5616  1.8439
  178SOPE     P20238   2.775   3.939  10.724  0.2593  0.1678  0.7605
  178SOPE   O1320239   2.724   4.071  10.765  0.4999 -0.5704 -0.3511
  178SOPE   O1420240   2.672   3.834  10.712  0.0916 -0.0760  0.1614
  178SOPE   O1220241   2.897   3.894  10.809 -0.1988  0.4717 -0.5233
  178SOPE   O1120242   2.857   3.942  10.591  0.3197  0.0726  0.6432
  178SOPE    C120243   2.782   3.987  10.474 -0.1854 -0.7636  0.5063
  178SOPE    HA20244   2.854   3.987  10.390 -1.3731  0.2418 -0.5506
  178SOPE    HB20245   2.755   4.094  10.493 -0.7328 -0.9448  0.7548
  178SOPE    C220246   2.659   3.916  10.427  0.5916 -0.3926  0.8146
  178SOPE    HS20247   2.579   3.917  10.504  0.3521  1.9637  0.6058
  178SOPE   O2120248   2.692   3.778  10.390  0.1282  0.5222  0.3294
  178SOPE   C2120249   2.614   3.677  10.434 -0.2169 -0.7091  0.6903
  178SOPE   O2220250   2.522   3.688  10.510  0.0538  0.2763 -0.1287
  178SOPE   C2220251   2.674   3.552  10.372  0.6961 -0.4680 -0.8338
  178SOPE   H2R20252   2.632   3.468  10.432 -0.6459  0.6415 -0.1520
  178SOPE   H2S20253   2.781   3.562  10.398  0.6510 -1.8555 -0.0366
  178SOPE    C320254   2.606   3.975  10.294 -0.0972 -0.0724  0.3034
  178SOPE    HX20255   2.561   4.073  10.324  0.1543 -0.1840  1.0634
  178SOPE    HY20256   2.523   3.908  10.262  0.0282 -0.8666  1.5646
  178SOPE   O3120257   2.711   3.989  10.194 -0.0222 -0.0214 -0.4601
  178SOPE   C3120258   2.667   4.008  10.068  1.0436  0.8571  0.3711
  178SOPE   O3220259   2.552   4.002  10.030  0.6511  0.5407  0.1541
  178SOPE   C3220260   2.788   4.034   9.983  0.4578  0.6187  0.4184
  178SOPE   H2X20261   2.880   3.975  10.006  1.1691  1.5814  0.0887
  178SOPE   H2Y20262   2.819   4.140   9.998  1.0408  0.5931 -0.5336
  178SOPE   C2320263   2.640   3.530  10.224  0.6424  0.2731 -0.1819
  178SOPE   H3R20264   2.717   3.455  10.194  0.8467 -0.9764  3.0939
  178SOPE   H3S20265   2.635   3.618  10.156 -2.7509  0.9543  0.7583
  178SOPE   C2420266   2.502   3.470  10.205  0.0378 -0.5623 -0.1662
  178SOPE   H4R20267   2.469   3.409  10.292 -0.4449 -1.8714 -1.2295
  178SOPE   H4S20268   2.431   3.555  10.208  1.2411  0.4486  1.1483
  178SOPE   C2520269   2.493   3.405  10.064 -0.2234  0.1897  0.3060
  178SOPE   H5R20270   2.539   3.304  10.067 -0.0970  0.1970 -0.9817
  178SOPE   H5S20271   2.391   3.406  10.020 -0.4990  0.6572  0.9298
  178SOPE   C2620272   2.559   3.486   9.951 -0.4459  0.2094  0.3155
  178SOPE   H6R20273   2.505   3.581   9.930  0.2104  0.8883  1.5927
  178SOPE   H6S20274   2.664   3.505   9.980 -0.5244 -0.6805  1.2429
  178SOPE   C2720275   2.566   3.403   9.818 -0.2609  0.1819  0.2263
  178SOPE   H7R20276   2.625   3.316   9.852  0.9745  1.5205  1.6279
  178SOPE   H7S20277   2.471   3.360   9.779  0.1411 -1.1968  0.6965
  178SOPE   C2820278   2.635   3.472   9.694  0.0730 -0.1508  0.6750
  178SOPE   H8R20279   2.566   3.549   9.654  1.1587 -0.3859 -1.8720
  178SOPE   H8S20280   2.728   3.513   9.738 -0.7005  1.0776  1.2205
  178SOPE   C2920281   2.681   3.365   9.604 -0.2398 -0.7514  0.5556
  178SOPE   H9120282   2.744   3.284   9.644 -1.2440 -1.5583  0.5544
  178SOPE  C21020283   2.646   3.357   9.475  0.1425 -0.8026 -0.4752
  178SOPE  H10120284   2.680   3.267   9.422 -0.3042 -0.4263 -1.4292
  178SOPE  C21120285   2.563   3.450   9.385  0.0528  0.1079  0.3450
  178SOPE  H11R20286   2.613   3.452   9.287  0.9956  3.1974  0.8044
  178SOPE  H11S20287   2.572   3.552   9.428  0.3208  0.4516 -0.5247
  178SOPE  C21220288   2.416   3.411   9.371  0.2462  0.1535  0.2445
  178SOPE  H12R20289   2.368   3.424   9.471 -1.0126 -0.4294 -0.2635
  178SOPE  H12S20290   2.412   3.303   9.345  2.2664  0.3607 -1.1262
  178SOPE  C21320291   2.345   3.486   9.258  0.0533  0.2834 -0.1819
  178SOPE  H13R20292   2.406   3.471   9.167 -0.7401  0.0121 -0.6839
  178SOPE  H13S20293   2.344   3.594   9.287 -0.4219  0.6776 -1.5832
  178SOPE  C21420294   2.201   3.445   9.222 -0.3257  0.5303 -0.1699
  178SOPE  H14R20295   2.123   3.459   9.299  0.6852 -1.2835  1.2715
  178SOPE  H14S20296   2.209   3.334   9.216 -0.6278  0.3834  1.7480
  178SOPE  C21520297   2.153   3.496   9.082  0.3630 -0.1445 -0.3505
  178SOPE  H15R20298   2.047   3.461   9.076  0.0193  0.6139  0.9767
  178SOPE  H15S20299   2.210   3.457   8.995 -1.8337  1.5681 -2.7470
  178SOPE  C21620300   2.177   3.650   9.060 -0.3023  0.3755  0.3771
  178SOPE  H16R20301   2.285   3.675   9.056  0.5518 -2.8548 -2.8119
  178SOPE  H16S20302   2.138   3.694   9.154  0.1609 -1.2591  1.3611
  178SOPE  C21720303   2.097   3.709   8.947 -0.5830  0.2741 -0.6606
  178SOPE  H17R20304   2.125   3.659   8.852  0.8372  1.3190 -0.8164
  178SOPE  H17S20305   2.141   3.810   8.937  1.2743 -0.3776  0.4887
  178SOPE  C21820306   1.951   3.690   8.987  0.0014  0.5176 -0.0433
  178SOPE  H18R20307   1.903   3.778   8.938 -1.2604  0.2897  0.7533
  178SOPE  H18S20308   1.920   3.705   9.092 -1.2930  1.6370 -0.5534
  178SOPE  H18T20309   1.919   3.593   8.945  3.2394 -0.0838 -1.4699
  178SOPE   C3320310   2.757   4.020   9.825 -0.2098 -0.1152  0.5316
  178SOPE   H3X20311   2.847   4.068   9.781  0.0564  0.4783  1.6942
  178SOPE   H3Y20312   2.667   4.085   9.815 -0.2861 -0.3635 -0.5351
  178SOPE   C3420313   2.733   3.880   9.770 -0.5080  1.3687  0.4575
  178SOPE   H4X20314   2.639   3.844   9.817 -0.0237  1.3163  1.4214
  178SOPE   H4Y20315   2.818   3.809   9.772 -0.9364  0.6960 -2.0257
  178SOPE   C3520316   2.695   3.903   9.622 -0.5949  0.3544  0.0060
  178SOPE   H5X20317   2.762   3.985   9.588  0.2777 -0.3076  0.0921
  178SOPE   H5Y20318   2.593   3.943   9.605 -0.3555  0.3075 -1.6748
  178SOPE   C3620319   2.728   3.789   9.526  0.1394  0.3558 -0.1366
  178SOPE   H6X20320   2.648   3.713   9.543 -0.2064  0.6983 -0.2058
  178SOPE   H6Y20321   2.823   3.741   9.558 -0.0420  1.7177  2.7233
  178SOPE   C3720322   2.716   3.818   9.377 -0.6725  0.8290  0.2852
  178SOPE   H7X20323   2.717   3.722   9.322  2.6721  0.1564  1.2762
  178SOPE   H7Y20324   2.808   3.872   9.344  0.1233 -0.0284  1.0532
  178SOPE   C3820325   2.607   3.911   9.341 -0.4078 -0.2719  0.3625
  178SOPE   H8X20326   2.640   4.013   9.370 -1.0540  0.2504 -0.6681
  178SOPE   H8Y20327   2.509   3.897   9.390 -0.1083  1.4729  1.5788
  178SOPE   C3920328   2.592   3.910   9.188  0.0506 -0.4943 -0.5900
  178SOPE   H9X20329   2.555   3.809   9.162  0.2625 -0.7215 -0.0289
  178SOPE   H9Y20330   2.692   3.935   9.146  1.2188 -3.8685 -0.1573
  178SOPE  C31020331   2.474   3.994   9.143  0.3958 -0.2835  0.1107
  178SOPE  H10X20332   2.492   4.099   9.172  0.6728 -0.4646  0.6118
  178SOPE  H10Y20333   2.376   3.963   9.187 -0.0691  0.3838 -0.4316
  178SOPE  C31120334   2.446   3.992   8.986 -0.2027 -0.5278 -1.5543
  178SOPE  H11X20335   2.449   3.883   8.966  0.0950 -0.9708  0.5831
  178SOPE  H11Y20336   2.536   4.037   8.941  1.0527  0.3049  1.5052
  178SOPE  C31220337   2.307   4.040   8.943  0.4146 -0.0582 -0.1272
  178SOPE  H12X20338   2.304   4.150   8.949 -1.0796 -0.0884  0.1119
  178SOPE  H12Y20339   2.227   4.000   9.009 -1.5637 -0.3432 -2.5332
  178SOPE  C31320340   2.284   3.997   8.800 -0.3542  0.5436 -0.2705
  178SOPE  H13X20341   2.277   3.888   8.781 -1.3311  0.5955 -0.2280
  178SOPE  H13Y20342   2.378   4.025   8.747  1.1738 -0.6071  1.6705
  178SOPE  C31420343   2.168   4.069   8.734  0.9605 -0.0249  0.0246
  178SOPE  H14X20344   2.153   4.033   8.630  1.1892  1.5218 -0.5677
  178SOPE  H14Y20345   2.185   4.179   8.730 -0.4732  0.1890 -0.8164
  178SOPE  C31520346   2.038   4.034   8.807 -0.1881 -0.4687 -0.3719
  178SOPE  H15X20347   2.042   4.035   8.918 -0.2842  0.9076 -0.3740
  178SOPE  H15Y20348   2.012   3.929   8.779  2.3299 -1.1408 -0.4733
  178SOPE  C31620349   1.926   4.131   8.753 -0.4497  0.0822  0.1748
  178SOPE  H16X20350   1.829   4.081   8.774 -0.2300 -1.0968 -1.4616
  178SOPE  H16Y20351   1.924   4.125   8.643  0.9998 -1.6175  0.1927
  178SOPE  C31720352   1.943   4.275   8.802  0.8937  0.6255  0.5227
  178SOPE  H17X20353   2.044   4.317   8.782  2.1444 -1.9160  1.1125
  178SOPE  H17Y20354   1.922   4.280   8.911  2.6239  2.4200  0.8213
  178SOPE  C31820355   1.835   4.365   8.734 -0.9282 -0.0127 -0.2011
  178SOPE  H18X20356   1.845   4.472   8.761  0.0626  0.4296 -2.0999
  178SOPE  H18Y20357   1.736   4.334   8.772 -0.3387 -0.7011  0.7942
  178SOPE  H18Z20358   1.836   4.347   8.624  1.8945 -2.0690  0.0491
  179SOPE     N20359   2.511   5.639   6.495 -0.6017  0.3661 -0.1373
  179SOPE   HN120360   2.467   5.553   6.457  0.2704 -0.6098  0.9819
  179SOPE   HN220361   2.513   5.719   6.428  0.2694  2.1387  1.8905
  179SOPE   HN320362   2.607   5.615   6.528 -0.9744 -1.4910 -0.2924
  179SOPE   C1220363   2.420   5.693   6.603  0.0054  0.3916  0.0785
  179SOPE  H12A20364   2.470   5.778   6.655 -2.4450  1.6928  0.4343
  179SOPE  H12B20365   2.410   5.615   6.681  0.7394  1.5321  1.3710
  179SOPE   C1120366   2.287   5.742   6.553 -0.0635 -0.5570  0.5689
  179SOPE  H11A20367   2.309   5.835   6.497 -0.0651 -0.7819  0.1960
  179SOPE  H11B20368   2.232   5.775   6.644  0.5881  1.5899  0.2532
  179SOPE     P20369   2.081   5.646   6.428 -0.1478  0.1466 -0.6164
  179SOPE   O1320370   2.040   5.573   6.305  0.0176 -0.5069 -0.0857
  179SOPE   O1420371   2.033   5.783   6.426 -0.0011  0.1197 -0.5088
  179SOPE   O1220372   2.233   5.645   6.468  0.1360  0.2818  0.5736
  179SOPE   O1120373   2.017   5.570   6.549  0.0700  0.3756 -0.0658
  179SOPE    C120374   2.075   5.450   6.607  0.0022  0.2873  0.3737
  179SOPE    HA20375   2.185   5.456   6.597  0.1507  0.9517  2.0838
  179SOPE    HB20376   2.039   5.358   6.556  0.6175  0.4879 -0.4424
  179SOPE    C220377   2.070   5.434   6.764  0.8038 -0.1477  0.4718
  179SOPE    HS20378   1.962   5.437   6.787  0.8348 -1.8992  0.9593
  179SOPE   O2120379   2.140   5.549   6.820 -0.0904  0.3761  0.5271
  179SOPE   C2120380   2.094   5.599   6.934 -0.2348  0.0955  0.4635
  179SOPE   O2220381   1.986   5.570   6.986 -0.0843  0.0893 -0.7734
  179SOPE   C2220382   2.193   5.699   6.989  0.1346  0.7001  0.1420
  179SOPE   H2R20383   2.158   5.801   6.962  4.3463  1.6450 -2.8000
  179SOPE   H2S20384   2.289   5.685   6.934 -0.4429  0.5134 -0.8218
  179SOPE    C320385   2.147   5.301   6.805  0.5224  0.3766  0.0202
  179SOPE    HX20386   2.255   5.323   6.792  0.4625  0.9825  0.4765
  179SOPE    HY20387   2.109   5.225   6.735  0.6154 -0.0703  0.4467
  179SOPE   O3120388   2.117   5.260   6.946 -0.0225  0.2866  0.1421
  179SOPE   C3120389   2.220   5.261   7.030 -0.3800  0.2563 -0.0718
  179SOPE   O3220390   2.332   5.306   7.006  0.6020  0.1339 -0.2856
  179SOPE   C3220391   2.169   5.203   7.163  0.0714 -0.6830  0.4601
  179SOPE   H2X20392   2.217   5.104   7.177 -1.1087 -0.9140  3.5237
  179SOPE   H2Y20393   2.060   5.216   7.180 -0.3122  1.8372 -2.8088
  179SOPE   C2320394   2.196   5.697   7.143  0.3949 -0.4437  0.0046
  179SOPE   H3R20395   2.214   5.589   7.162  1.0661 -0.7012 -1.9070
  179SOPE   H3S20396   2.091   5.713   7.177 -0.2703 -0.1863 -2.0275
  179SOPE   C2420397   2.298   5.796   7.199  0.4270  0.4648  0.9347
  179SOPE   H4R20398   2.390   5.760   7.148 -1.0595 -0.3157 -1.3899
  179SOPE   H4S20399   2.269   5.896   7.162  0.8666  0.7958  1.4758
  179SOPE   C2520400   2.323   5.783   7.347  0.2762  1.0258 -0.7653
  179SOPE   H5R20401   2.398   5.858   7.377 -0.0137  0.1607  2.4169
  179SOPE   H5S20402   2.226   5.815   7.392  0.2707 -0.9861  0.7769
  179SOPE   C2620403   2.360   5.648   7.412  0.3227 -0.2886 -0.3558
  179SOPE   H6R20404   2.290   5.571   7.371 -0.3695 -0.8378  1.7146
  179SOPE   H6S20405   2.460   5.612   7.379  1.4973  0.4166  2.1794
  179SOPE   C2720406   2.358   5.648   7.563  0.1654  0.3648  0.2467
  179SOPE   H7R20407   2.253   5.630   7.593 -0.0518  1.0295 -0.1146
  179SOPE   H7S20408   2.422   5.567   7.604  2.5936  2.4397  0.8119
  179SOPE   C2820409   2.408   5.781   7.619 -0.1262  0.3665 -0.4753
  179SOPE   H8R20410   2.500   5.822   7.572 -0.6556  0.8793 -1.0894
  179SOPE   H8S20411   2.333   5.862   7.608  0.4624  0.7413 -1.9879
  179SOPE   C2920412   2.437   5.767   7.768 -0.4488  0.9892 -0.3415
  179SOPE   H9120413   2.538   5.741   7.805 -1.5165  0.0476  2.1440
  179SOPE  C21020414   2.348   5.781   7.875 -0.2713 -0.6061 -0.1100
  179SOPE  H10120415   2.391   5.780   7.976 -0.1169  3.3921  0.0246
  179SOPE  C21120416   2.201   5.812   7.861 -0.1906  0.0859  0.5506
  179SOPE  H11R20417   2.171   5.812   7.754 -1.1202 -2.5853  0.7300
  179SOPE  H11S20418   2.183   5.911   7.907  0.1056 -0.0278  0.9221
  179SOPE  C21220419   2.096   5.715   7.921 -0.1348  0.5232 -0.2586
  179SOPE  H12R20420   2.096   5.609   7.888 -1.8396  0.0777  1.0088
  179SOPE  H12S20421   1.997   5.759   7.897 -0.1637  1.1106  0.8394
  179SOPE  C21320422   2.074   5.717   8.073  0.0667 -0.3997  0.1964
  179SOPE  H13R20423   2.058   5.821   8.110 -0.2336 -1.1280  2.2400
  179SOPE  H13S20424   2.162   5.668   8.119 -0.9841 -4.5825 -1.7186
  179SOPE  C21420425   1.947   5.632   8.101  0.3216 -0.0750  0.7643
  179SOPE  H14R20426   1.968   5.526   8.075 -4.4954 -0.9183 -0.8421
  179SOPE  H14S20427   1.859   5.663   8.041 -0.4299 -1.7181  0.9494
  179SOPE  C21520428   1.908   5.657   8.243  0.5818 -0.3682 -0.7299
  179SOPE  H15R20429   1.806   5.613   8.248  0.1861  0.6522  0.4919
  179SOPE  H15S20430   1.904   5.765   8.270  0.4965 -0.2366 -1.2559
  179SOPE  C21620431   1.989   5.572   8.344  0.1223  0.1132 -0.6451
  179SOPE  H16R20432   2.034   5.484   8.294 -1.4494 -1.1493  0.0847
  179SOPE  H16S20433   1.909   5.542   8.415  1.7854 -1.8280  0.5275
  179SOPE  C21720434   2.089   5.662   8.413 -0.7745  0.0668  0.6287
  179SOPE  H17R20435   2.137   5.721   8.332 -0.8978 -0.6380  0.0305
  179SOPE  H17S20436   2.168   5.588   8.440 -0.2648 -0.3631 -1.7808
  179SOPE  C21820437   2.030   5.739   8.527  0.1722 -0.0712  0.0847
  179SOPE  H18R20438   1.964   5.823   8.497  0.9613  0.5333 -0.0081
  179SOPE  H18S20439   2.105   5.793   8.589 -0.2850 -0.5306  1.0648
  179SOPE  H18T20440   1.973   5.676   8.598 -1.1222  1.2222  0.2496
  179SOPE   C3320441   2.249   5.275   7.272  0.0087 -0.0660  0.0416
  179SOPE   H3X20442   2.226   5.383   7.277 -0.1482 -0.1611  1.9100
  179SOPE   H3Y20443   2.358   5.275   7.248 -0.5314  0.2340 -2.8780
  179SOPE   C3420444   2.225   5.213   7.407  0.1725  0.3501 -0.3831
  179SOPE   H4X20445   2.284   5.121   7.422 -0.8952  0.0342  2.3754
  179SOPE   H4Y20446   2.116   5.195   7.411  0.3472 -1.1125 -1.2560
  179SOPE   C3520447   2.254   5.300   7.530 -0.5559 -0.4319 -0.5340
  179SOPE   H5X20448   2.184   5.386   7.533  0.6401  0.5452  0.5478
  179SOPE   H5Y20449   2.359   5.336   7.531 -1.0291  1.0200  0.6256
  179SOPE   C3620450   2.223   5.226   7.668  0.0134  0.2388 -0.1817
  179SOPE   H6X20451   2.306   5.153   7.684  0.0675 -0.1604 -1.9899
  179SOPE   H6Y20452   2.124   5.176   7.664  0.9362 -1.9755  2.0419
  179SOPE   C3720453   2.227   5.333   7.785  0.7635  0.1168 -0.4851
  179SOPE   H7X20454   2.130   5.387   7.779 -1.1866 -3.2172 -1.6556
  179SOPE   H7Y20455   2.314   5.398   7.764  2.2014 -1.2360  0.9729
  179SOPE   C3820456   2.240   5.265   7.924  0.9102 -0.0688  0.2876
  179SOPE   H8X20457   2.336   5.209   7.920  1.0826  0.2748 -0.9427
  179SOPE   H8Y20458   2.159   5.191   7.937  0.2797  0.8019  1.4570
  179SOPE   C3920459   2.243   5.368   8.038 -0.7145  0.1130  0.3408
  179SOPE   H9X20460   2.152   5.431   8.052 -0.8774  0.0049 -0.2418
  179SOPE   H9Y20461   2.337   5.426   8.028 -0.4119 -0.4395 -0.0709
  179SOPE  C31020462   2.258   5.301   8.174 -0.2563 -0.3055 -0.4455
  179SOPE  H10X20463   2.161   5.250   8.195 -0.3073 -0.0377 -0.0153
  179SOPE  H10Y20464   2.250   5.390   8.240 -0.4395  0.8068 -1.9281
  179SOPE  C31120465   2.386   5.221   8.196  0.4288 -0.3083 -0.1236
  179SOPE  H11X20466   2.477   5.279   8.170 -0.0171 -0.9956 -3.7501
  179SOPE  H11Y20467   2.391   5.131   8.132 -1.8614 -0.3341 -0.3215
  179SOPE  C31220468   2.380   5.174   8.341 -0.2641  0.0006 -0.2482
  179SOPE  H12X20469   2.321   5.083   8.364  1.2628 -0.6036  1.6347
  179SOPE  H12Y20470   2.330   5.252   8.404 -1.3853  0.3306 -1.5042
  179SOPE  C31320471   2.521   5.145   8.405  0.2560  0.6918  0.0630
  179SOPE  H13X20472   2.600   5.211   8.363  0.9370  0.6169  1.2004
  179SOPE  H13Y20473   2.537   5.040   8.376 -2.0272  0.1381  0.5864
  179SOPE  C31420474   2.508   5.161   8.562 -0.3946 -1.2987 -0.0328
  179SOPE  H14X20475   2.414   5.119   8.603 -1.4272 -0.3677 -1.3516
  179SOPE  H14Y20476   2.514   5.272   8.572  3.2920 -1.3293 -0.5377
  179SOPE  C31520477   2.635   5.115   8.640  0.3639 -0.2271 -0.5352
  179SOPE  H15X20478   2.725   5.153   8.587 -0.2497  0.6021 -0.9898
  179SOPE  H15Y20479   2.649   5.005   8.640  2.9416 -0.0202  1.7939
  179SOPE  C31620480   2.641   5.166   8.788  0.0869  0.0503  0.2664
  179SOPE  H16X20481   2.702   5.094   8.847  1.3145  1.1753  0.4325
  179SOPE  H16Y20482   2.540   5.152   8.831  0.5344 -1.2080  0.9717
  179SOPE  C31720483   2.690   5.311   8.812  0.5873  0.1612  0.4790
  179SOPE  H17X20484   2.618   5.373   8.755  0.9092 -0.6910 -0.8973
  179SOPE  H17Y20485   2.792   5.320   8.770  0.3571 -3.0748 -1.0832
  179SOPE  C31820486   2.687   5.339   8.960 -0.4445  0.0152  0.1815
  179SOPE  H18X20487   2.718   5.444   8.976 -1.6015  0.4804 -0.4342
  179SOPE  H18Y20488   2.762   5.284   9.020 -1.2936 -1.9769 -0.4911
  179SOPE  H18Z20489   2.591   5.316   9.013  0.4710  0.2111  1.9927
  180SOPE     N20490   1.746   4.598   6.229 -0.0006 -0.3853 -0.1892
  180SOPE   HN120491   1.782   4.505   6.198 -2.8583 -1.5354 -0.3396
  180SOPE   HN220492   1.775   4.613   6.328  0.1999  2.4893 -0.5829
  180SOPE   HN320493   1.642   4.594   6.222 -0.0295 -2.5027  0.8699
  180SOPE   C1220494   1.810   4.706   6.143  0.5088  0.0671 -0.1650
  180SOPE  H12A20495   1.783   4.687   6.037  2.2994  1.2178 -0.8592
  180SOPE  H12B20496   1.920   4.705   6.162  0.6327 -0.7024 -0.8494
  180SOPE   C1120497   1.747   4.845   6.176 -0.1720 -0.1412 -0.5234
  180SOPE  H11A20498   1.636   4.850   6.169 -0.2080 -0.0204  0.0811
  180SOPE  H11B20499   1.804   4.913   6.110  0.9385  1.1304  1.6186
  180SOPE     P20500   1.877   4.988   6.370  0.1529  0.1663  0.1717
  180SOPE   O1320501   1.874   5.121   6.302  0.1235  0.1526 -0.8014
  180SOPE   O1420502   2.011   4.926   6.370  0.0775  0.1329  0.7841
  180SOPE   O1220503   1.774   4.886   6.315 -0.4761  0.1535  0.4623
  180SOPE   O1120504   1.838   5.007   6.518  0.2711 -0.4928 -0.0280
  180SOPE    C120505   1.773   4.906   6.590  0.0010  0.4059  0.1021
  180SOPE    HA20506   1.819   4.805   6.600  0.1877  0.6558  2.3271
  180SOPE    HB20507   1.679   4.880   6.536  0.9167 -0.5436 -1.0923
  180SOPE    C220508   1.733   4.958   6.728  0.4667  0.1280  0.4637
  180SOPE    HS20509   1.784   4.889   6.799  1.2253  2.8698  2.7844
  180SOPE   O2120510   1.599   4.949   6.737  0.4393 -0.1570 -0.6724
  180SOPE   C2120511   1.542   4.918   6.861  0.5009 -0.4035  0.3413
  180SOPE   O2220512   1.599   4.888   6.965  1.0633 -0.0691  0.9901
  180SOPE   C2220513   1.383   4.926   6.852 -0.6355 -0.0416 -0.4441
  180SOPE   H2R20514   1.354   4.898   6.748 -1.0020 -0.4279 -0.2404
  180SOPE   H2S20515   1.354   5.033   6.861  2.3145  0.6548  2.4371
  180SOPE    C320516   1.780   5.105   6.750 -0.0143  0.3688  0.0738
  180SOPE    HX20517   1.739   5.152   6.658  1.4297  0.1648 -0.7172
  180SOPE    HY20518   1.891   5.111   6.748 -0.0748  1.5898 -0.7197
  180SOPE   O3120519   1.730   5.176   6.865 -0.1506 -0.1840 -0.3321
  180SOPE   C3120520   1.781   5.133   6.974  0.6211 -0.0558 -0.6320
  180SOPE   O3220521   1.870   5.054   6.987 -0.2618  0.1042 -0.2426
  180SOPE   C3220522   1.727   5.227   7.085 -0.0766 -0.2119  0.0972
  180SOPE   H2X20523   1.661   5.304   7.041  1.1622  2.2213  2.1693
  180SOPE   H2Y20524   1.808   5.295   7.120  1.3770 -1.6664 -0.3155
  180SOPE   C2320525   1.307   4.832   6.941  0.3391 -0.1300 -0.2376
  180SOPE   H3R20526   1.361   4.737   6.961  2.9776  1.5988  1.4705
  180SOPE   H3S20527   1.216   4.802   6.884  0.6375  0.4785 -1.0656
  180SOPE   C2420528   1.279   4.887   7.085  0.6194  0.2374  0.4480
  180SOPE   H4R20529   1.230   4.800   7.134 -0.1358  0.1255 -0.4865
  180SOPE   H4S20530   1.374   4.896   7.142  1.2830  1.3199 -0.7696
  180SOPE   C2520531   1.187   5.002   7.100 -0.3139 -1.0214  0.3957
  180SOPE   H5R20532   1.241   5.096   7.075 -2.2955  0.4004  1.1729
  180SOPE   H5S20533   1.102   4.992   7.030 -0.5795  0.1419  0.5266
  180SOPE   C2620534   1.148   5.014   7.248  0.0731 -0.5390  0.4521
  180SOPE   H6R20535   1.079   5.101   7.261 -0.4968 -1.3580  3.6177
  180SOPE   H6S20536   1.100   4.919   7.278 -0.2475 -0.1846  1.0768
  180SOPE   C2720537   1.266   5.036   7.350  0.6840 -0.0224 -0.2178
  180SOPE   H7R20538   1.317   4.937   7.357  1.9660  0.7286  1.9709
  180SOPE   H7S20539   1.320   5.122   7.305 -1.8801  3.7185  3.2159
  180SOPE   C2820540   1.221   5.074   7.492  0.0678 -0.3384  0.2535
  180SOPE   H8R20541   1.181   5.178   7.488 -2.5640 -1.2957 -0.1216
  180SOPE   H8S20542   1.142   5.002   7.522  0.4814 -1.1830 -0.6570
  180SOPE   C2920543   1.326   5.064   7.598  0.6222  0.0663  0.6220
  180SOPE   H9120544   1.428   5.095   7.573  0.6018 -0.5494 -0.2627
  180SOPE  C21020545   1.292   5.036   7.724 -0.5022  0.8573 -0.5091
  180SOPE  H10120546   1.374   5.022   7.796 -0.4698 -0.0155 -0.7024
  180SOPE  C21120547   1.151   5.008   7.779  0.1701 -0.0419  0.0648
  180SOPE  H11R20548   1.134   4.899   7.787  0.0090 -0.0388 -0.2243
  180SOPE  H11S20549   1.079   5.062   7.714  1.4951  1.1734 -0.4652
  180SOPE  C21220550   1.115   5.079   7.911 -0.4147 -0.2735 -0.1503
  180SOPE  H12R20551   1.006   5.069   7.926 -0.2798  0.7410  1.8175
  180SOPE  H12S20552   1.118   5.190   7.905  1.2080 -0.0947  2.2544
  180SOPE  C21320553   1.184   5.028   8.041  0.0922 -0.0942 -0.2721
  180SOPE  H13R20554   1.281   5.083   8.045 -0.7421  1.3535  2.3002
  180SOPE  H13S20555   1.188   4.917   8.036 -0.8414 -0.2434  1.4839
  180SOPE  C21420556   1.113   5.064   8.171 -0.3756  0.3906  0.6967
  180SOPE  H14R20557   1.030   4.994   8.194 -2.3421  2.3114 -0.1524
  180SOPE  H14S20558   1.073   5.168   8.172 -0.5259  0.3931 -1.0414
  180SOPE  C21520559   1.216   5.056   8.288 -1.0959 -0.4669 -0.0991
  180SOPE  H15R20560   1.300   5.124   8.262 -0.7040 -1.0896 -0.4863
  180SOPE  H15S20561   1.252   4.952   8.302  1.1338  0.2896  0.1156
  180SOPE  C21620562   1.155   5.105   8.414 -0.6973 -0.2525  0.0674
  180SOPE  H16R20563   1.067   5.038   8.420  0.4771 -2.1946 -2.4537
  180SOPE  H16S20564   1.134   5.213   8.396  0.5188  0.4717  2.6659
  180SOPE  C21720565   1.236   5.081   8.540  0.3527  0.2916  0.2344
  180SOPE  H17R20566   1.333   5.135   8.534  0.6901 -0.4601 -1.6516
  180SOPE  H17S20567   1.269   4.975   8.549 -1.9586 -0.5311 -0.3216
  180SOPE  C21820568   1.171   5.111   8.668  0.2354  0.7463 -0.5231
  180SOPE  H18R20569   1.246   5.095   8.749 -0.8669 -0.7749  0.2371
  180SOPE  H18S20570   1.086   5.047   8.697  0.8882 -0.4211 -1.1233
  180SOPE  H18T20571   1.140   5.217   8.655  1.7038  1.0831 -1.5542
  180SOPE   C3320572   1.644   5.157   7.193  0.3685  0.2146  0.7010
  180SOPE   H3X20573   1.565   5.097   7.142  0.3189  1.6666 -0.9995
  180SOPE   H3Y20574   1.596   5.233   7.259  0.5545  0.8896  0.0677
  180SOPE   C3420575   1.730   5.070   7.283  0.2919  0.4989 -0.2612
  180SOPE   H4X20576   1.821   5.126   7.314  1.1969 -0.6026 -0.8442
  180SOPE   H4Y20577   1.759   4.988   7.213  0.3478 -0.4315  0.8157
  180SOPE   C3520578   1.653   5.032   7.410 -0.2813  0.4057  0.1290
  180SOPE   H5X20579   1.542   5.038   7.404 -0.3216  0.5758  0.8754
  180SOPE   H5Y20580   1.681   5.113   7.481 -0.8117  0.8356 -0.1424
  180SOPE   C3620581   1.676   4.889   7.464 -0.5014 -0.6826  0.5725
  180SOPE   H6X20582   1.783   4.860   7.456 -0.9259 -2.0966 -0.3424
  180SOPE   H6Y20583   1.619   4.813   7.407 -1.9951  1.2301 -0.6055
  180SOPE   C3720584   1.624   4.865   7.606 -0.2849 -0.3764 -0.1584
  180SOPE   H7X20585   1.653   4.761   7.633 -1.0108 -0.2806  1.0825
  180SOPE   H7Y20586   1.514   4.870   7.597 -0.2299 -0.8037 -1.2481
  180SOPE   C3820587   1.678   4.975   7.701  0.0441 -0.0146  0.8884
  180SOPE   H8X20588   1.622   5.069   7.681  1.1190  0.7346  1.3026
  180SOPE   H8Y20589   1.788   4.988   7.696  0.4118 -1.8025  2.8291
  180SOPE   C3920590   1.650   4.954   7.849  0.5266  0.1613  0.4359
  180SOPE   H9X20591   1.724   4.884   7.893 -0.9383 -0.9862  1.1718
  180SOPE   H9Y20592   1.550   4.908   7.865  0.6866  0.2716  1.9226
  180SOPE  C31020593   1.672   5.082   7.937  0.0554  0.1868  0.1915
  180SOPE  H10X20594   1.593   5.156   7.909 -0.7127  0.3910  2.6440
  180SOPE  H10Y20595   1.771   5.122   7.910 -1.0213  2.6153 -0.3943
  180SOPE  C31120596   1.665   5.049   8.084 -0.1312  0.4431  0.0125
  180SOPE  H11X20597   1.741   4.973   8.111  0.8757  1.2454 -0.5028
  180SOPE  H11Y20598   1.564   5.006   8.104  1.1227 -3.2871 -1.0026
  180SOPE  C31220599   1.681   5.180   8.171  0.0533 -0.0599 -0.4273
  180SOPE  H12X20600   1.619   5.262   8.128 -1.5089 -0.3606  1.1036
  180SOPE  H12Y20601   1.790   5.200   8.178 -0.2383  1.2438  1.2014
  180SOPE  C31320602   1.626   5.161   8.322  0.3968 -0.1149 -0.4778
  180SOPE  H13X20603   1.690   5.082   8.366 -0.6118 -1.1039 -0.7359
  180SOPE  H13Y20604   1.519   5.132   8.317 -0.1034  0.9495  2.2019
  180SOPE  C31420605   1.639   5.287   8.406 -0.2541 -0.2958  0.3051
  180SOPE  H14X20606   1.560   5.362   8.384 -0.3911 -0.0208  1.7000
  180SOPE  H14Y20607   1.741   5.324   8.378 -0.7684 -0.7933 -2.6303
  180SOPE  C31520608   1.637   5.260   8.557  0.4864 -0.5816  0.4187
  180SOPE  H15X20609   1.727   5.201   8.584  0.5270 -0.7264 -0.0186
  180SOPE  H15Y20610   1.546   5.199   8.570 -0.4450  0.8358  0.8802
  180SOPE  C31620611   1.632   5.392   8.643 -0.7062  0.1472  0.2777
  180SOPE  H16X20612   1.551   5.463   8.619 -1.6757 -1.7247 -2.4501
  180SOPE  H16Y20613   1.729   5.444   8.625  0.0475 -1.0946  0.5566
  180SOPE  C31720614   1.626   5.358   8.793  0.8528  0.7238 -0.2738
  180SOPE  H17X20615   1.627   5.454   8.849  1.9159  0.6044 -0.0736
  180SOPE  H17Y20616   1.717   5.300   8.819 -0.0748 -0.2075  0.9968
  180SOPE  C31820617   1.504   5.275   8.830  0.5901  0.1792 -0.5999
  180SOPE  H18X20618   1.491   5.269   8.940  1.2159  0.8160 -0.4830
  180SOPE  H18Y20619   1.508   5.174   8.785 -0.0557  0.6564 -1.7837
  180SOPE  H18Z20620   1.417   5.324   8.781  1.3663  0.2903 -1.9242
  181SOPE     N20621   1.492   2.473   5.973  0.2343 -0.2223 -0.2329
  181SOPE   HN120622   1.401   2.470   5.924  0.4927 -0.2360 -0.7241
  181SOPE   HN220623   1.538   2.567   5.977  2.5318 -1.2860  0.2431
  181SOPE   HN320624   1.551   2.425   5.902 -0.7778  0.0159 -1.2600
  181SOPE   C1220625   1.498   2.415   6.107  0.4573  0.2478 -0.5536
  181SOPE  H12A20626   1.420   2.470   6.162  0.0833  1.9650 -2.6835
  181SOPE  H12B20627   1.596   2.451   6.147  0.5281 -1.0377  0.4973
  181SOPE   C1120628   1.470   2.266   6.113  0.1227 -0.6021  0.5091
  181SOPE  H11A20629   1.443   2.233   6.216 -0.0275  0.9046  0.9788
  181SOPE  H11B20630   1.568   2.225   6.081  0.8872 -0.8036  2.9299
  181SOPE     P20631   1.268   2.110   6.039 -0.1930 -0.0966 -0.4767
  181SOPE   O1320632   1.338   1.985   6.078 -0.8052  0.1743 -0.1376
  181SOPE   O1420633   1.189   2.099   5.915  0.1875  0.0792  0.0108
  181SOPE   O1220634   1.365   2.238   6.022 -0.3220  1.0941  0.1823
  181SOPE   O1120635   1.168   2.157   6.152 -0.7439 -0.2101  0.0035
  181SOPE    C120636   1.111   2.289   6.157 -0.7367  0.3355 -0.2176
  181SOPE    HA20637   1.072   2.330   6.061  0.8371  0.1665 -0.9735
  181SOPE    HB20638   1.194   2.355   6.189 -1.0408  0.2057  0.8559
  181SOPE    C220639   0.994   2.297   6.256 -0.6210  0.0664 -0.1935
  181SOPE    HS20640   0.964   2.399   6.288 -0.7324 -0.6991  2.4095
  181SOPE   O2120641   1.029   2.219   6.373  0.3804  0.1835 -0.4266
  181SOPE   C2120642   1.103   2.277   6.472 -0.3013  0.2197 -0.0189
  181SOPE   O2220643   1.137   2.388   6.466  0.6970 -0.4645  0.1733
  181SOPE   C2220644   1.106   2.180   6.587 -0.3544 -0.0120 -0.1943
  181SOPE   H2R20645   1.171   2.099   6.547  1.2059  1.2342 -0.3024
  181SOPE   H2S20646   1.001   2.147   6.601 -0.4423  0.1531 -0.4498
  181SOPE    C320647   0.869   2.233   6.198 -0.3165 -0.5375 -0.6964
  181SOPE    HX20648   0.878   2.124   6.178 -0.3604 -0.8059  0.6735
  181SOPE    HY20649   0.849   2.282   6.100 -1.3558 -2.2354 -1.3838
  181SOPE   O3120650   0.754   2.284   6.271  0.7246 -0.0706 -0.4296
  181SOPE   C3120651   0.723   2.230   6.390  0.1721 -0.4762 -0.3742
  181SOPE   O3220652   0.773   2.133   6.439  0.5439  0.3688  0.6361
  181SOPE   C3220653   0.600   2.299   6.440 -0.3143 -0.2496  0.2720
  181SOPE   H2X20654   0.523   2.317   6.361  0.6999  0.6953 -0.5306
  181SOPE   H2Y20655   0.631   2.401   6.470  2.0629  0.2990 -3.4078
  181SOPE   C2320656   1.162   2.252   6.711 -0.9514  0.1273  0.4405
  181SOPE   H3R20657   1.247   2.317   6.679  1.0256 -2.2604  0.5962
  181SOPE   H3S20658   1.190   2.172   6.782 -2.0927 -1.1692 -0.5000
  181SOPE   C2420659   1.063   2.333   6.798  0.2724 -0.7326  0.6756
  181SOPE   H4R20660   1.022   2.407   6.727 -0.0975 -0.3990  1.2309
  181SOPE   H4S20661   0.980   2.261   6.818 -1.4940  1.0559  0.1417
  181SOPE   C2520662   1.128   2.393   6.926  0.2596  0.3876 -0.3800
  181SOPE   H5R20663   1.233   2.419   6.903 -0.4697  1.2183 -3.2747
  181SOPE   H5S20664   1.089   2.492   6.960  0.9179  1.4202 -2.4482
  181SOPE   C2620665   1.109   2.288   7.041  0.0685 -1.0448  0.0020
  181SOPE   H6R20666   0.999   2.289   7.056  0.0660  0.3665  0.0072
  181SOPE   H6S20667   1.147   2.187   7.012  2.2058 -0.0742 -0.7501
  181SOPE   C2720668   1.183   2.338   7.169 -0.1409 -0.1473 -0.6413
  181SOPE   H7R20669   1.284   2.374   7.139 -0.3685  0.2709 -0.9183
  181SOPE   H7S20670   1.126   2.426   7.206  2.3631  1.2966  0.0146
  181SOPE   C2820671   1.204   2.234   7.281  0.2382  0.0311  0.0859
  181SOPE   H8R20672   1.106   2.184   7.298 -1.3960  2.1392 -2.4403
  181SOPE   H8S20673   1.261   2.148   7.240 -2.2779 -1.6067 -0.2341
  181SOPE   C2920674   1.283   2.281   7.406  0.9148 -0.3262  0.0690
  181SOPE   H9120675   1.391   2.297   7.392  0.7557  0.5838 -0.1432
  181SOPE  C21020676   1.229   2.298   7.528  0.4768 -0.1488  0.8165
  181SOPE  H10120677   1.299   2.339   7.602  2.9184 -0.4922 -1.1410
  181SOPE  C21120678   1.083   2.291   7.572  0.2871  0.4024  0.5820
  181SOPE  H11R20679   1.069   2.239   7.669  2.3356 -2.3808 -0.4826
  181SOPE  H11S20680   1.035   2.226   7.496 -1.4744  0.0003  1.9736
  181SOPE  C21220681   1.016   2.430   7.561 -0.5349 -0.3447  0.6427
  181SOPE  H12R20682   0.907   2.429   7.583 -0.5130 -0.2906  0.7524
  181SOPE  H12S20683   1.030   2.450   7.452  1.5935  0.3676  1.0081
  181SOPE  C21320684   1.085   2.542   7.637  0.7975  0.2696 -0.4801
  181SOPE  H13R20685   1.035   2.640   7.620  1.5343  0.4396 -1.8040
  181SOPE  H13S20686   1.193   2.556   7.612  0.3258  3.9278 -0.9521
  181SOPE  C21420687   1.069   2.499   7.785 -0.2449 -0.9139 -0.3750
  181SOPE  H14R20688   1.134   2.410   7.802 -0.9434 -1.3497  0.0632
  181SOPE  H14S20689   0.966   2.478   7.819  0.2330 -1.0454  1.0274
  181SOPE  C21520690   1.129   2.610   7.876 -0.9737 -0.3510 -0.4586
  181SOPE  H15R20691   1.085   2.711   7.861  1.1530  0.4896 -1.4801
  181SOPE  H15S20692   1.226   2.628   7.825 -0.7876  0.4980  0.1688
  181SOPE  C21620693   1.140   2.566   8.024  0.3608 -0.6081  0.2224
  181SOPE  H16R20694   1.191   2.468   8.033 -1.3273 -1.5837 -0.3334
  181SOPE  H16S20695   1.036   2.554   8.061  0.3755 -2.5604 -0.2804
  181SOPE  C21720696   1.210   2.669   8.107 -0.3494  0.9422  0.3644
  181SOPE  H17R20697   1.319   2.646   8.107 -0.4205  0.5712  1.0181
  181SOPE  H17S20698   1.175   2.655   8.212 -0.7265  1.1387  0.2661
  181SOPE  C21820699   1.194   2.821   8.077  0.0374  0.4294  0.2572
  181SOPE  H18R20700   1.265   2.877   8.141 -0.3501 -0.5497  1.5986
  181SOPE  H18S20701   1.086   2.843   8.092  0.2001  2.0479 -0.7531
  181SOPE  H18T20702   1.232   2.830   7.973  1.1903 -1.4786  0.4617
  181SOPE   C3320703   0.530   2.235   6.568  0.3814  0.1356  0.8634
  181SOPE   H3X20704   0.514   2.126   6.555 -2.4684  0.6464 -0.6523
  181SOPE   H3Y20705   0.431   2.282   6.586 -0.1187 -0.4244 -0.3196
  181SOPE   C3420706   0.620   2.257   6.694 -0.2078 -1.0013  0.0206
  181SOPE   H4X20707   0.642   2.366   6.707 -0.7141 -1.0679  1.5543
  181SOPE   H4Y20708   0.718   2.215   6.664  0.6702  0.1483  1.1384
  181SOPE   C3520709   0.575   2.183   6.818  0.1328  0.0834  0.3021
  181SOPE   H5X20710   0.580   2.074   6.795  0.9072 -0.7548  3.7530
  181SOPE   H5Y20711   0.470   2.209   6.842  0.3540  1.2011  0.1232
  181SOPE   C3620712   0.670   2.202   6.936  0.2369  0.3173 -0.2349
  181SOPE   H6X20713   0.707   2.306   6.930 -0.7221  0.6897  0.1695
  181SOPE   H6Y20714   0.750   2.126   6.924  1.4173  1.7161 -1.5700
  181SOPE   C3720715   0.602   2.181   7.070 -0.6805 -0.0149 -0.0173
  181SOPE   H7X20716   0.547   2.085   7.069  1.6620 -1.4314 -1.8659
  181SOPE   H7Y20717   0.540   2.272   7.089  1.0933  1.1075  0.6764
  181SOPE   C3820718   0.698   2.173   7.195 -0.3463  0.1924  0.4125
  181SOPE   H8X20719   0.759   2.266   7.202 -0.0859  0.2344 -1.6207
  181SOPE   H8Y20720   0.761   2.088   7.161 -2.3187 -1.1363 -0.0955
  181SOPE   C3920721   0.615   2.151   7.325 -0.3634 -0.3608 -0.0451
  181SOPE   H9X20722   0.604   2.041   7.328 -0.4110 -0.5309 -2.9771
  181SOPE   H9Y20723   0.510   2.187   7.320  0.4603  2.2324  0.0081
  181SOPE  C31020724   0.678   2.202   7.460 -0.0132  0.1740  0.0680
  181SOPE  H10X20725   0.666   2.312   7.468 -2.4003 -0.0048 -0.3068
  181SOPE  H10Y20726   0.788   2.183   7.460  0.3048  1.7945  1.1368
  181SOPE  C31120727   0.609   2.138   7.580 -0.1057 -0.2301  0.2960
  181SOPE  H11X20728   0.608   2.029   7.557  1.8938 -0.5415  1.4038
  181SOPE  H11Y20729   0.511   2.186   7.596  0.3379  1.4287 -1.6210
  181SOPE  C31220730   0.696   2.166   7.700  1.0919 -0.6642  0.0331
  181SOPE  H12X20731   0.722   2.274   7.695 -1.5695 -0.0139 -3.3235
  181SOPE  H12Y20732   0.792   2.110   7.703  2.4556  1.5419  0.2928
  181SOPE  C31320733   0.621   2.129   7.827 -0.1771  0.0722 -0.6351
  181SOPE  H13X20734   0.617   2.018   7.824 -1.0149  0.0687  0.2493
  181SOPE  H13Y20735   0.516   2.163   7.814  0.9776  3.6794 -1.5848
  181SOPE  C31420736   0.677   2.184   7.956  0.1656  0.3687  0.0085
  181SOPE  H14X20737   0.611   2.137   8.032  0.5887 -0.8777 -0.3881
  181SOPE  H14Y20738   0.674   2.296   7.958  2.0036  0.4717 -1.2394
  181SOPE  C31520739   0.831   2.151   7.985  0.5324 -0.1059 -0.3670
  181SOPE  H15X20740   0.881   2.183   7.891 -0.1488  0.9702 -0.3891
  181SOPE  H15Y20741   0.853   2.045   8.009  0.7638 -1.3757 -5.1701
  181SOPE  C31620742   0.899   2.226   8.097 -0.1900  0.1518  0.0435
  181SOPE  H16X20743   0.905   2.334   8.071  2.3486 -0.3230 -1.8525
  181SOPE  H16Y20744   0.999   2.182   8.121 -0.8159 -0.5011  1.5574
  181SOPE  C31720745   0.838   2.204   8.235  0.1669 -0.0726 -0.0724
  181SOPE  H17X20746   0.848   2.095   8.254 -1.9096 -0.1151  1.1548
  181SOPE  H17Y20747   0.734   2.244   8.234  0.7173  1.4155 -0.6112
  181SOPE  C31820748   0.904   2.291   8.347 -0.5284 -0.1725 -0.5848
  181SOPE  H18X20749   1.014   2.281   8.337 -0.6494 -1.4843 -0.6957
  181SOPE  H18Y20750   0.877   2.264   8.451  0.2192  1.2825  0.0212
  181SOPE  H18Z20751   0.862   2.391   8.325  1.1845  0.2351 -2.3291
  182SOPE     N20752   1.979   5.353   6.168  0.3422  0.1405  0.2091
  182SOPE   HN120753   1.936   5.275   6.222 -0.2131  0.5668  0.3943
  182SOPE   HN220754   2.017   5.430   6.226  1.4754  0.3384 -0.7510
  182SOPE   HN320755   1.914   5.399   6.101  2.4951  0.9793 -1.4243
  182SOPE   C1220756   2.095   5.278   6.101 -0.3492  0.1353 -0.2471
  182SOPE  H12A20757   2.158   5.357   6.055 -0.0826  1.3238  2.0242
  182SOPE  H12B20758   2.048   5.222   6.018 -0.7345  2.0733 -1.4103
  182SOPE   C1120759   2.177   5.202   6.193 -0.1466 -0.3205 -0.4404
  182SOPE  H11A20760   2.245   5.153   6.120 -0.4923  2.1553 -2.5912
  182SOPE  H11B20761   2.105   5.135   6.244 -0.8117  0.2160 -0.6454
  182SOPE     P20762   2.398   5.269   6.326 -0.1300  0.1466 -0.3043
  182SOPE   O1320763   2.433   5.385   6.406 -0.2365  0.3476 -0.1814
  182SOPE   O1420764   2.472   5.251   6.200  0.0007 -0.1148 -0.4448
  182SOPE   O1220765   2.244   5.287   6.290  0.3445  0.3851 -0.4688
  182SOPE   O1120766   2.385   5.135   6.411 -0.4368  0.7547 -0.6382
  182SOPE    C120767   2.311   5.143   6.538  0.0816 -0.2790  0.7933
  182SOPE    HA20768   2.204   5.167   6.516  1.0868  2.1951 -2.0433
  182SOPE    HB20769   2.355   5.221   6.604  1.5517  1.8873 -2.5169
  182SOPE    C220770   2.322   5.007   6.615  0.3865 -0.1366  0.3178
  182SOPE    HS20771   2.287   4.927   6.546 -0.5370  0.0405  0.5672
  182SOPE   O2120772   2.245   5.007   6.743 -0.1311 -0.3957  0.2268
  182SOPE   C2120773   2.201   4.887   6.785 -0.9033  0.0431  0.4281
  182SOPE   O2220774   2.209   4.784   6.717  0.5079  0.2496 -0.3524
  182SOPE   C2220775   2.173   4.888   6.939  0.3750 -0.4151  0.0177
  182SOPE   H2R20776   2.108   4.975   6.961  1.1136  0.3325 -0.6768
  182SOPE   H2S20777   2.267   4.896   6.998  0.5834  0.5433 -0.4136
  182SOPE    C320778   2.470   4.991   6.650  0.2429 -0.5772  0.6513
  182SOPE    HX20779   2.507   5.085   6.695 -1.2270  0.3314  0.0589
  182SOPE    HY20780   2.526   4.978   6.555  2.3462 -0.9580  1.8937
  182SOPE   O3120781   2.496   4.891   6.749  0.3001 -0.0637 -0.3503
  182SOPE   C3120782   2.501   4.769   6.708 -0.1450 -0.1237 -0.3504
  182SOPE   O3220783   2.469   4.729   6.598 -0.4391  0.3308  0.4657
  182SOPE   C3220784   2.575   4.689   6.809 -0.0731 -0.0972  0.0610
  182SOPE   H2X20785   2.683   4.714   6.804 -0.1015  1.6114  4.0524
  182SOPE   H2Y20786   2.570   4.585   6.771  0.3436  0.8416 -2.8014
  182SOPE   C2320787   2.090   4.775   6.992 -0.6504  0.2203  0.9794
  182SOPE   H3R20788   2.155   4.684   7.000 -1.3245 -0.1181  3.8564
  182SOPE   H3S20789   2.004   4.754   6.925 -0.5114  0.3269  0.7658
  182SOPE   C2420790   2.048   4.815   7.133 -0.0955  0.5957  0.4068
  182SOPE   H4R20791   2.017   4.921   7.134 -0.2486  0.5543  1.4215
  182SOPE   H4S20792   1.961   4.751   7.160  0.1086  0.2454  0.2521
  182SOPE   C2520793   2.157   4.789   7.241  0.2856  0.3603  0.3777
  182SOPE   H5R20794   2.201   4.689   7.226 -1.5466 -0.6361  1.3723
  182SOPE   H5S20795   2.242   4.861   7.234  0.5406  0.1621  1.2821
  182SOPE   C2620796   2.111   4.791   7.394  0.1968 -0.3127  0.3616
  182SOPE   H6R20797   2.189   4.816   7.469  1.1485 -1.3015 -0.2643
  182SOPE   H6S20798   2.027   4.862   7.407  0.3707 -0.2422  1.1362
  182SOPE   C2720799   2.041   4.661   7.446  0.0035  0.0514 -0.2317
  182SOPE   H7R20800   1.961   4.631   7.375 -1.6645  2.4364  0.5324
  182SOPE   H7S20801   2.123   4.585   7.439 -0.3430 -0.2401 -1.6374
  182SOPE   C2820802   1.984   4.672   7.589 -0.3990 -0.0267 -0.3773
  182SOPE   H8R20803   1.908   4.753   7.597 -2.4927 -1.9528  0.6306
  182SOPE   H8S20804   1.923   4.579   7.595 -0.8053  0.3175  1.7513
  182SOPE   C2920805   2.089   4.664   7.701  0.0041  0.0017 -0.8152
  182SOPE   H9120806   2.110   4.766   7.738 -0.5928  0.2386 -1.0958
  182SOPE  C21020807   2.164   4.560   7.757  0.4812 -0.3094  0.5929
  182SOPE  H10120808   2.226   4.587   7.843 -0.7645 -2.1504  2.1697
  182SOPE  C21120809   2.158   4.414   7.711 -0.3352 -0.0708  0.1828
  182SOPE  H11R20810   2.228   4.405   7.625  2.2664  0.9987  2.0704
  182SOPE  H11S20811   2.050   4.402   7.688 -0.3602  0.4279  0.0162
  182SOPE  C21220812   2.199   4.311   7.818  0.2363  0.0560 -0.4269
  182SOPE  H12R20813   2.304   4.315   7.853  0.7609 -1.1121 -1.7711
  182SOPE  H12S20814   2.195   4.206   7.782  1.2106 -0.6385  1.3353
  182SOPE  C21320815   2.109   4.330   7.942  0.6397 -0.1374 -0.2359
  182SOPE  H13R20816   2.012   4.280   7.918 -1.2977  2.7495  0.9581
  182SOPE  H13S20817   2.080   4.437   7.958 -0.1344 -0.6689  2.5672
  182SOPE  C21420818   2.154   4.248   8.064  0.4382 -0.6010  0.3739
  182SOPE  H14R20819   2.171   4.144   8.029 -0.9999 -1.9452  3.3493
  182SOPE  H14S20820   2.062   4.235   8.125 -0.2967 -2.8519 -1.0570
  182SOPE  C21520821   2.274   4.298   8.144  0.3114 -0.1443 -0.7029
  182SOPE  H15R20822   2.285   4.408   8.147  0.5556 -0.1772 -0.0373
  182SOPE  H15S20823   2.370   4.262   8.101  0.9244 -0.7122  1.0585
  182SOPE  C21620824   2.260   4.264   8.298  0.6025  0.7102 -0.5319
  182SOPE  H16R20825   2.228   4.160   8.318 -0.4268  1.0496 -0.3267
  182SOPE  H16S20826   2.188   4.332   8.348  0.6070  0.3203  0.0052
  182SOPE  C21720827   2.397   4.293   8.366 -0.1738 -0.3659 -0.2231
  182SOPE  H17R20828   2.398   4.403   8.379  0.2009 -0.3624 -0.2697
  182SOPE  H17S20829   2.484   4.275   8.300 -0.4695  0.0534 -0.7292
  182SOPE  C21820830   2.417   4.245   8.511 -0.0573 -0.2432  0.4471
  182SOPE  H18R20831   2.417   4.134   8.505  0.6683 -0.3437  2.0369
  182SOPE  H18S20832   2.342   4.289   8.580 -0.7426 -0.5190 -0.0981
  182SOPE  H18T20833   2.512   4.282   8.555  0.3400  1.2753 -1.5311
  182SOPE   C3320834   2.508   4.704   6.947  0.8389 -0.0787  0.4397
  182SOPE   H3X20835   2.403   4.672   6.966 -0.3717  3.5622  0.5203
  182SOPE   H3Y20836   2.505   4.811   6.977 -1.9284  0.4947 -1.5136
  182SOPE   C3420837   2.571   4.613   7.048 -0.0539 -0.4229 -0.1844
  182SOPE   H4X20838   2.677   4.645   7.054 -0.9827  3.1632 -0.3622
  182SOPE   H4Y20839   2.575   4.509   7.009 -0.2534 -0.9005  1.0284
  182SOPE   C3520840   2.512   4.618   7.192  0.2330 -0.3111 -0.7231
  182SOPE   H5X20841   2.560   4.535   7.249 -1.4031 -0.9846 -0.2594
  182SOPE   H5Y20842   2.404   4.590   7.195  0.7660 -3.1792 -3.1770
  182SOPE   C3620843   2.532   4.745   7.273 -0.2442 -0.0352  0.3340
  182SOPE   H6X20844   2.467   4.828   7.240 -0.0249  0.2278  0.5640
  182SOPE   H6Y20845   2.636   4.780   7.255 -0.7065  2.1951  1.7023
  182SOPE   C3720846   2.511   4.719   7.422  0.1346  0.2885  0.2163
  182SOPE   H7X20847   2.584   4.638   7.447  0.7475  1.1892  1.4586
  182SOPE   H7Y20848   2.406   4.681   7.429 -1.6801  4.1546 -2.5190
  182SOPE   C3820849   2.548   4.837   7.507  0.0526 -0.3238 -0.3171
  182SOPE   H8X20850   2.485   4.926   7.489 -0.4852 -0.5909  0.2071
  182SOPE   H8Y20851   2.644   4.876   7.467 -1.2534  1.6239 -1.7459
  182SOPE   C3920852   2.546   4.803   7.654  0.3870  0.0231  0.2240
  182SOPE   H9X20853   2.628   4.729   7.666  1.9466  1.4662 -1.1717
  182SOPE   H9Y20854   2.448   4.759   7.682 -0.2510  2.1879  1.6474
  182SOPE  C31020855   2.590   4.925   7.739 -0.2214 -0.1116 -0.0156
  182SOPE  H10X20856   2.514   5.006   7.740 -1.2974 -1.0910 -0.6128
  182SOPE  H10Y20857   2.685   4.954   7.688  0.4475 -2.8775 -0.5017
  182SOPE  C31120858   2.606   4.885   7.889 -0.3180  0.4727  0.0882
  182SOPE  H11X20859   2.665   4.964   7.941 -2.3647  0.2400  3.0233
  182SOPE  H11Y20860   2.666   4.791   7.890 -1.6127 -0.3814 -0.4427
  182SOPE  C31220861   2.472   4.861   7.960 -0.3751 -0.6341  0.3287
  182SOPE  H12X20862   2.427   4.792   7.885  0.7259 -0.0657 -0.8912
  182SOPE  H12Y20863   2.413   4.954   7.975  1.0233  0.7923 -2.2788
  182SOPE  C31320864   2.496   4.812   8.104  1.0650  0.4811 -0.6540
  182SOPE  H13X20865   2.552   4.887   8.163  1.0679 -0.6397  0.7966
  182SOPE  H13Y20866   2.556   4.718   8.104 -0.0615 -0.2777 -1.3035
  182SOPE  C31420867   2.355   4.786   8.171 -0.2863 -0.4384 -0.6278
  182SOPE  H14X20868   2.302   4.711   8.109  2.2845 -1.6208 -1.5357
  182SOPE  H14Y20869   2.291   4.877   8.161 -0.0141  0.3153  2.9137
  182SOPE  C31520870   2.364   4.756   8.319 -0.1874  0.7549  0.2722
  182SOPE  H15X20871   2.441   4.825   8.361 -0.2907  1.6418 -0.9225
  182SOPE  H15Y20872   2.410   4.655   8.317 -0.5892  0.5784 -0.4074
  182SOPE  C31620873   2.234   4.763   8.392 -0.1928 -0.0800  0.2136
  182SOPE  H16X20874   2.184   4.862   8.382  0.1823 -0.0083 -1.0811
  182SOPE  H16Y20875   2.269   4.750   8.497  0.3122 -1.7264 -0.1319
  182SOPE  C31720876   2.128   4.645   8.354 -0.6455 -0.1788 -0.4784
  182SOPE  H17X20877   2.171   4.545   8.336 -2.6077 -1.4878  1.5367
  182SOPE  H17Y20878   2.089   4.680   8.256 -0.6627  1.7339  0.1653
  182SOPE  C31820879   2.010   4.617   8.452 -0.5664  0.2774  0.1099
  182SOPE  H18X20880   1.946   4.545   8.397 -1.4642  0.8628  0.3820
  182SOPE  H18Y20881   1.945   4.703   8.476 -0.7097  0.4853 -0.9824
  182SOPE  H18Z20882   2.046   4.562   8.541  3.0975 -0.6245 -1.7186
  183SOPE     N20883   2.880   0.929   6.227 -0.1705  0.3184  0.2035
  183SOPE   HN120884   2.883   0.825   6.221  1.5674  0.3127  0.5880
  183SOPE   HN220885   2.788   0.972   6.203 -0.9338  0.0841  2.4096
  183SOPE   HN320886   2.955   0.963   6.164 -0.7785 -0.8693 -1.2237
  183SOPE   C1220887   2.901   0.971   6.373  0.5956 -1.4865  0.1801
  183SOPE  H12A20888   2.984   0.913   6.419  0.3752 -2.5935 -0.7890
  183SOPE  H12B20889   2.808   0.949   6.428  1.4433 -2.7615  1.1635
  183SOPE   C1120890   2.952   1.126   6.362 -0.5376 -0.4329  0.4100
  183SOPE  H11A20891   2.953   1.163   6.467 -3.6923  1.8484 -0.2091
  183SOPE  H11B20892   2.877   1.194   6.316  0.2592 -0.1138 -0.4326
  183SOPE     P20893   3.129   1.268   6.231 -0.0137  0.4436 -0.1782
  183SOPE   O1320894   3.032   1.327   6.145  0.2906  0.0096  0.4317
  183SOPE   O1420895   3.259   1.244   6.168 -0.1425 -0.1996 -0.4991
  183SOPE   O1220896   3.067   1.128   6.282  0.4903  0.2162  0.6194
  183SOPE   O1120897   3.153   1.354   6.362 -0.0522 -0.3804 -0.1261
  183SOPE    C120898   3.226   1.475   6.363 -0.8410  0.0728  0.5949
  183SOPE    HA20899   3.153   1.558   6.359 -1.4804 -0.5236 -2.1365
  183SOPE    HB20900   3.285   1.489   6.270  0.7505 -0.8712  1.4222
  183SOPE    C220901   3.343   1.490   6.468  1.1172  0.7505 -0.5115
  183SOPE    HS20902   3.405   1.402   6.438 -0.5891 -0.4182 -0.7075
  183SOPE   O2120903   3.280   1.473   6.599 -0.1996  0.3404 -0.4446
  183SOPE   C2120904   3.320   1.372   6.674  0.3153 -0.2166  0.0525
  183SOPE   O2220905   3.394   1.283   6.638  0.5979  0.4888 -0.2068
  183SOPE   C2220906   3.246   1.386   6.809 -0.1125  0.1439 -0.0595
  183SOPE   H2R20907   3.148   1.438   6.795 -0.8229 -1.3123 -0.7080
  183SOPE   H2S20908   3.320   1.442   6.870  1.5170  0.1750 -1.9824
  183SOPE    C320909   3.417   1.622   6.453  0.4918  0.0775  0.1514
  183SOPE    HX20910   3.345   1.687   6.507  0.9745  1.0074 -0.2961
  183SOPE    HY20911   3.417   1.666   6.351 -0.0879  0.8855  0.4912
  183SOPE   O3120912   3.540   1.626   6.521 -0.0749 -0.1109  0.3587
  183SOPE   C3120913   3.638   1.582   6.456  0.1843  0.2013  0.0160
  183SOPE   O3220914   3.634   1.543   6.341  0.4912 -0.7598  0.4109
  183SOPE   C3220915   3.766   1.572   6.541 -0.6281 -0.1648  0.2158
  183SOPE   H2X20916   3.840   1.514   6.482 -0.1387  0.3795  0.2875
  183SOPE   H2Y20917   3.746   1.502   6.625  0.6421 -0.9883 -0.1436
  183SOPE   C2320918   3.210   1.247   6.879  0.0057  1.6516  0.1464
  183SOPE   H3R20919   3.287   1.169   6.857 -1.7947 -0.6643  1.6576
  183SOPE   H3S20920   3.118   1.210   6.830  0.3917  0.2929  0.3968
  183SOPE   C2420921   3.184   1.259   7.029 -0.5679  0.1548  0.4355
  183SOPE   H4R20922   3.109   1.339   7.044 -0.2416  0.8263 -1.2405
  183SOPE   H4S20923   3.142   1.165   7.068 -1.1908 -0.1819 -0.9666
  183SOPE   C2520924   3.307   1.293   7.116 -0.7167 -0.5405  0.2731
  183SOPE   H5R20925   3.395   1.232   7.088 -0.9816 -0.0885 -1.7821
  183SOPE   H5S20926   3.337   1.398   7.095 -1.9267 -0.0566  0.8534
  183SOPE   C2620927   3.285   1.284   7.264 -0.1449 -0.4987 -0.5023
  183SOPE   H6R20928   3.201   1.347   7.302 -2.4521 -3.3600 -0.5029
  183SOPE   H6S20929   3.269   1.181   7.301 -0.0340 -0.1816  0.4447
  183SOPE   C2720930   3.406   1.335   7.353  0.3166  0.1884 -0.2254
  183SOPE   H7R20931   3.497   1.274   7.333  1.5765  1.5943  0.9777
  183SOPE   H7S20932   3.428   1.441   7.327  0.3597  0.2412  0.0272
  183SOPE   C2820933   3.358   1.339   7.500 -0.2575 -0.0307 -0.0764
  183SOPE   H8R20934   3.439   1.384   7.562 -0.7401  0.9554 -0.1429
  183SOPE   H8S20935   3.272   1.407   7.519 -0.5423 -0.8918  1.9336
  183SOPE   C2920936   3.339   1.205   7.564  1.0522  0.2882  0.0038
  183SOPE   H9120937   3.335   1.118   7.496 -0.8310 -2.2077  3.0588
  183SOPE  C21020938   3.297   1.198   7.695 -0.0459  0.2793 -0.3555
  183SOPE  H10120939   3.274   1.099   7.736  0.6865 -0.4610 -1.6506
  183SOPE  C21120940   3.268   1.315   7.789 -0.2073 -0.5722 -0.5562
  183SOPE  H11R20941   3.160   1.327   7.813  0.1342  0.1621  0.6928
  183SOPE  H11S20942   3.312   1.408   7.746 -1.3109 -0.8207 -2.3328
  183SOPE  C21220943   3.323   1.275   7.928 -0.6672  0.1806 -0.1922
  183SOPE  H12R20944   3.403   1.348   7.954  2.7222 -1.9881 -3.4777
  183SOPE  H12S20945   3.385   1.183   7.920  1.7818  1.7491 -0.2985
  183SOPE  C21320946   3.211   1.275   8.038  0.3568 -0.0332 -0.1202
  183SOPE  H13R20947   3.137   1.193   8.022 -0.4484  0.6706 -0.0273
  183SOPE  H13S20948   3.147   1.364   8.021 -0.9645 -0.7992  0.6803
  183SOPE  C21420949   3.272   1.299   8.177 -0.2161  0.4303  0.9103
  183SOPE  H14R20950   3.290   1.406   8.196 -1.5717  0.2720  3.4335
  183SOPE  H14S20951   3.366   1.240   8.180 -0.6411 -0.4721 -1.4165
  183SOPE  C21520952   3.182   1.244   8.286 -0.2779 -0.3560  0.6760
  183SOPE  H15R20953   3.084   1.297   8.286 -0.3936 -0.5713  0.3345
  183SOPE  H15S20954   3.229   1.281   8.380 -0.3000 -1.2063  1.0335
  183SOPE  C21620955   3.165   1.093   8.282  0.4007 -0.5185  0.6602
  183SOPE  H16R20956   3.257   1.031   8.277  0.3033 -0.6122 -0.0671
  183SOPE  H16S20957   3.110   1.060   8.191 -0.0492  0.7714  0.4499
  183SOPE  C21720958   3.068   1.032   8.388 -0.1249  0.1352  0.3280
  183SOPE  H17R20959   2.977   1.095   8.382 -1.5221 -1.9196 -2.4654
  183SOPE  H17S20960   3.123   1.044   8.484  1.4207 -1.5636 -0.2902
  183SOPE  C21820961   3.020   0.881   8.386 -0.4863  0.0066 -0.3751
  183SOPE  H18R20962   3.113   0.820   8.389  0.8680  2.0368  1.0392
  183SOPE  H18S20963   2.961   0.859   8.295 -1.6546 -1.8353  0.7367
  183SOPE  H18T20964   2.964   0.850   8.478  1.6753 -2.8605  0.1285
  183SOPE   C3320965   3.813   1.710   6.592  0.4919 -0.0647 -0.2680
  183SOPE   H3X20966   3.729   1.754   6.651 -0.2223  3.3514 -3.4577
  183SOPE   H3Y20967   3.831   1.781   6.509  2.2710  0.3467  0.4271
  183SOPE   C3420968   3.947   1.718   6.672  0.1773 -0.2725  0.4886
  183SOPE   H4X20969   3.972   1.818   6.712  0.1608  0.9001 -2.2153
  183SOPE   H4Y20970   4.025   1.711   6.593  1.8973  0.2792  2.0741
  183SOPE   C3520971   3.976   1.591   6.765  0.1586 -0.0224 -0.3758
  183SOPE   H5X20972   4.082   1.586   6.798  0.1781 -2.1144 -0.6426
  183SOPE   H5Y20973   3.955   1.497   6.711  1.1652 -0.1037 -0.6490
  183SOPE   C3620974   3.881   1.593   6.884 -0.0641  0.4067 -0.7926
  183SOPE   H6X20975   3.879   1.493   6.933 -0.0416  0.5590 -0.4781
  183SOPE   H6Y20976   3.781   1.614   6.840  1.2699  0.9152 -3.7989
  183SOPE   C3720977   3.925   1.698   6.984  0.4946  0.1773  0.3967
  183SOPE   H7X20978   3.967   1.787   6.933  1.6980 -1.3768 -1.4625
  183SOPE   H7Y20979   3.997   1.644   7.050 -2.1114 -2.0524  1.6303
  183SOPE   C3820980   3.820   1.769   7.076  0.4149  0.1656 -0.4761
  183SOPE   H8X20981   3.744   1.820   7.012  0.7428 -0.6312 -1.5294
  183SOPE   H8Y20982   3.876   1.844   7.136  0.7211  0.9817 -1.7500
  183SOPE   C3920983   3.735   1.671   7.169 -0.7059  0.2438  0.1107
  183SOPE   H9X20984   3.676   1.605   7.103 -0.2712  0.5128 -0.5604
  183SOPE   H9Y20985   3.670   1.743   7.224 -0.6208 -0.5057  1.2365
  183SOPE  C31020986   3.823   1.604   7.274  0.5740 -0.5248  0.2734
  183SOPE  H10X20987   3.928   1.589   7.244 -0.2028 -1.6403 -2.1572
  183SOPE  H10Y20988   3.771   1.506   7.270  0.0427 -0.2227 -1.7332
  183SOPE  C31120989   3.837   1.684   7.396 -0.0150  0.0372  0.1236
  183SOPE  H11X20990   3.744   1.726   7.441  1.1210  0.9353  1.6918
  183SOPE  H11Y20991   3.901   1.773   7.383 -1.2959  1.0661  0.6939
  183SOPE  C31220992   3.910   1.593   7.500  0.2662 -0.5177  0.3911
  183SOPE  H12X20993   3.929   1.653   7.592 -0.9763  1.6587 -0.6672
  183SOPE  H12Y20994   4.013   1.571   7.465 -0.0040 -1.8346  0.3654
  183SOPE  C31320995   3.838   1.470   7.548 -0.6868 -0.1723 -0.1016
  183SOPE  H13X20996   3.904   1.399   7.602 -1.0469 -0.1599  0.3596
  183SOPE  H13Y20997   3.793   1.417   7.461 -0.9340  0.0846 -0.1317
  183SOPE  C31420998   3.720   1.491   7.644  0.0124  0.2708 -0.1478
  183SOPE  H14X20999   3.664   1.401   7.678 -0.3331  0.8000  0.6983
  183SOPE  H14Y21000   3.642   1.549   7.590  1.1884  1.4291 -0.6407
  183SOPE  C31521001   3.748   1.574   7.766  0.2032 -0.7050 -0.5495
  183SOPE  H15X21002   3.744   1.684   7.748 -1.7052 -0.6349  0.0794
  183SOPE  H15Y21003   3.850   1.544   7.794  1.6877  3.1881 -1.1072
  183SOPE  C31621004   3.655   1.546   7.880  0.4602  0.3669 -0.7006
  183SOPE  H16X21005   3.551   1.567   7.845 -0.1051 -4.2329 -2.5211
  183SOPE  H16Y21006   3.681   1.615   7.963 -3.4486  0.1953  0.9429
  183SOPE  C31721007   3.668   1.405   7.950 -0.4698  0.1875  0.1607
  183SOPE  H17X21008   3.629   1.323   7.887 -1.4650  2.0003 -1.7221
  183SOPE  H17Y21009   3.602   1.406   8.040  0.0173  0.3157  0.5268
  183SOPE  C31821010   3.808   1.380   8.008  0.2325 -0.9650  0.1924
  183SOPE  H18X21011   3.880   1.351   7.928  0.7045  0.5968  0.0284
  183SOPE  H18Y21012   3.828   1.307   8.089  1.2971  0.0841  0.9019
  183SOPE  H18Z21013   3.847   1.475   8.051  1.7278 -1.0457 -0.8793
  184SOPE     N21014   2.371   1.825   6.085  0.0322 -0.2559 -0.4009
  184SOPE   HN121015   2.300   1.891   6.123  2.1221  3.5877 -2.5593
  184SOPE   HN221016   2.422   1.880   6.013  1.8476 -1.4695 -0.1105
  184SOPE   HN321017   2.320   1.744   6.043  1.3024 -2.2259  1.6506
  184SOPE   C1221018   2.470   1.790   6.198 -0.5872 -0.0113 -0.6609
  184SOPE  H12A21019   2.535   1.716   6.147 -0.6115  0.8949 -2.0634
  184SOPE  H12B21020   2.413   1.742   6.281 -0.9519  0.9742 -0.3284
  184SOPE   C1121021   2.554   1.909   6.244  0.2667  0.2132 -0.4699
  184SOPE  H11A21022   2.633   1.877   6.315  1.2217  0.4007 -1.4323
  184SOPE  H11B21023   2.486   1.976   6.301  0.8352 -0.4132  0.9863
  184SOPE     P21024   2.757   2.009   6.118 -0.1947 -0.3715 -0.1057
  184SOPE   O1321025   2.786   2.145   6.072  0.3829  0.2188  0.2242
  184SOPE   O1421026   2.812   1.902   6.033  0.0055  0.2837 -0.2748
  184SOPE   O1221027   2.598   1.997   6.144  0.4186 -0.2149 -0.1312
  184SOPE   O1121028   2.819   2.009   6.258 -0.4612  0.2647 -0.1793
  184SOPE    C121029   2.783   2.104   6.353  0.5289 -0.1131 -0.2791
  184SOPE    HA21030   2.676   2.133   6.354  0.6831  0.4466  0.5747
  184SOPE    HB21031   2.842   2.196   6.336  2.4087 -1.1388  0.4181
  184SOPE    C221032   2.831   2.050   6.488 -0.5429  0.0341  0.2329
  184SOPE    HS21033   2.784   1.951   6.509  1.4335 -1.4344 -1.7423
  184SOPE   O2121034   2.787   2.138   6.595  0.8107  0.2466  0.0463
  184SOPE   C2121035   2.660   2.112   6.625  0.4149  0.8532 -0.5393
  184SOPE   O2221036   2.587   2.021   6.584 -0.2454 -0.8693 -0.2325
  184SOPE   C2221037   2.626   2.221   6.728 -0.1120 -0.4995  0.1813
  184SOPE   H2R21038   2.518   2.247   6.720 -0.1265  0.5577  2.8341
  184SOPE   H2S21039   2.667   2.321   6.703 -1.8971  0.7726  2.0237
  184SOPE    C321040   2.979   2.035   6.485  0.2431  0.1613 -0.0005
  184SOPE    HX21041   3.017   2.139   6.496  0.2230  0.1568  0.1218
  184SOPE    HY21042   3.002   1.986   6.388  0.0864  1.2698 -0.6147
  184SOPE   O3121043   3.026   1.949   6.592  0.0551 -0.1039  0.2834
  184SOPE   C3121044   3.147   1.899   6.573  0.1566 -0.0339 -0.9560
  184SOPE   O3221045   3.215   1.915   6.474 -0.5023  0.5503 -0.8874
  184SOPE   C3221046   3.203   1.824   6.695 -0.2613 -0.1660 -0.3086
  184SOPE   H2X21047   3.206   1.716   6.669  0.3811  0.4975 -3.3244
  184SOPE   H2Y21048   3.124   1.844   6.770 -0.4704  3.0457 -1.2541
  184SOPE   C2321049   2.655   2.182   6.873 -0.2429 -0.0515 -0.3470
  184SOPE   H3R21050   2.751   2.126   6.878 -0.6682 -0.7242  0.6252
  184SOPE   H3S21051   2.584   2.103   6.904 -0.0342  0.2552  0.9672
  184SOPE   C2421052   2.651   2.303   6.966  0.3297  0.0776 -0.6037
  184SOPE   H4R21053   2.734   2.373   6.944  1.0615 -0.5328  0.1441
  184SOPE   H4S21054   2.560   2.365   6.950  1.2360  2.3186  2.0808
  184SOPE   C2521055   2.668   2.257   7.105 -0.4084 -0.8958  0.1189
  184SOPE   H5R21056   2.591   2.181   7.132  1.4488 -2.7833  0.3229
  184SOPE   H5S21057   2.768   2.210   7.113 -0.0600 -0.1246  0.4146
  184SOPE   C2621058   2.652   2.366   7.219  0.0653 -0.6500  0.1713
  184SOPE   H6R21059   2.712   2.450   7.179 -2.5657  1.6904  0.8126
  184SOPE   H6S21060   2.545   2.391   7.237  0.4862  0.5766  1.0974
  184SOPE   C2721061   2.699   2.308   7.353  0.3714  0.2717 -0.3492
  184SOPE   H7R21062   2.644   2.212   7.363  1.9816 -0.7104 -0.5489
  184SOPE   H7S21063   2.806   2.287   7.332  0.5212  0.1327  0.5490
  184SOPE   C2821064   2.686   2.403   7.475 -0.1165 -0.1730  0.5383
  184SOPE   H8R21065   2.767   2.372   7.544  0.7260  0.2442 -0.2347
  184SOPE   H8S21066   2.695   2.512   7.456 -1.1803  0.6044  3.8899
  184SOPE   C2921067   2.549   2.396   7.529 -0.1877  0.4794  0.2841
  184SOPE   H9121068   2.466   2.411   7.459 -0.1241  1.3345  0.3749
  184SOPE  C21021069   2.526   2.347   7.651 -0.7450 -0.5823 -0.2105
  184SOPE  H10121070   2.424   2.348   7.693 -1.1548  2.0741 -1.0801
  184SOPE  C21121071   2.636   2.308   7.752  1.0096 -0.4783  0.1829
  184SOPE  H11R21072   2.707   2.394   7.753  0.7076 -0.1998 -0.8355
  184SOPE  H11S21073   2.701   2.225   7.716  1.4592 -0.2888  0.5448
  184SOPE  C21221074   2.578   2.266   7.892 -0.0529 -0.0834  1.1132
  184SOPE  H12R21075   2.518   2.173   7.882 -1.5434  1.0831 -1.7511
  184SOPE  H12S21076   2.509   2.347   7.926  0.3728  2.1803 -2.8156
  184SOPE  C21321077   2.682   2.234   8.000 -0.3814  0.8878  0.5342
  184SOPE  H13R21078   2.694   2.321   8.069  1.6504 -0.1809  1.6293
  184SOPE  H13S21079   2.778   2.224   7.945 -1.1917 -2.2979 -0.5390
  184SOPE  C21421080   2.655   2.106   8.075  0.5538 -0.0586  0.2772
  184SOPE  H14R21081   2.676   2.018   8.011  0.5083 -0.0280  0.2209
  184SOPE  H14S21082   2.554   2.103   8.121  1.1064 -0.2019  1.5270
  184SOPE  C21521083   2.767   2.094   8.175 -0.4941 -0.3630 -0.1357
  184SOPE  H15R21084   2.740   2.155   8.264  1.6947 -0.8464  0.9267
  184SOPE  H15S21085   2.866   2.125   8.136 -0.3162  2.2331  2.0727
  184SOPE  C21621086   2.779   1.958   8.232 -0.4512 -0.0241  0.1086
  184SOPE  H16R21087   2.797   1.881   8.154 -1.1625 -1.7200  1.5526
  184SOPE  H16S21088   2.682   1.929   8.277  0.4359  0.6076  2.6139
  184SOPE  C21721089   2.883   1.954   8.339 -0.3701  0.2307  0.5710
  184SOPE  H17R21090   2.833   2.008   8.422 -2.4658 -1.9261  0.8367
  184SOPE  H17S21091   2.973   2.009   8.306 -0.0179 -0.0954  0.9713
  184SOPE  C21821092   2.928   1.816   8.385 -0.3089  0.3707  0.0473
  184SOPE  H18R21093   2.931   1.744   8.300  1.5808  2.0113 -1.3638
  184SOPE  H18S21094   2.847   1.777   8.450 -0.9938  2.1733  0.3403
  184SOPE  H18T21095   3.027   1.805   8.433 -0.2105  0.2705 -0.1733
  184SOPE   C3321096   3.343   1.870   6.748  0.2820 -0.3429 -0.3310
  184SOPE   H3X21097   3.347   1.974   6.707 -2.5543 -0.7056 -1.8169
  184SOPE   H3Y21098   3.428   1.810   6.709  2.9130  2.3043  0.9309
  184SOPE   C3421099   3.340   1.863   6.899  0.8131 -0.2644  0.2046
  184SOPE   H4X21100   3.261   1.930   6.940  0.5844  0.6687 -1.6512
  184SOPE   H4Y21101   3.441   1.897   6.933  0.7504 -0.0281  0.1576
  184SOPE   C3521102   3.332   1.728   6.970  0.1644 -0.5510 -0.0983
  184SOPE   H5X21103   3.388   1.650   6.915 -0.2932  0.3428 -1.9069
  184SOPE   H5Y21104   3.225   1.698   6.971 -0.6141  1.9919  0.7294
  184SOPE   C3621105   3.371   1.728   7.117  0.1233  1.1032 -0.4368
  184SOPE   H6X21106   3.476   1.763   7.122  1.8244 -3.2689 -0.7926
  184SOPE   H6Y21107   3.370   1.623   7.154 -1.1653  1.5001  0.7153
  184SOPE   C3721108   3.277   1.820   7.189 -0.2232 -0.3229 -0.2551
  184SOPE   H7X21109   3.171   1.796   7.168 -0.6619  0.6158  0.7775
  184SOPE   H7Y21110   3.294   1.925   7.154  0.3721 -0.4439 -0.3500
  184SOPE   C3821111   3.281   1.809   7.340  0.3746  0.2791 -0.4161
  184SOPE   H8X21112   3.288   1.701   7.364 -1.8257  0.0017 -0.8243
  184SOPE   H8Y21113   3.188   1.854   7.381  0.1413 -0.7802  0.2527
  184SOPE   C3921114   3.389   1.889   7.406  0.2067  0.4606  1.1147
  184SOPE   H9X21115   3.382   1.992   7.367  3.0132 -0.4034 -2.1840
  184SOPE   H9Y21116   3.474   1.835   7.357 -0.4031 -0.5595  1.1404
  184SOPE  C31021117   3.384   1.881   7.557 -0.0375 -0.0911 -0.2655
  184SOPE  H10X21118   3.403   1.774   7.580 -1.3300 -0.5498 -1.1724
  184SOPE  H10Y21119   3.289   1.903   7.610 -0.9245 -0.4692 -1.6342
  184SOPE  C31121120   3.499   1.955   7.619 -0.3349  0.2160 -0.5763
  184SOPE  H11X21121   3.477   2.064   7.613 -0.0788  0.6177  3.1851
  184SOPE  H11Y21122   3.587   1.940   7.553 -1.6185 -1.5493 -1.9854
  184SOPE  C31221123   3.509   1.919   7.765 -0.6479 -0.0694 -0.7945
  184SOPE  H12X21124   3.524   1.811   7.787 -0.6212  0.3441  1.5017
  184SOPE  H12Y21125   3.411   1.933   7.815  0.4995 -1.2858  2.0548
  184SOPE  C31321126   3.599   2.008   7.853 -0.1977 -0.5639  0.5291
  184SOPE  H13X21127   3.549   2.106   7.855 -1.7419 -1.3038 -0.2156
  184SOPE  H13Y21128   3.705   2.009   7.819 -0.5240  0.6083 -0.4926
  184SOPE  C31421129   3.606   1.968   7.998 -0.4427 -0.3066  0.5057
  184SOPE  H14X21130   3.630   1.860   7.999  0.5195 -0.2458 -3.1536
  184SOPE  H14Y21131   3.513   1.988   8.056 -0.5056  1.6763 -0.2014
  184SOPE  C31521132   3.728   2.036   8.072 -0.0423  0.6615 -0.5211
  184SOPE  H15X21133   3.733   2.145   8.056 -2.9499  0.9527  0.0040
  184SOPE  H15Y21134   3.824   1.993   8.037 -0.2672  0.0950 -0.4617
  184SOPE  C31621135   3.715   2.009   8.226 -0.4920 -0.7100 -0.1180
  184SOPE  H16X21136   3.639   2.073   8.276  1.6835  1.1535  0.9522
  184SOPE  H16Y21137   3.809   2.036   8.278  0.0739 -3.4436  0.4724
  184SOPE  C31721138   3.682   1.864   8.256 -0.5388 -0.1491 -0.0564
  184SOPE  H17X21139   3.754   1.797   8.204 -1.8659 -0.6911 -1.2727
  184SOPE  H17Y21140   3.582   1.829   8.222 -0.4265 -1.8706  1.2481
  184SOPE  C31821141   3.699   1.835   8.402  0.4811 -0.8235  0.1506
  184SOPE  H18X21142   3.803   1.858   8.432  1.0374 -1.4688 -1.2137
  184SOPE  H18Y21143   3.692   1.726   8.423 -1.6536 -0.6659  0.5553
  184SOPE  H18Z21144   3.626   1.885   8.469 -0.5887 -2.1919  0.0767
  185SAPI   C1221145   6.491   1.068  10.886  0.6845  0.1038  0.6731
  185SAPI    H221146   6.493   0.990  10.807  1.7038 -1.2281  1.9595
  185SAPI    O221147   6.625   1.122  10.899  0.8544 -0.3649 -0.7308
  185SAPI   HO221148   6.677   1.049  10.933  1.9099  0.2465 -1.0054
  185SAPI   C1321149   6.404   1.175  10.834 -0.2831  0.1594  0.1592
  185SAPI    H321150   6.302   1.132  10.822  0.7462 -1.5397 -4.4589
  185SAPI    O321151   6.440   1.217  10.700  0.2242 -0.2562 -0.1852
  185SAPI   HO321152   6.518   1.271  10.714 -1.3795  2.0341  0.4622
  185SAPI   C1421153   6.390   1.285  10.936 -0.0149 -0.5544 -0.5881
  185SAPI    H421154   6.491   1.330  10.944 -0.3031 -0.1293  1.2546
  185SAPI    O421155   6.305   1.398  10.887 -0.2972 -0.1108 -0.8165
  185SAPI   HO421156   6.370   1.461  10.855  1.3671 -0.9407  0.7603
  185SAPI   C1521157   6.348   1.241  11.073 -0.4002  0.6072  0.1064
  185SAPI    H521158   6.244   1.203  11.065 -1.3805  2.7874  1.5738
  185SAPI    O521159   6.343   1.350  11.169 -0.3856  0.0672  0.5941
  185SAPI   HO521160   6.432   1.371  11.198 -1.0115 -0.1295  2.7938
  185SAPI   C1621161   6.429   1.127  11.120  0.4038 -0.6464  0.8352
  185SAPI    H621162   6.531   1.171  11.128  0.3346  0.1574 -1.7438
  185SAPI    O621163   6.373   1.074  11.245  0.1920 -0.0885  0.0395
  185SAPI   HO621164   6.280   1.056  11.230 -0.4287  2.2309  0.6362
  185SAPI   C1121165   6.438   1.012  11.018 -0.5580  0.2273 -0.1437
  185SAPI    H121166   6.337   0.972  10.995 -0.3520 -1.7350  2.0402
  185SAPI     P21167   6.499   0.757  11.060 -0.2434  0.0877  0.0905
  185SAPI   O1321168   6.360   0.734  11.111  0.3907  0.6899 -0.1800
  185SAPI   O1421169   6.604   0.670  11.125  0.0869  0.3465  0.3653
  185SAPI   O1221170   6.534   0.919  11.065 -0.0092 -0.2488  0.1630
  185SAPI   O1121171   6.502   0.712  10.909  0.1976  0.1669 -0.4061
  185SAPI    C121172   6.386   0.653  10.847 -0.5344  1.0117 -0.2619
  185SAPI    HA21173   6.342   0.572  10.908  1.3761 -0.0181 -0.1585
  185SAPI    HB21174   6.304   0.727  10.838 -0.1908  1.3702 -0.5557
  185SAPI    C221175   6.425   0.574  10.717 -0.3286  0.2492 -0.0209
  185SAPI    HS21176   6.504   0.502  10.746  1.6850  2.6071  0.6542
  185SAPI   O2121177   6.466   0.657  10.612  0.1337 -0.4067  0.1459
  185SAPI   C2121178   6.593   0.670  10.601 -0.4250 -0.2511 -0.7143
  185SAPI   O2221179   6.680   0.622  10.670 -0.1252 -0.0311  0.2999
  185SAPI   C2221180   6.622   0.773  10.491 -0.0207  0.2326 -0.7432
  185SAPI   H2R21181   6.547   0.768  10.409 -1.2274  1.5342  0.2428
  185SAPI   H2S21182   6.615   0.870  10.545 -0.7342  0.0565 -0.5079
  185SAPI    C321183   6.298   0.484  10.678 -0.1626 -0.0364  0.2969
  185SAPI    HX21184   6.215   0.558  10.671 -1.5069 -1.6580 -2.1893
  185SAPI    HY21185   6.272   0.412  10.759  1.7059 -0.3201  0.6918
  185SAPI   O3121186   6.305   0.429  10.549 -0.6294  0.5065 -0.2955
  185SAPI   C3121187   6.397   0.323  10.543  0.2662  0.0712  0.5727
  185SAPI   O3221188   6.470   0.285  10.636  1.2133 -0.5194 -0.1500
  185SAPI   C3221189   6.405   0.284  10.395  0.3753  0.2514  0.6072
  185SAPI   H2X21190   6.324   0.334  10.338  0.0380 -2.3907 -1.4155
  185SAPI   H2Y21191   6.378   0.176  10.395  1.0557  0.0713  0.2138
  185SAPI   C2321192   6.772   0.755  10.436  0.3885 -0.1868 -0.4549
  185SAPI   H3R21193   6.784   0.659  10.383  2.2746 -1.1111  1.4729
  185SAPI   H3S21194   6.850   0.754  10.516  1.2759 -0.0392 -1.3072
  185SAPI   C2421195   6.801   0.867  10.340  0.2736 -0.5214 -0.1751
  185SAPI   H4R21196   6.802   0.968  10.385  1.1017 -0.4219 -0.4022
  185SAPI   H4S21197   6.712   0.857  10.274  1.3346 -2.2189 -1.4557
  185SAPI   C2521198   6.917   0.830  10.249 -0.8919  0.2714  0.5336
  185SAPI   H5R21199   7.018   0.850  10.288 -0.0304  1.0642 -1.8984
  185SAPI   C2621200   6.910   0.773  10.129  0.4029 -0.0370 -0.6157
  185SAPI   H6R21201   7.001   0.763  10.068  0.2702 -0.6844 -0.7192
  185SAPI   C2721202   6.785   0.735  10.054  0.2457 -0.4928  0.1352
  185SAPI   H7R21203   6.744   0.827  10.006  1.9617  0.2457  0.0268
  185SAPI   H7S21204   6.712   0.701  10.130  1.9758 -3.9779  0.4225
  185SAPI   C2821205   6.813   0.620   9.961 -0.1187 -0.0130  0.2380
  185SAPI   H8R21206   6.901   0.560   9.986 -0.7361 -1.1465 -0.2462
  185SAPI   C2921207   6.739   0.590   9.859  0.4238  0.1984  0.3431
  185SAPI   H9R21208   6.783   0.511   9.796 -1.6639 -0.4160 -0.4057
  185SAPI  C21021209   6.605   0.656   9.812  0.2705 -0.7485  0.0768
  185SAPI  H10R21210   6.563   0.699   9.906  1.1929  0.0140  0.1547
  185SAPI  H10S21211   6.549   0.560   9.799 -0.8482 -0.1413  0.2345
  185SAPI  C21121212   6.620   0.743   9.694 -0.5521 -0.6588  1.0511
  185SAPI  H11R21213   6.647   0.848   9.714  1.9675 -0.8361 -0.9713
  185SAPI  C21221214   6.595   0.707   9.566  0.1369 -0.1000  0.4159
  185SAPI  H12R21215   6.601   0.784   9.488 -0.3178  1.1660  1.6015
  185SAPI  C21321216   6.556   0.571   9.512  0.0370 -0.1623  0.6650
  185SAPI  H13R21217   6.513   0.506   9.591  1.6014 -0.6781  1.1316
  185SAPI  H13S21218   6.647   0.516   9.480  0.0997 -0.3527  1.1669
  185SAPI  C21421219   6.464   0.585   9.386 -0.3183 -0.3065 -0.3564
  185SAPI  H14R21220   6.361   0.606   9.419 -0.3092 -0.5263 -0.1789
  185SAPI  C21521221   6.489   0.560   9.254  0.3953  0.9132  0.8494
  185SAPI  H15R21222   6.413   0.566   9.174  2.3072 -1.8269 -1.3835
  185SAPI  C21621223   6.631   0.528   9.195 -1.0929  0.5931 -0.6176
  185SAPI  H16R21224   6.623   0.438   9.131  1.0972  0.6428 -1.0468
  185SAPI  H16S21225   6.707   0.497   9.270 -0.5538  0.4380 -1.2195
  185SAPI  C21721226   6.693   0.637   9.105  0.9046  0.0277  0.1624
  185SAPI  H17R21227   6.672   0.733   9.156  0.5514  0.1022 -0.1242
  185SAPI  H17S21228   6.648   0.634   9.004  2.6870 -2.5124 -0.6578
  185SAPI  C21821229   6.844   0.629   9.103  0.2048  0.4534  0.7955
  185SAPI  H18R21230   6.884   0.605   9.204  0.3400 -0.4544  0.5382
  185SAPI  H18S21231   6.889   0.725   9.072  0.6980 -0.4658 -1.5664
  185SAPI  C21921232   6.882   0.526   8.996 -0.1873  0.3989 -0.8016
  185SAPI  H19R21233   6.819   0.543   8.907 -0.2931 -0.2031 -0.8489
  185SAPI  H19S21234   6.853   0.428   9.040  1.8834  0.4800  0.9560
  185SAPI  C22021235   7.033   0.520   8.963  0.1718 -0.6679  0.7455
  185SAPI  H20R21236   7.058   0.621   8.925 -1.3607 -0.8220 -0.7727
  185SAPI  H20S21237   7.062   0.446   8.886  2.0896  1.0600 -0.2945
  185SAPI  H20T21238   7.097   0.502   9.053 -1.9910 -0.1635  2.4655
  185SAPI   C3321239   6.539   0.318  10.329 -0.3004 -0.3738 -0.3911
  185SAPI   H3X21240   6.610   0.256  10.386 -1.6653 -1.1097  0.5626
  185SAPI   H3Y21241   6.555   0.427  10.345  0.2258 -0.1793 -2.0296
  185SAPI   C3421242   6.538   0.278  10.186 -0.2775  0.1818 -0.6260
  185SAPI   H4X21243   6.502   0.173  10.188 -0.6546  0.3116 -0.6393
  185SAPI   H4Y21244   6.642   0.291  10.149  0.4546 -0.3814  1.1363
  185SAPI   C3521245   6.454   0.365  10.079 -0.0310  0.1639  0.2190
  185SAPI   H5X21246   6.496   0.467  10.091 -0.9315  0.5507  0.1826
  185SAPI   H5Y21247   6.350   0.340  10.112  0.5423 -0.7630  1.4082
  185SAPI   C3621248   6.474   0.322   9.929 -0.1853 -0.4027  0.6804
  185SAPI   H6X21249   6.580   0.345   9.906 -0.4867  2.2666  1.5460
  185SAPI   H6Y21250   6.394   0.375   9.872  0.7700 -2.7070 -3.1495
  185SAPI   C3721251   6.465   0.173   9.908  0.6259 -1.0336  0.6267
  185SAPI   H7X21252   6.366   0.159   9.956  0.1386  0.7900  0.2323
  185SAPI   H7Y21253   6.547   0.120   9.960  0.0870 -4.0656 -1.3982
  185SAPI   C3821254   6.464   0.123   9.761  0.3321  0.2139 -0.5604
  185SAPI   H8X21255   6.414   0.024   9.764 -0.0236  0.3896  1.7015
  185SAPI   H8Y21256   6.561   0.100   9.712 -0.5919  1.3108 -3.0765
  185SAPI   C3921257   6.385   0.208   9.665  0.5026 -0.7655  0.0892
  185SAPI   H9X21258   6.422   0.313   9.666  0.3457 -0.7078  1.2877
  185SAPI   H9Y21259   6.283   0.205   9.711  0.1436 -3.4666 -0.6692
  185SAPI  C31021260   6.381   0.163   9.520  0.0175 -0.4732 -0.9000
  185SAPI  H10X21261   6.351   0.057   9.504 -2.1023  0.0984 -1.0518
  185SAPI  H10Y21262   6.483   0.168   9.477 -0.3857 -0.0745 -1.8325
  185SAPI  C31121263   6.286   0.248   9.437 -0.3446 -0.2193 -0.9723
  185SAPI  H11X21264   6.306   0.355   9.459  2.2223 -1.0729  1.4024
  185SAPI  H11Y21265   6.184   0.216   9.466  0.7781 -0.7309  3.0399
  185SAPI  C31221266   6.317   0.233   9.285  0.4846  0.3211  0.4951
  185SAPI  H12X21267   6.303   0.129   9.249 -2.7655  0.8801 -0.1598
  185SAPI  H12Y21268   6.419   0.274   9.270 -0.5621  2.2027 -2.2886
  185SAPI  C31321269   6.217   0.319   9.194 -0.2217  1.0880 -0.7713
  185SAPI  H13X21270   6.228   0.424   9.229 -1.1837  0.1322  2.8533
  185SAPI  H13Y21271   6.114   0.290   9.224  0.3070  0.3280  0.3628
  185SAPI  C31421272   6.234   0.293   9.047 -0.3807 -0.1224 -0.6082
  185SAPI  H14X21273   6.156   0.357   8.999  0.0301 -0.4441 -1.7370
  185SAPI  H14Y21274   6.213   0.186   9.025 -1.4617 -0.2412  0.8475
  185SAPI  C31521275   6.369   0.350   8.995 -1.1084  0.3877 -0.5763
  185SAPI  H15X21276   6.465   0.322   9.045  0.9590  5.1992 -1.2851
  185SAPI  H15Y21277   6.392   0.459   8.998  1.2969 -0.0336 -1.4006
  185SAPI  C31621278   6.400   0.309   8.852  0.3537  0.7403  1.2462
  185SAPI  H16X21279   6.376   0.202   8.834 -0.0600  0.9803  0.3322
  185SAPI  H16Y21280   6.504   0.317   8.812 -0.8002  0.4022 -2.1199
  185SAPI  C31721281   6.329   0.401   8.753 -0.6042  0.1728 -0.4361
  185SAPI  H17X21282   6.363   0.506   8.745 -2.8012  0.7485 -4.3052
  185SAPI  H17Y21283   6.219   0.401   8.769 -0.4465 -1.3393  1.0446
  185SAPI  C31821284   6.353   0.346   8.615 -0.0805  0.1406 -0.2293
  185SAPI  H18X21285   6.283   0.395   8.544 -1.2789 -1.6915 -0.3922
  185SAPI  H18Y21286   6.339   0.236   8.616 -0.0178  0.1365  0.6132
  185SAPI  H18Z21287   6.457   0.362   8.580  1.1591  1.0670  3.4929
  186SAPI   C1221288   6.473   4.422  10.833 -0.0866 -0.8739  0.0910
  186SAPI    H221289   6.478   4.433  10.722  1.3227 -1.1480  0.1136
  186SAPI    O221290   6.603   4.392  10.876 -0.7353 -0.3138 -0.5160
  186SAPI   HO221291   6.615   4.299  10.857 -1.4331 -0.3015 -1.0269
  186SAPI   C1321292   6.417   4.550  10.896 -0.4685 -0.3120 -0.2217
  186SAPI    H321293   6.308   4.567  10.879 -1.0755 -1.9399  1.6122
  186SAPI    O321294   6.483   4.667  10.844  0.2435 -0.0288 -0.3544
  186SAPI   HO321295   6.575   4.665  10.871  0.4720 -1.3973 -1.1332
  186SAPI   C1421296   6.424   4.535  11.048 -0.5268  0.3553  0.3531
  186SAPI    H421297   6.533   4.529  11.069 -0.1193  1.1120 -1.3212
  186SAPI    O421298   6.378   4.651  11.109  0.3269  0.6680 -0.3262
  186SAPI   HO421299   6.285   4.666  11.091  0.1590  0.7923  0.5766
  186SAPI   C1521300   6.348   4.410  11.092  0.0366 -0.7324  0.4556
  186SAPI    H521301   6.242   4.433  11.065  0.5909 -0.4313 -1.5915
  186SAPI    O521302   6.347   4.388  11.229 -0.3427 -0.3439 -0.3099
  186SAPI   HO521303   6.436   4.383  11.264 -0.3311 -2.2453 -0.5137
  186SAPI   C1621304   6.382   4.283  11.015  0.4019  0.4900  0.0079
  186SAPI    H621305   6.481   4.244  11.048  1.0295  1.1188 -1.0510
  186SAPI    O621306   6.286   4.180  11.039 -0.3352 -0.8129 -0.2908
  186SAPI   HO621307   6.319   4.125  11.112 -2.2888  1.3184  2.4194
  186SAPI   C1121308   6.386   4.307  10.868 -0.1054 -0.4420 -0.0528
  186SAPI    H121309   6.281   4.340  10.849 -0.0647  0.4571  1.1460
  186SAPI     P21310   6.329   4.118  10.688  0.2333 -0.1229  0.2981
  186SAPI   O1321311   6.198   4.092  10.751 -0.2570 -0.0613 -0.1313
  186SAPI   O1421312   6.396   3.998  10.633  0.1016  0.0628 -0.0795
  186SAPI   O1221313   6.424   4.191  10.792 -1.0898 -0.2044 -0.4155
  186SAPI   O1121314   6.313   4.225  10.576 -0.1759  0.4484 -0.4842
  186SAPI    C121315   6.410   4.255  10.477 -0.3928 -0.2606  0.4372
  186SAPI    HA21316   6.380   4.357  10.445 -1.5002 -0.7341 -0.0675
  186SAPI    HB21317   6.515   4.269  10.511  0.3243 -0.7450 -1.4408
  186SAPI    C221318   6.416   4.162  10.355 -0.3954  0.2498 -0.0764
  186SAPI    HS21319   6.478   4.074  10.382  1.4025  1.4569 -0.1053
  186SAPI   O2121320   6.468   4.232  10.240  0.1078  0.9832  0.1787
  186SAPI   C2121321   6.600   4.217  10.231 -0.4480 -0.2634 -0.1466
  186SAPI   O2221322   6.676   4.179  10.319  0.1897  0.8813 -0.2106
  186SAPI   C2221323   6.645   4.261  10.091 -0.0821 -0.3088  0.1445
  186SAPI   H2R21324   6.580   4.221  10.010  0.3237  0.7047 -0.7020
  186SAPI   H2S21325   6.630   4.370  10.082 -0.9716 -0.1726  2.6053
  186SAPI    C321326   6.270   4.114  10.335  0.1252  0.0630  0.1983
  186SAPI    HX21327   6.189   4.180  10.373 -1.3806 -1.8681  0.4899
  186SAPI    HY21328   6.256   4.018  10.389  0.0434 -0.1140 -0.1340
  186SAPI   O3121329   6.245   4.079  10.199  0.4074  0.5424 -0.0099
  186SAPI   C3121330   6.169   4.154  10.129 -0.2218 -0.7339  0.3429
  186SAPI   O3221331   6.109   4.253  10.165  0.4640  0.4718  0.8554
  186SAPI   C3221332   6.175   4.094   9.986  0.5399 -0.5922 -0.2082
  186SAPI   H2X21333   6.195   3.985   9.995 -0.0312 -0.7902 -1.2746
  186SAPI   H2Y21334   6.253   4.146   9.926  0.3828  0.1268  0.2037
  186SAPI   C2321335   6.799   4.214  10.062 -0.0881 -0.1136 -0.1491
  186SAPI   H3R21336   6.817   4.107  10.082 -1.8807 -0.2754  0.8231
  186SAPI   H3S21337   6.861   4.275  10.132  2.2938 -0.8175 -1.5356
  186SAPI   C2421338   6.837   4.250   9.914  0.0286 -0.2836 -0.4016
  186SAPI   H4R21339   6.778   4.181   9.849  1.6038 -1.0868 -1.0336
  186SAPI   H4S21340   6.941   4.213   9.907 -0.9499 -3.1610 -1.2408
  186SAPI   C2521341   6.818   4.387   9.874 -0.1982  0.0812  0.6551
  186SAPI   H5R21342   6.840   4.469   9.945  1.7804  1.7324 -1.6857
  186SAPI   C2621343   6.784   4.439   9.750  0.0554 -0.4110 -0.3624
  186SAPI   H6R21344   6.777   4.548   9.735  1.9081 -0.2923 -0.5734
  186SAPI   C2721345   6.768   4.371   9.616 -0.1797 -0.1673 -0.4478
  186SAPI   H7R21346   6.802   4.266   9.627 -1.7968 -0.6104  0.7078
  186SAPI   H7S21347   6.822   4.436   9.544 -1.4457  1.3593 -0.0858
  186SAPI   C2821348   6.615   4.363   9.591 -0.1759 -0.7419 -0.0854
  186SAPI   H8R21349   6.562   4.278   9.636 -3.0013 -0.4974 -2.6357
  186SAPI   C2921350   6.553   4.450   9.507  0.4568 -0.4590  0.3627
  186SAPI   H9R21351   6.443   4.445   9.507  0.4430 -1.0544  2.1542
  186SAPI  C21021352   6.604   4.566   9.423 -0.8799  0.4781 -0.3654
  186SAPI  H10R21353   6.611   4.530   9.319  1.7541  0.4224 -0.2485
  186SAPI  H10S21354   6.712   4.586   9.444 -0.7381  0.5317 -1.1252
  186SAPI  C21121355   6.516   4.685   9.442  0.7681 -0.2363 -0.0400
  186SAPI  H11R21356   6.527   4.750   9.530  1.2915 -2.0849  1.3135
  186SAPI  C21221357   6.446   4.752   9.349  0.2167  0.6014  0.4778
  186SAPI  H12R21358   6.394   4.844   9.380 -2.7800 -1.1628  1.0391
  186SAPI  C21321359   6.427   4.722   9.204 -0.2094 -0.6484 -0.0670
  186SAPI  H13R21360   6.318   4.736   9.186 -0.5118 -2.5771  0.0460
  186SAPI  H13S21361   6.449   4.618   9.171  0.3062 -0.5411 -0.0689
  186SAPI  C21421362   6.519   4.802   9.117  0.2645 -0.0788 -0.1545
  186SAPI  H14R21363   6.621   4.812   9.157 -0.2115  1.9622  0.6856
  186SAPI  C21521364   6.495   4.841   8.991 -0.1269  0.2494 -1.2758
  186SAPI  H15R21365   6.568   4.906   8.942  2.2045 -0.4926  0.9698
  186SAPI  C21621366   6.365   4.818   8.914  0.2413  0.7252 -0.3926
  186SAPI  H16R21367   6.296   4.904   8.928 -0.2018  0.4449 -0.8251
  186SAPI  H16S21368   6.310   4.729   8.951  0.0867  1.0731  0.2278
  186SAPI  C21721369   6.374   4.800   8.764 -0.0530 -0.7195 -0.7562
  186SAPI  H17R21370   6.406   4.901   8.728 -2.4511  0.3080 -0.1735
  186SAPI  H17S21371   6.274   4.773   8.726 -0.6603 -1.5677  1.3304
  186SAPI  C21821372   6.474   4.693   8.708 -0.8584 -0.1797 -0.1614
  186SAPI  H18R21373   6.459   4.605   8.774 -1.4690 -0.2148 -0.3364
  186SAPI  H18S21374   6.575   4.727   8.738 -0.7172  0.1248 -0.9518
  186SAPI  C21921375   6.442   4.653   8.569 -0.7344 -0.8231  0.5156
  186SAPI  H19R21376   6.358   4.580   8.576 -0.4695 -1.1496  0.3092
  186SAPI  H19S21377   6.523   4.594   8.520 -0.1174 -0.0853  0.6358
  186SAPI  C22021378   6.415   4.762   8.465  0.3544 -0.6041  0.5360
  186SAPI  H20R21379   6.314   4.806   8.481  0.0150 -0.4321 -1.7725
  186SAPI  H20S21380   6.414   4.724   8.361  1.4615  1.4052 -0.2675
  186SAPI  H20T21381   6.484   4.847   8.484 -0.3101 -0.0833  0.6437
  186SAPI   C3321382   6.033   4.104   9.920 -0.0435  0.1822  0.3200
  186SAPI   H3X21383   5.996   4.208   9.936 -0.0392 -0.1992  3.1668
  186SAPI   H3Y21384   5.959   4.039   9.969  0.4001 -1.7758 -1.4644
  186SAPI   C3421385   6.035   4.071   9.769 -0.8803  0.0175  0.4982
  186SAPI   H4X21386   6.092   3.979   9.745  0.4131  0.2186  2.5445
  186SAPI   H4Y21387   6.109   4.138   9.721  1.9167 -1.7505  2.0246
  186SAPI   C3521388   5.903   4.076   9.699 -0.4049 -0.0818 -0.2693
  186SAPI   H5X21389   5.840   4.154   9.747 -2.5409 -0.7900 -1.7752
  186SAPI   H5Y21390   5.846   3.983   9.720  1.3931 -1.2783 -0.4674
  186SAPI   C3621391   5.908   4.101   9.548 -0.5012 -0.1566  0.0140
  186SAPI   H6X21392   5.969   4.012   9.519  0.9115  0.5271  0.8139
  186SAPI   H6Y21393   5.964   4.191   9.518  2.7001 -2.2717 -0.8572
  186SAPI   C3721394   5.762   4.098   9.489  0.3550  0.7964 -1.2224
  186SAPI   H7X21395   5.758   4.137   9.385  0.3800  2.1740 -0.7266
  186SAPI   H7Y21396   5.695   4.157   9.554 -1.1628  0.3151 -2.2867
  186SAPI   C3821397   5.722   3.949   9.469  0.1397  0.7238  0.0621
  186SAPI   H8X21398   5.611   3.954   9.467  0.0134 -1.2329 -2.4909
  186SAPI   H8Y21399   5.756   3.886   9.554 -0.8963  0.8283  0.5748
  186SAPI   C3921400   5.768   3.891   9.337  0.1303  0.4659  0.0156
  186SAPI   H9X21401   5.791   3.782   9.348  0.8376  0.4435 -1.4321
  186SAPI   H9Y21402   5.859   3.950   9.312  0.2696  0.6077  0.8274
  186SAPI  C31021403   5.683   3.927   9.218 -0.3470 -0.3253 -0.5560
  186SAPI  H10X21404   5.670   4.036   9.197 -0.6071 -0.2578 -0.0612
  186SAPI  H10Y21405   5.584   3.878   9.232 -0.6618 -0.2021 -2.1609
  186SAPI  C31121406   5.725   3.872   9.083 -0.8685  0.0265 -0.5100
  186SAPI  H11X21407   5.734   3.761   9.086 -0.1361  0.0332 -1.7168
  186SAPI  H11Y21408   5.823   3.919   9.060 -0.4095 -0.7032 -0.0701
  186SAPI  C31221409   5.639   3.916   8.965  0.6081 -0.1666  0.8512
  186SAPI  H12X21410   5.626   4.026   8.978  2.1232  0.3872 -1.6450
  186SAPI  H12Y21411   5.539   3.869   8.976  0.5272 -0.1500  0.1809
  186SAPI  C31321412   5.694   3.901   8.818 -0.8922 -0.3882  0.1111
  186SAPI  H13X21413   5.752   3.806   8.816 -1.0360 -0.4698 -0.3030
  186SAPI  H13Y21414   5.758   3.991   8.805 -1.0871 -0.2557  0.0768
  186SAPI  C31421415   5.587   3.916   8.703 -1.0814 -0.3795 -0.1370
  186SAPI  H14X21416   5.534   4.009   8.731 -1.0219 -1.3056  3.6064
  186SAPI  H14Y21417   5.512   3.834   8.715 -1.7497  0.6508  4.8012
  186SAPI  C31521418   5.642   3.911   8.561  0.3073  0.0715  0.1286
  186SAPI  H15X21419   5.747   3.948   8.566  0.2257  0.1595  2.3395
  186SAPI  H15Y21420   5.570   3.965   8.496 -1.4900 -1.5030  0.7428
  186SAPI  C31621421   5.664   3.767   8.498  0.5882 -0.4549 -0.1689
  186SAPI  H16X21422   5.559   3.733   8.503 -0.0648  1.1738 -1.7228
  186SAPI  H16Y21423   5.732   3.719   8.571  1.2423  0.4727 -0.1498
  186SAPI  C31721424   5.722   3.778   8.353  0.0397  0.0839  0.0390
  186SAPI  H17X21425   5.738   3.673   8.320  1.3057  0.2709  0.0329
  186SAPI  H17Y21426   5.821   3.826   8.367  0.6986 -0.6449 -1.8497
  186SAPI  C31821427   5.650   3.865   8.259  0.1673  0.2497  0.8878
  186SAPI  H18X21428   5.551   3.815   8.254  1.5506 -2.7166  1.0664
  186SAPI  H18Y21429   5.702   3.865   8.161 -0.0499  1.7924  0.7485
  186SAPI  H18Z21430   5.640   3.970   8.296  2.4122  0.2252  1.7444
  187SAPI   C1221431   3.865   5.037   5.983  0.3222 -0.1425  0.0932
  187SAPI    H221432   3.951   5.107   5.971 -1.0441  1.5606 -0.2648
  187SAPI    O221433   3.749   5.089   5.918 -0.5606  0.1299  0.0069
  187SAPI   HO221434   3.754   5.185   5.916  0.9468  0.0602 -0.2281
  187SAPI   C1321435   3.916   4.905   5.929  0.5002  0.1184  0.9548
  187SAPI    H321436   3.996   4.862   5.992  2.6116 -2.9381 -3.3227
  187SAPI    O321437   3.962   4.917   5.795  0.1572 -0.2107  0.8270
  187SAPI   HO321438   4.008   4.839   5.766  0.6379  0.1146  0.7024
  187SAPI   C1421439   3.797   4.809   5.939 -0.0445  0.0674 -0.1618
  187SAPI    H421440   3.704   4.837   5.885 -0.4378  1.3999  1.1275
  187SAPI    O421441   3.831   4.679   5.888  0.2381 -0.0533  0.1636
  187SAPI   HO421442   3.884   4.630   5.951  1.8333 -1.9981 -2.4867
  187SAPI   C1521443   3.737   4.798   6.086 -0.0942  0.5623 -0.1017
  187SAPI    H521444   3.817   4.742   6.139  0.0542 -1.1106 -1.9511
  187SAPI    O521445   3.622   4.715   6.092  0.2119  0.2324  0.2361
  187SAPI   HO521446   3.550   4.771   6.122 -0.5431  0.0183 -1.0847
  187SAPI   C1621447   3.716   4.937   6.148 -0.6283 -0.1885 -0.2977
  187SAPI    H621448   3.629   4.989   6.101 -1.1089  0.9455  1.7527
  187SAPI    O621449   3.683   4.915   6.287  0.2204 -0.1266 -0.3754
  187SAPI   HO621450   3.612   4.977   6.305  1.9025  2.0554 -0.7762
  187SAPI   C1121451   3.838   5.024   6.130  0.1847  0.0134  0.2497
  187SAPI    H121452   3.930   4.975   6.170  0.3724 -0.3272 -0.5669
  187SAPI     P21453   3.909   5.258   6.244 -0.0309  0.1751  0.2627
  187SAPI   O1321454   3.858   5.397   6.222 -0.2740 -0.4101 -0.2993
  187SAPI   O1421455   4.051   5.232   6.214 -0.0412 -0.4811 -0.1830
  187SAPI   O1221456   3.808   5.150   6.182  0.6454 -0.3565 -0.5284
  187SAPI   O1121457   3.881   5.224   6.402  0.2427 -0.1178  0.7407
  187SAPI    C121458   3.933   5.098   6.448 -0.5449  0.1245 -0.7354
  187SAPI    HA21459   3.891   5.010   6.396 -0.2575 -0.6946  0.3682
  187SAPI    HB21460   4.044   5.096   6.438 -0.3909  0.6631  0.5902
  187SAPI    C221461   3.901   5.072   6.601 -0.1188  0.3046 -0.7067
  187SAPI    HS21462   3.801   5.024   6.605  0.1159 -0.1296  0.7416
  187SAPI   O2121463   3.901   5.200   6.668 -0.1820  0.2748  0.3583
  187SAPI   C2121464   3.840   5.218   6.784 -0.0040  0.0512 -0.8273
  187SAPI   O2221465   3.766   5.132   6.832 -0.2356 -0.0561 -0.0237
  187SAPI   C2221466   3.856   5.354   6.847 -0.5579  0.0472 -0.4617
  187SAPI   H2R21467   3.918   5.416   6.778 -0.6817 -0.7526 -1.3108
  187SAPI   H2S21468   3.758   5.404   6.860  0.5603  1.8021  1.9177
  187SAPI    C321469   3.999   4.968   6.664 -0.0904 -0.0024  0.4887
  187SAPI    HX21470   4.100   5.009   6.642  0.1575 -0.4040  0.8463
  187SAPI    HY21471   3.988   4.877   6.602  2.5270 -0.0764  0.0244
  187SAPI   O3121472   3.985   4.934   6.803 -0.1047  0.3666  0.2171
  187SAPI   C3121473   4.079   4.972   6.881 -0.4411  0.2889  0.3398
  187SAPI   O3221474   4.171   5.048   6.865 -0.3755 -0.1648  0.3163
  187SAPI   C3221475   4.049   4.920   7.014 -0.4948 -0.5999  0.1028
  187SAPI   H2X21476   3.995   4.824   7.002  2.1081 -1.9901 -1.3960
  187SAPI   H2Y21477   3.981   4.997   7.057  0.1138  0.7430 -1.2744
  187SAPI   C2321478   3.921   5.334   6.989  0.3782 -0.4906 -0.2156
  187SAPI   H3R21479   3.966   5.433   7.014  0.1482 -0.6496  0.8845
  187SAPI   H3S21480   4.011   5.269   6.988  0.5758 -0.2239 -0.1637
  187SAPI   C2421481   3.817   5.308   7.097  0.2112  1.1038 -0.0494
  187SAPI   H4R21482   3.755   5.222   7.061  1.9041  0.4030 -1.4350
  187SAPI   H4S21483   3.739   5.386   7.106  1.3848  2.1658  1.3355
  187SAPI   C2521484   3.876   5.279   7.232  0.8789 -0.1986  0.7166
  187SAPI   H5R21485   3.945   5.350   7.279 -0.2683 -0.3445  2.7796
  187SAPI   C2621486   3.845   5.172   7.316 -0.8685 -0.5902 -0.4705
  187SAPI   H6R21487   3.910   5.149   7.402 -3.7864 -2.1545  1.4531
  187SAPI   C2721488   3.741   5.066   7.307 -0.1318  0.2559  0.5212
  187SAPI   H7R21489   3.713   5.043   7.202  3.6843  0.2679 -0.6726
  187SAPI   H7S21490   3.649   5.108   7.351  0.0682  1.4223 -0.1260
  187SAPI   C2821491   3.778   4.937   7.376 -0.3687 -0.3850  0.2203
  187SAPI   H8R21492   3.816   4.863   7.304  0.6316  0.6039 -0.2918
  187SAPI   C2921493   3.768   4.903   7.512  0.7349 -0.7231 -0.4848
  187SAPI   H9R21494   3.826   4.813   7.537  1.2512 -1.1545 -2.9400
  187SAPI  C21021495   3.702   4.992   7.621 -0.3164 -0.0455  0.2511
  187SAPI  H10R21496   3.602   4.951   7.648 -0.1119 -0.4861  0.3553
  187SAPI  H10S21497   3.681   5.096   7.588 -0.6559 -0.6233 -1.4714
  187SAPI  C21121498   3.797   5.014   7.738 -0.8708  0.4391  0.3539
  187SAPI  H11R21499   3.901   5.007   7.705 -1.3544  0.6613 -1.3166
  187SAPI  C21221500   3.756   5.025   7.866  0.3266 -0.5018 -0.2945
  187SAPI  H12R21501   3.831   5.026   7.947 -0.0675  0.3981  0.0634
  187SAPI  C21321502   3.609   5.025   7.916  0.4490 -0.3629  0.0404
  187SAPI  H13R21503   3.534   5.071   7.848 -1.0392  0.2146  1.9790
  187SAPI  H13S21504   3.608   5.091   8.005  0.3582 -1.5914  0.9603
  187SAPI  C21421505   3.561   4.892   7.966  0.2852  0.2124  0.3305
  187SAPI  H14R21506   3.500   4.845   7.888  1.3299  0.6953 -0.8262
  187SAPI  C21521507   3.593   4.834   8.080  0.1667  0.4498 -0.2279
  187SAPI  H15R21508   3.548   4.737   8.105  1.7815  0.6497  4.4442
  187SAPI  C21621509   3.678   4.899   8.187 -0.1370 -0.1522 -0.6615
  187SAPI  H16R21510   3.622   4.989   8.220  2.5906  1.4940 -0.2581
  187SAPI  H16S21511   3.772   4.944   8.149  0.3546 -0.0468  0.6371
  187SAPI  C21721512   3.716   4.807   8.309 -0.2419  1.0338 -0.6272
  187SAPI  H17R21513   3.624   4.762   8.352  0.4134  0.2851  0.0070
  187SAPI  H17S21514   3.759   4.871   8.388  0.3744  0.3598 -0.4026
  187SAPI  C21821515   3.823   4.704   8.268 -0.4540  0.2036  0.4443
  187SAPI  H18R21516   3.913   4.757   8.229 -1.4784  1.7016  0.0218
  187SAPI  H18S21517   3.787   4.642   8.183  1.4500  0.0580 -0.3080
  187SAPI  C21921518   3.867   4.604   8.383 -0.0505 -0.9400  0.1704
  187SAPI  H19R21519   3.773   4.564   8.428 -0.8617  0.4481 -0.2241
  187SAPI  H19S21520   3.923   4.661   8.460 -1.7968  0.3672  0.5643
  187SAPI  C22021521   3.951   4.480   8.330 -0.0607 -0.6247  0.0989
  187SAPI  H20R21522   3.903   4.439   8.239 -0.2036 -0.2503  0.0031
  187SAPI  H20S21523   3.952   4.399   8.406 -2.1934 -2.0811 -1.3086
  187SAPI  H20T21524   4.057   4.511   8.319 -0.0373 -1.4576 -2.6093
  187SAPI   C3321525   4.173   4.894   7.098  0.0360 -0.3596  0.4395
  187SAPI   H3X21526   4.236   4.986   7.102  0.9627 -1.0188  1.7053
  187SAPI   H3Y21527   4.231   4.809   7.057  2.1121  0.6435  1.1440
  187SAPI   C3421528   4.129   4.862   7.242  0.2457  0.2960 -0.8805
  187SAPI   H4X21529   4.084   4.760   7.238  1.4463 -0.2403 -1.4002
  187SAPI   H4Y21530   4.066   4.944   7.282  0.6460  0.3148 -0.2684
  187SAPI   C3521531   4.250   4.853   7.336 -0.1096 -0.7436 -0.1463
  187SAPI   H5X21532   4.282   4.958   7.355 -2.9762  0.1197  0.3914
  187SAPI   H5Y21533   4.327   4.793   7.283 -1.5752 -1.7349 -1.2496
  187SAPI   C3621534   4.232   4.778   7.470 -0.4375  0.6846 -0.4169
  187SAPI   H6X21535   4.314   4.705   7.486 -0.5403  0.3498 -1.3843
  187SAPI   H6Y21536   4.143   4.715   7.451 -0.1210  0.4596 -1.1812
  187SAPI   C3721537   4.212   4.872   7.592  0.1598 -0.2536  0.0655
  187SAPI   H7X21538   4.115   4.923   7.576  0.5802  0.2344 -1.0113
  187SAPI   H7Y21539   4.295   4.944   7.613  0.1419  0.0471 -0.8630
  187SAPI   C3821540   4.185   4.799   7.726  0.2786 -0.4554 -0.0467
  187SAPI   H8X21541   4.263   4.721   7.739  0.2659 -0.5806 -0.6916
  187SAPI   H8Y21542   4.088   4.745   7.718 -0.1765  0.1875  0.9100
  187SAPI   C3921543   4.182   4.894   7.848 -0.4720 -0.1081  0.1934
  187SAPI   H9X21544   4.126   4.987   7.824 -1.9620 -0.4337  2.1264
  187SAPI   H9Y21545   4.288   4.922   7.860  0.8665 -4.0998 -0.7864
  187SAPI  C31021546   4.140   4.830   7.979 -0.1548  0.4405  0.6151
  187SAPI  H10X21547   4.187   4.730   7.987  0.1804  0.3079 -1.9427
  187SAPI  H10Y21548   4.031   4.808   7.983  0.2320 -2.1509 -0.7430
  187SAPI  C31121549   4.172   4.916   8.100 -0.1700  0.0302 -0.3760
  187SAPI  H11X21550   4.277   4.951   8.097  0.1055 -0.8545 -2.3069
  187SAPI  H11Y21551   4.159   4.851   8.190 -0.7472  0.3152 -0.2501
  187SAPI  C31221552   4.081   5.038   8.120 -0.1148 -0.7688 -0.0981
  187SAPI  H12X21553   3.973   5.027   8.094 -0.4330  4.0114 -1.8085
  187SAPI  H12Y21554   4.107   5.110   8.040  0.1086 -0.6145  0.1125
  187SAPI  C31321555   4.099   5.098   8.261 -0.1621 -0.2531  0.4582
  187SAPI  H13X21556   4.072   5.206   8.263 -3.1192 -0.9066  0.5468
  187SAPI  H13Y21557   4.205   5.085   8.294 -0.1480 -0.4914  0.3200
  187SAPI  C31421558   4.011   5.036   8.379 -0.0970  1.0668 -0.0191
  187SAPI  H14X21559   4.040   4.929   8.390 -0.9149  0.7140 -1.1290
  187SAPI  H14Y21560   3.906   5.037   8.343 -0.3352  0.4998  0.6248
  187SAPI  C31521561   4.010   5.091   8.525 -0.6494 -0.1761 -0.2122
  187SAPI  H15X21562   3.961   5.189   8.539 -0.0686  0.1399 -0.3807
  187SAPI  H15Y21563   4.116   5.116   8.547 -0.3043 -2.4313  0.9710
  187SAPI  C31621564   3.969   4.994   8.633 -0.6804  0.3219 -0.7970
  187SAPI  H16X21565   3.868   4.954   8.611 -0.6234 -0.0785 -0.3301
  187SAPI  H16Y21566   3.961   5.030   8.738  1.6865  1.6080 -0.9892
  187SAPI  C31721567   4.080   4.889   8.646  0.7745  0.3212  0.4786
  187SAPI  H17X21568   4.173   4.946   8.665  0.3263  0.7221  1.5771
  187SAPI  H17Y21569   4.090   4.819   8.560 -2.8566 -0.3662  0.4650
  187SAPI  C31821570   4.060   4.790   8.760  0.8832 -0.0358  0.8268
  187SAPI  H18X21571   4.019   4.854   8.841 -0.3821  0.4789 -0.1699
  187SAPI  H18Y21572   4.153   4.739   8.792  2.2217  1.4318 -0.5791
  187SAPI  H18Z21573   3.976   4.723   8.731 -0.1028  1.1634  0.8427
  188SAPI   C1221574   5.790   3.904   6.304  0.2775  0.1607 -0.3078
  188SAPI    H221575   5.811   3.970   6.391 -3.3937 -1.7612  2.3517
  188SAPI    O221576   5.815   3.973   6.179 -0.7897  0.0979 -0.1087
  188SAPI   HO221577   5.846   4.062   6.199 -0.6574  0.0406 -0.0608
  188SAPI   C1321578   5.883   3.779   6.325 -0.4931 -0.9932 -0.6373
  188SAPI    H321579   5.867   3.732   6.424  1.1231 -0.0580  0.1178
  188SAPI    O321580   6.023   3.822   6.331 -0.2683 -0.0766 -0.2208
  188SAPI   HO321581   6.048   3.866   6.249  0.3810  2.1841  1.0851
  188SAPI   C1421582   5.854   3.686   6.204 -0.7157  0.2327 -0.6297
  188SAPI    H421583   5.895   3.726   6.109  0.3531  0.1643 -0.2100
  188SAPI    O421584   5.923   3.561   6.226 -0.2012 -0.4071 -0.5323
  188SAPI   HO421585   6.016   3.572   6.204 -0.0437  0.7086  0.5484
  188SAPI   C1521586   5.707   3.648   6.187 -0.2045 -0.3687  0.8436
  188SAPI    H521587   5.673   3.585   6.272 -1.4722  0.4019  0.9289
  188SAPI    O521588   5.686   3.570   6.068  0.2941 -0.1547  0.1570
  188SAPI   HO521589   5.591   3.558   6.057  0.0939  1.5323 -0.1884
  188SAPI   C1621590   5.613   3.773   6.199 -0.5682 -0.0684 -0.0445
  188SAPI    H621591   5.608   3.828   6.103 -1.0441 -0.2612 -0.1367
  188SAPI    O621592   5.477   3.722   6.210 -0.2253  0.3527 -0.1639
  188SAPI   HO621593   5.437   3.734   6.296  0.3492 -0.9123  0.3038
  188SAPI   C1121594   5.643   3.855   6.322 -0.1808 -0.3988  0.5994
  188SAPI    H121595   5.636   3.789   6.411 -2.1355 -1.0119  0.0181
  188SAPI     P21596   5.438   3.982   6.443 -0.1940 -0.0584 -0.4543
  188SAPI   O1321597   5.392   3.846   6.473 -0.0406 -0.2920  0.3852
  188SAPI   O1421598   5.340   4.077   6.392 -0.2286 -0.6185 -0.9557
  188SAPI   O1221599   5.560   3.977   6.335 -0.2807 -0.1608  0.6010
  188SAPI   O1121600   5.496   4.048   6.568  0.2808 -0.3756 -0.3871
  188SAPI    C121601   5.630   4.031   6.614  0.3292 -0.6430  0.0084
  188SAPI    HA21602   5.690   3.946   6.575 -2.1420 -1.2816 -2.6956
  188SAPI    HB21603   5.677   4.125   6.579 -2.6782  0.9837 -0.0033
  188SAPI    C221604   5.639   4.014   6.770 -0.5528 -0.1322  0.3636
  188SAPI    HS21605   5.749   4.015   6.788 -0.5510 -0.1616  0.3537
  188SAPI   O2121606   5.583   3.884   6.811  0.2391 -0.2731 -0.4441
  188SAPI   C2121607   5.658   3.774   6.786  0.2819  0.2112  0.7649
  188SAPI   O2221608   5.767   3.773   6.734  0.3035 -0.7779 -0.1192
  188SAPI   C2221609   5.599   3.643   6.848 -0.6488 -0.7986 -0.5140
  188SAPI   H2R21610   5.537   3.683   6.931 -1.1954 -0.1756 -1.2123
  188SAPI   H2S21611   5.532   3.598   6.772  0.1527 -0.0537 -1.6920
  188SAPI    C321612   5.569   4.126   6.856 -0.1913  1.1353 -0.1383
  188SAPI    HX21613   5.458   4.116   6.846 -0.2042  2.8373 -2.4771
  188SAPI    HY21614   5.593   4.216   6.795  1.4922  1.5181  1.0302
  188SAPI   O3121615   5.617   4.127   6.989  0.2756  0.0817 -0.0086
  188SAPI   C3121616   5.545   4.057   7.078 -0.1864 -0.3060 -0.2400
  188SAPI   O3221617   5.441   3.997   7.064  0.0684  0.0746  0.2958
  188SAPI   C3221618   5.626   4.040   7.208 -0.3192  0.0548 -0.3494
  188SAPI   H2X21619   5.678   4.137   7.227 -2.9434  1.0203  2.6982
  188SAPI   H2Y21620   5.701   3.958   7.203 -1.5522 -1.0465 -1.6713
  188SAPI   C2321621   5.704   3.548   6.903 -0.5092  0.2473  0.1250
  188SAPI   H3R21622   5.754   3.608   6.982  0.1430  0.0533 -0.1365
  188SAPI   H3S21623   5.777   3.521   6.825 -0.2580  0.2364  0.3635
  188SAPI   C2421624   5.647   3.423   6.980 -0.5576  0.1314  0.7035
  188SAPI   H4R21625   5.727   3.360   7.024 -1.6359 -0.7067  1.5333
  188SAPI   H4S21626   5.598   3.355   6.907  1.1229 -0.7425  0.3561
  188SAPI   C2521627   5.552   3.449   7.089  0.1296 -0.1602  0.2641
  188SAPI   H5R21628   5.448   3.423   7.065 -1.0269  4.0172 -0.1888
  188SAPI   C2621629   5.577   3.513   7.209 -0.3037  0.0342  0.0261
  188SAPI   H6R21630   5.501   3.517   7.289  1.1987  0.7518  1.4964
  188SAPI   C2721631   5.706   3.568   7.262 -0.1256 -0.3055  0.3507
  188SAPI   H7R21632   5.771   3.614   7.185  1.4840 -3.0779 -0.0811
  188SAPI   H7S21633   5.764   3.481   7.299  2.1062  0.7808 -0.4385
  188SAPI   C2821634   5.669   3.661   7.383 -0.5399  0.1160 -0.3299
  188SAPI   H8R21635   5.654   3.764   7.348 -1.3737  0.4008  0.8106
  188SAPI   C2921636   5.658   3.627   7.512  0.7299 -0.0046  0.3165
  188SAPI   H9R21637   5.638   3.706   7.586 -1.4658  2.6624 -2.8290
  188SAPI  C21021638   5.674   3.488   7.576 -0.4734 -0.1185  0.4372
  188SAPI  H10R21639   5.767   3.499   7.637 -1.0481  0.7193  1.1894
  188SAPI  H10S21640   5.706   3.412   7.501  0.5880  0.7426 -0.0167
  188SAPI  C21121641   5.556   3.444   7.656 -0.2296  0.0633  0.2588
  188SAPI  H11R21642   5.454   3.471   7.624 -0.2799 -0.8510 -0.4030
  188SAPI  C21221643   5.573   3.367   7.763 -0.4900 -0.2303  0.7731
  188SAPI  H12R21644   5.478   3.335   7.809 -1.7062  0.7893 -0.9501
  188SAPI  C21321645   5.704   3.316   7.824  0.6965 -0.7546 -0.1519
  188SAPI  H13R21646   5.786   3.327   7.751  0.0212  1.3267 -0.6596
  188SAPI  H13S21647   5.691   3.209   7.852 -1.8272 -0.3441  0.5274
  188SAPI  C21421648   5.748   3.394   7.942 -0.3786  0.0707 -0.4796
  188SAPI  H14R21649   5.820   3.473   7.917 -0.7612  0.1429 -1.3683
  188SAPI  C21521650   5.708   3.381   8.072  0.8470  0.2471  0.2762
  188SAPI  H15R21651   5.748   3.441   8.155  2.4465  1.3612 -1.2272
  188SAPI  C21621652   5.604   3.278   8.113  0.0070 -0.0527 -0.1096
  188SAPI  H16R21653   5.621   3.183   8.058  0.1193  0.1627 -0.4460
  188SAPI  H16S21654   5.499   3.307   8.088 -0.0793  0.1239  0.4503
  188SAPI  C21721655   5.627   3.242   8.269 -0.1521 -0.2903  0.3403
  188SAPI  H17R21656   5.587   3.331   8.323  1.0165  1.6390 -1.8245
  188SAPI  H17S21657   5.734   3.229   8.293  0.4207  2.1419 -0.6446
  188SAPI  C21821658   5.556   3.107   8.294 -0.5424  0.0327 -0.6744
  188SAPI  H18R21659   5.612   3.032   8.234  0.1879 -2.0668  2.4122
  188SAPI  H18S21660   5.451   3.109   8.256 -0.0747  3.4594 -2.1303
  188SAPI  C21921661   5.554   3.060   8.435 -0.0096 -0.3753 -1.1619
  188SAPI  H19R21662   5.529   3.145   8.502 -1.9572 -2.7151  1.2940
  188SAPI  H19S21663   5.655   3.029   8.470 -0.1874 -1.9235 -1.9228
  188SAPI  C22021664   5.460   2.944   8.472  0.1803  1.0333 -0.2269
  188SAPI  H20R21665   5.489   2.861   8.403  2.7170 -0.0407  1.9478
  188SAPI  H20S21666   5.359   2.981   8.446 -0.3638  0.5140  1.0618
  188SAPI  H20T21667   5.456   2.911   8.578  0.1328 -1.8798 -1.0419
  188SAPI   C3321668   5.550   4.016   7.336  0.5263 -0.4981 -0.8163
  188SAPI   H3X21669   5.610   3.964   7.414  0.3911  2.8299  1.7420
  188SAPI   H3Y21670   5.465   3.946   7.324  0.3771 -0.7087  1.1237
  188SAPI   C3421671   5.497   4.148   7.387  0.4532 -0.3413 -0.1932
  188SAPI   H4X21672   5.445   4.201   7.304 -1.8445  0.4185  1.6204
  188SAPI   H4Y21673   5.589   4.200   7.420  1.1863 -1.2994 -0.6498
  188SAPI   C3521674   5.392   4.125   7.495  0.1894  0.0065  0.1653
  188SAPI   H5X21675   5.427   4.086   7.592  0.6765  1.1323  0.4582
  188SAPI   H5Y21676   5.328   4.038   7.469  0.2014 -0.6729  2.2961
  188SAPI   C3621677   5.304   4.243   7.524  0.0456  0.2716 -0.1850
  188SAPI   H6X21678   5.237   4.251   7.436 -0.1419 -2.0541 -0.3293
  188SAPI   H6Y21679   5.372   4.329   7.541  1.8493 -1.1633  0.1572
  188SAPI   C3721680   5.206   4.222   7.648  0.1485 -0.6285  0.7953
  188SAPI   H7X21681   5.129   4.145   7.630 -2.5198  2.0599 -0.2265
  188SAPI   H7Y21682   5.149   4.318   7.648  0.0989 -0.6514 -0.0130
  188SAPI   C3821683   5.263   4.208   7.789 -0.6018  0.3353  0.2826
  188SAPI   H8X21684   5.323   4.116   7.805  1.0180  1.3590  0.3137
  188SAPI   H8Y21685   5.178   4.205   7.859 -0.1768 -2.2287  0.8104
  188SAPI   C3921686   5.352   4.326   7.826 -0.6749 -0.3449 -0.1883
  188SAPI   H9X21687   5.285   4.413   7.841 -0.6936 -0.3532 -0.2233
  188SAPI   H9Y21688   5.422   4.354   7.744  0.3722  1.1372  1.1437
  188SAPI  C31021689   5.436   4.293   7.959 -0.1685 -0.4489  0.0372
  188SAPI  H10X21690   5.504   4.207   7.940 -0.5442 -0.4914 -1.2006
  188SAPI  H10Y21691   5.360   4.273   8.038 -1.0530  0.9639 -0.4151
  188SAPI  C31121692   5.505   4.419   8.024  0.0690 -0.4718 -0.2764
  188SAPI  H11X21693   5.429   4.498   8.038 -0.1499 -0.6277 -0.5751
  188SAPI  H11Y21694   5.583   4.455   7.954 -0.6795  3.0988  0.5249
  188SAPI  C31221695   5.583   4.388   8.155  0.6686  0.1533  0.0800
  188SAPI  H12X21696   5.653   4.309   8.121  0.4933 -0.3276  0.8290
  188SAPI  H12Y21697   5.504   4.354   8.224 -1.9823 -1.1839 -3.3277
  188SAPI  C31321698   5.654   4.499   8.229 -0.2577  0.2856  0.0365
  188SAPI  H13X21699   5.588   4.588   8.241 -1.4176 -0.2228 -2.0827
  188SAPI  H13Y21700   5.753   4.533   8.191  0.5205 -1.8944  0.0011
  188SAPI  C31421701   5.679   4.463   8.381  0.2451 -0.1351  0.3364
  188SAPI  H14X21702   5.586   4.482   8.438  0.9750 -1.3436  2.0372
  188SAPI  H14Y21703   5.763   4.530   8.409 -1.0891  0.9195  1.9785
  188SAPI  C31521704   5.743   4.323   8.409  0.0594  0.1874  1.0710
  188SAPI  H15X21705   5.802   4.308   8.316 -1.6981 -0.0578 -0.0527
  188SAPI  H15Y21706   5.657   4.253   8.399  1.2695 -1.1921 -0.2687
  188SAPI  C31621707   5.823   4.311   8.531  0.4295  0.1654  0.5256
  188SAPI  H16X21708   5.915   4.373   8.530  0.3694  0.2519  0.2426
  188SAPI  H16Y21709   5.852   4.204   8.544  0.8569  0.3283  0.9330
  188SAPI  C31721710   5.753   4.361   8.655  0.1267 -0.1618 -0.0027
  188SAPI  H17X21711   5.664   4.296   8.666  1.2480 -1.9755 -1.1676
  188SAPI  H17Y21712   5.723   4.468   8.651 -2.9253 -0.8061  2.0710
  188SAPI  C31821713   5.848   4.355   8.775 -0.4607 -0.2876 -0.7655
  188SAPI  H18X21714   5.818   4.400   8.872 -0.7955 -1.9475 -0.0604
  188SAPI  H18Y21715   5.940   4.414   8.755 -0.5408  0.8471  1.7776
  188SAPI  H18Z21716   5.868   4.251   8.808  0.9365 -0.0840 -0.9383
  189POPC     N21717   4.589   3.309  11.369 -0.2825 -0.3281  0.0347
  189POPC   C1221718   4.559   3.241  11.237 -0.1316  0.4705 -0.3587
  189POPC  H12A21719   4.506   3.312  11.175 -0.1082  1.4710  0.7210
  189POPC  H12B21720   4.493   3.159  11.258  0.3947  0.0498 -0.3295
  189POPC   C1321721   4.660   3.435  11.338  0.1385  0.4925  0.0397
  189POPC  H13A21722   4.758   3.419  11.295 -0.1542  1.3358 -0.9727
  189POPC  H13B21723   4.616   3.487  11.254 -0.1889  1.5334  0.8321
  189POPC  H13C21724   4.676   3.505  11.419 -0.7323  2.1449 -1.1670
  189POPC   C1421725   4.464   3.352  11.441 -0.0751 -0.6455 -0.4972
  189POPC  H14A21726   4.476   3.412  11.529 -0.9739  1.3536 -1.6760
  189POPC  H14B21727   4.407   3.415  11.374 -2.2263 -1.2169  0.6810
  189POPC  H14C21728   4.407   3.261  11.458 -0.0117 -0.7209 -0.6784
  189POPC   C1521729   4.670   3.232  11.469 -0.3066 -0.3309 -0.7726
  189POPC  H15A21730   4.617   3.145  11.504  1.7903 -0.5351  2.2287
  189POPC  H15B21731   4.695   3.284  11.560  1.9419 -2.0113 -0.3716
  189POPC  H15C21732   4.761   3.206  11.419  0.6676  0.1102  0.7118
  189POPC   C1121733   4.679   3.192  11.154  0.1219  0.0651  1.0653
  189POPC  H11A21734   4.638   3.127  11.074 -2.4202  2.3502  0.3228
  189POPC  H11B21735   4.737   3.121  11.217 -2.4800 -1.5180  1.8524
  189POPC     P21736   4.722   3.364  10.969  0.1980  0.2090 -0.1150
  189POPC   O1321737   4.838   3.423  10.905 -0.0327  0.8348  0.0452
  189POPC   O1421738   4.614   3.457  11.000 -0.7630 -0.5116  0.3751
  189POPC   O1221739   4.774   3.290  11.106  0.2929 -0.2641 -0.0572
  189POPC   O1121740   4.666   3.246  10.876  0.3127  0.0552 -0.0856
  189POPC    C121741   4.768   3.152  10.829  0.4357  0.4456 -0.0620
  189POPC    HA21742   4.727   3.049  10.819  2.9771 -0.7139  0.6021
  189POPC    HB21743   4.865   3.159  10.883  0.1370  1.8623  0.3192
  189POPC    C221744   4.820   3.196  10.686 -0.0956 -0.3462  0.7101
  189POPC    HS21745   4.868   3.296  10.693  1.3476 -0.9384 -0.2774
  189POPC   O2121746   4.705   3.191  10.595  0.0340 -0.6289  0.1102
  189POPC   C2121747   4.700   3.295  10.509 -0.1576  0.4702 -0.0969
  189POPC   O2221748   4.781   3.387  10.505  0.5272 -0.4515 -0.7813
  189POPC   C2221749   4.589   3.260  10.412  0.0726 -0.3451  0.0862
  189POPC   H2R21750   4.505   3.216  10.469 -1.0733  0.3569 -1.0006
  189POPC   H2S21751   4.626   3.186  10.338 -0.5802 -0.6897  0.0955
  189POPC    C321752   4.934   3.105  10.633  0.0705 -0.1814 -0.6728
  189POPC    HX21753   4.899   2.999  10.633  1.8996 -0.8239 -1.5562
  189POPC    HY21754   5.022   3.117  10.699  0.8864  2.1577 -2.0887
  189POPC   O3121755   4.976   3.131  10.496  0.6925  0.0983  0.1602
  189POPC   C3121756   5.069   3.226  10.481 -0.6965 -0.0474  0.0580
  189POPC   O3221757   5.111   3.291  10.578 -0.0627 -0.3660  0.6070
  189POPC   C3221758   5.133   3.228  10.340 -0.5487 -0.8376 -0.3603
  189POPC   H2X21759   5.188   3.134  10.321 -0.7554 -0.6698 -1.9306
  189POPC   H2Y21760   5.193   3.322  10.341 -1.6778 -0.0821 -1.4508
  189POPC   C2321761   4.542   3.380  10.334 -0.0738  0.7329 -0.2255
  189POPC   H3R21762   4.631   3.432  10.293  0.1810 -1.2647 -2.3757
  189POPC   H3S21763   4.477   3.446  10.396 -0.1997 -0.6571  1.1869
  189POPC   C2421764   4.470   3.335  10.208 -0.4283  0.7650  0.3431
  189POPC   H4R21765   4.364   3.309  10.228 -0.5771  1.0139 -0.1087
  189POPC   H4S21766   4.517   3.247  10.158  0.3970  2.6819 -2.5466
  189POPC   C2521767   4.476   3.447  10.098  0.7609 -0.1321  0.2186
  189POPC   H5R21768   4.569   3.508  10.093 -0.4239  1.7033 -1.0143
  189POPC   H5S21769   4.410   3.530  10.131 -0.2301 -2.0341  3.4674
  189POPC   C2621770   4.433   3.405   9.952  0.5079 -0.5373  0.3615
  189POPC   H6R21771   4.339   3.349   9.966 -0.4693  0.7517 -0.7445
  189POPC   H6S21772   4.512   3.343   9.905  2.2918 -0.4305  3.0179
  189POPC   C2721773   4.404   3.531   9.865 -0.1648  0.2879  0.5809
  189POPC   H7R21774   4.473   3.614   9.889 -1.1398  1.3805 -0.2632
  189POPC   H7S21775   4.300   3.566   9.881 -0.1601 -0.3765  2.2284
  189POPC   C2821776   4.428   3.510   9.708  0.0618 -0.2246 -0.2905
  189POPC   H8R21777   4.380   3.421   9.663  1.9410 -1.6934  0.4860
  189POPC   H8S21778   4.539   3.505   9.703  0.3291  2.4751  0.9030
  189POPC   C2921779   4.385   3.635   9.634  0.9199 -0.2555 -0.4919
  189POPC   H9121780   4.357   3.719   9.699 -1.4481 -0.1297 -1.5601
  189POPC  C21021781   4.373   3.656   9.502 -0.7345  0.3233  0.5743
  189POPC  H10121782   4.342   3.755   9.465 -0.0445  0.2014 -0.3816
  189POPC  C21121783   4.412   3.551   9.397 -0.0221 -0.0213  0.4064
  189POPC  H11R21784   4.320   3.493   9.376  0.7589 -0.9318 -0.6659
  189POPC  H11S21785   4.489   3.475   9.425 -0.9202 -0.5808  1.4476
  189POPC  C21221786   4.449   3.618   9.264 -0.1180  0.2429 -0.2714
  189POPC  H12R21787   4.511   3.556   9.195  0.4136  0.1511  0.2802
  189POPC  H12S21788   4.503   3.712   9.287  1.7391 -0.8310  0.0159
  189POPC  C21321789   4.327   3.651   9.170  0.1639 -0.2465  0.1875
  189POPC  H13R21790   4.269   3.721   9.234  1.2210  0.0014  0.9142
  189POPC  H13S21791   4.266   3.563   9.144 -1.9188  0.8550  1.0917
  189POPC  C21421792   4.382   3.723   9.049  0.0180 -0.0381  0.1011
  189POPC  H14R21793   4.463   3.658   9.008 -0.5400 -2.1602  2.1186
  189POPC  H14S21794   4.424   3.821   9.080 -3.9181  2.6262 -2.1716
  189POPC  C21521795   4.271   3.754   8.947  1.3900  0.5363  0.2658
  189POPC  H15R21796   4.180   3.775   9.006  1.8696 -1.4013  1.7925
  189POPC  H15S21797   4.255   3.658   8.892  0.4571 -1.8708  4.3388
  189POPC  C21621798   4.315   3.869   8.852 -0.1125 -0.4131 -0.0608
  189POPC  H16R21799   4.413   3.841   8.808 -0.3552  2.0558 -2.4611
  189POPC  H16S21800   4.335   3.955   8.918  1.0898 -0.9310  0.2881
  189POPC  C21721801   4.214   3.899   8.748  0.5298  0.3429  0.1989
  189POPC  H17R21802   4.237   4.005   8.726 -2.3641  0.6599 -1.8861
  189POPC  H17S21803   4.109   3.895   8.784  0.9272 -0.9107  1.2937
  189POPC  C21821804   4.220   3.835   8.606 -0.6847 -0.4210 -0.2865
  189POPC  H18R21805   4.132   3.872   8.549 -1.6276 -0.5123  1.0672
  189POPC  H18S21806   4.212   3.724   8.615  2.5825 -0.6335  1.9177
  189POPC  H18T21807   4.307   3.869   8.546 -2.6321  0.1917 -2.9488
  189POPC   C3321808   5.029   3.255  10.229  0.9623 -1.0434  0.3933
  189POPC   H3X21809   5.062   3.324  10.149  0.0112 -0.7673  0.2265
  189POPC   H3Y21810   4.943   3.312  10.270  0.9921  0.5851 -1.6460
  189POPC   C3421811   4.988   3.120  10.163  0.6191 -0.2280 -0.4063
  189POPC   H4X21812   4.986   3.042  10.242  0.4181  0.2025  0.0212
  189POPC   H4Y21813   5.060   3.089  10.084 -0.4157 -1.0048 -1.0704
  189POPC   C3521814   4.843   3.126  10.107 -0.2706  0.2228 -0.0997
  189POPC   H5X21815   4.777   3.143  10.195  0.3593  0.9596  0.2471
  189POPC   H5Y21816   4.821   3.025  10.066  1.4754 -1.0328  1.8643
  189POPC   C3621817   4.825   3.227  10.000  0.6366 -0.1567  0.3486
  189POPC   H6X21818   4.867   3.327  10.022  0.8046  0.0995 -1.0353
  189POPC   H6Y21819   4.715   3.221   9.985  0.0136 -1.2066  4.2851
  189POPC   C3721820   4.882   3.180   9.866  0.3649 -0.0752  0.1783
  189POPC   H7X21821   4.847   3.078   9.841 -3.9882  1.8546 -2.8575
  189POPC   H7Y21822   4.993   3.179   9.875  0.6441 -1.2563 -2.5778
  189POPC   C3821823   4.834   3.268   9.752  0.4400  0.1615  0.7656
  189POPC   H8X21824   4.853   3.377   9.754  1.1832  0.0532  0.2133
  189POPC   H8Y21825   4.724   3.257   9.739  0.1697  1.5285  1.6890
  189POPC   C3921826   4.898   3.229   9.617 -0.6518  0.1192  0.3091
  189POPC   H9X21827   4.905   3.119   9.609  0.3929  0.3174 -3.6851
  189POPC   H9Y21828   5.005   3.260   9.620 -0.6487  0.4847 -1.7662
  189POPC  C31021829   4.825   3.293   9.503 -0.5136 -0.1662  0.2387
  189POPC  H10X21830   4.837   3.403   9.515  1.4162 -0.3756  0.6686
  189POPC  H10Y21831   4.716   3.283   9.520 -0.2280 -2.0180  1.1564
  189POPC  C31121832   4.882   3.248   9.370 -0.8866 -0.2313  0.3550
  189POPC  H11X21833   4.842   3.145   9.357 -0.0926 -0.6464  1.0824
  189POPC  H11Y21834   4.992   3.248   9.381 -0.8409 -0.3856 -0.0820
  189POPC  C31221835   4.853   3.343   9.245  0.0847  0.2967  0.1485
  189POPC  H12X21836   4.932   3.422   9.245  0.2322  0.3077 -3.1922
  189POPC  H12Y21837   4.752   3.387   9.258  0.0660  0.4116 -0.3819
  189POPC  C31321838   4.848   3.260   9.114  0.0892 -0.1855 -0.6724
  189POPC  H13X21839   4.757   3.197   9.107 -0.2147  0.3093 -1.1585
  189POPC  H13Y21840   4.933   3.188   9.121 -0.5297 -0.8256  0.6045
  189POPC  C31421841   4.869   3.344   8.989 -0.2859 -0.3347  0.7596
  189POPC  H14X21842   4.879   3.274   8.904 -1.1870 -0.3361  0.6480
  189POPC  H14Y21843   4.961   3.406   9.001 -0.2221 -0.6905  2.3841
  189POPC  C31521844   4.749   3.432   8.955 -0.0574  0.2645 -0.8944
  189POPC  H15X21845   4.724   3.498   9.041 -0.0408  0.3889 -0.9852
  189POPC  H15Y21846   4.663   3.365   8.931 -1.3810  1.2197  0.8775
  189POPC  C31621847   4.767   3.520   8.830 -0.0047  0.2665  0.4248
  189POPC  H16X21848   4.824   3.465   8.753  0.5461  1.0325  0.2755
  189POPC  H16Y21849   4.817   3.616   8.853  0.7471 -0.3408  1.3958
  189POPC  H16Z21850   4.666   3.557   8.800 -0.0934 -0.5276 -0.2819
  190POPC     N21851   0.230   6.434  10.987 -0.3770 -0.4211 -0.3002
  190POPC   C1221852   0.224   6.340  11.116  0.3317 -0.2179 -0.4852
  190POPC  H12A21853   0.134   6.358  11.173 -0.5465  1.4967 -2.2881
  190POPC  H12B21854   0.304   6.378  11.178 -0.2914  1.1546 -0.4741
  190POPC   C1321855   0.239   6.581  11.023  0.1790 -0.5833 -0.3732
  190POPC  H13A21856   0.330   6.596  11.078  0.6941 -1.4718 -0.9517
  190POPC  H13B21857   0.242   6.634  10.929 -4.2135  0.5784 -0.0938
  190POPC  H13C21858   0.156   6.624  11.078  1.4143  1.0392  0.3000
  190POPC   C1421859   0.358   6.404  10.911  0.4627 -0.8395 -0.8258
  190POPC  H14A21860   0.437   6.435  10.977 -2.1102 -0.0575  2.1100
  190POPC  H14B21861   0.365   6.299  10.887  2.0447 -1.1516  0.7936
  190POPC  H14C21862   0.364   6.458  10.817 -2.0331 -0.6706 -0.9683
  190POPC   C1521863   0.112   6.410  10.904 -0.2017  0.0907 -0.5830
  190POPC  H15A21864   0.113   6.447  10.803 -3.6305 -0.0718 -0.7928
  190POPC  H15B21865   0.025   6.458  10.946  1.3316  1.1327  1.6484
  190POPC  H15C21866   0.097   6.304  10.896  1.3763 -0.4606  2.2586
  190POPC   C1121867   0.245   6.189  11.101  0.2010  0.6712  1.1418
  190POPC  H11A21868   0.268   6.148  11.201  0.4561  0.0493  0.8369
  190POPC  H11B21869   0.340   6.184  11.043  0.3323 -0.4880  1.4341
  190POPC     P21870   0.142   5.979  11.016  0.1914 -0.1798  0.0297
  190POPC   O1321871   0.000   5.940  11.038  0.1522 -0.0895 -0.4119
  190POPC   O1421872   0.241   5.923  11.113 -0.1855 -0.3535 -0.2048
  190POPC   O1221873   0.144   6.130  11.013  0.3490 -0.3413  0.1526
  190POPC   O1121874   0.194   5.936  10.876  0.0208  0.1349  0.1737
  190POPC    C121875   0.255   6.016  10.776  0.0942 -0.1330 -0.4092
  190POPC    HA21876   0.339   5.968  10.722  1.0003  0.2841  0.5894
  190POPC    HB21877   0.295   6.109  10.822  0.7097 -1.1844  1.3051
  190POPC    C221878   0.148   6.077  10.670  0.3623 -0.0815  0.1903
  190POPC    HS21879   0.071   6.133  10.726 -0.1626 -0.0313 -0.5605
  190POPC   O2121880   0.092   5.966  10.604 -0.7003  0.2713 -0.0153
  190POPC   C2121881  -0.032   5.979  10.576  0.1985 -0.5618  0.2043
  190POPC   O2221882  -0.104   6.081  10.587  0.1547  0.3019 -0.5464
  190POPC   C2221883  -0.069   5.848  10.498  0.3098  0.3578 -0.4612
  190POPC   H2R21884  -0.176   5.860  10.470  0.4025 -1.1805 -1.6014
  190POPC   H2S21885  -0.050   5.771  10.576  0.1652  0.5825 -0.2035
  190POPC    C321886   0.215   6.179  10.568 -0.3699 -0.0673 -0.2825
  190POPC    HX21887   0.292   6.113  10.522 -2.1114 -1.6700 -1.0067
  190POPC    HY21888   0.271   6.251  10.632  1.0454 -0.1851 -1.3331
  190POPC   O3121889   0.125   6.227  10.467 -0.4061  0.5938  0.4144
  190POPC   C3121890   0.077   6.354  10.489 -0.2170  0.5085  0.5228
  190POPC   O3221891   0.113   6.426  10.581  0.7262 -0.2671 -0.2082
  190POPC   C3221892  -0.031   6.387  10.393 -0.1166  0.0232 -0.7440
  190POPC   H2X21893  -0.120   6.333  10.431 -1.6172  0.8005 -2.9557
  190POPC   H2Y21894  -0.008   6.354  10.289  2.5777  1.0774 -0.5630
  190POPC   C2321895   0.023   5.813  10.380 -0.1909  0.7176  0.2735
  190POPC   H3R21896  -0.002   5.716  10.331  1.2863  0.4040  0.1176
  190POPC   H3S21897   0.126   5.795  10.417 -0.3001 -2.2690 -0.6131
  190POPC   C2421898   0.026   5.920  10.280 -0.2490  0.7865  0.0880
  190POPC   H4R21899   0.082   5.998  10.334  0.7243 -0.3638  0.7922
  190POPC   H4S21900  -0.074   5.959  10.250  0.1222  0.9347 -0.9869
  190POPC   C2521901   0.111   5.898  10.157 -0.9358  0.1532  0.1016
  190POPC   H5R21902   0.084   5.801  10.109 -1.6147 -1.0104  2.6443
  190POPC   H5S21903   0.218   5.887  10.187 -1.4956 -0.5007  1.9856
  190POPC   C2621904   0.094   6.015  10.056  0.4315  1.0612  0.0598
  190POPC   H6R21905   0.123   6.109  10.107  0.0313  1.4652 -0.4424
  190POPC   H6S21906  -0.012   6.021  10.023  0.7266  2.8255 -0.6730
  190POPC   C2721907   0.172   6.002   9.926 -0.4934  0.2726  0.7335
  190POPC   H7R21908   0.131   5.926   9.857  2.2920  1.2468 -2.2742
  190POPC   H7S21909   0.273   5.968   9.958  0.8051  2.1379 -1.0875
  190POPC   C2821910   0.185   6.135   9.844  0.1540 -0.4581 -0.5115
  190POPC   H8R21911   0.267   6.116   9.772 -0.4093 -0.3515 -1.1937
  190POPC   H8S21912   0.237   6.216   9.900 -0.1428 -0.0635 -0.8036
  190POPC   C2921913   0.064   6.173   9.766  0.8280 -0.4901 -0.1501
  190POPC   H9121914  -0.037   6.171   9.810  0.2018 -0.7907 -1.5500
  190POPC  C21021915   0.059   6.197   9.635 -0.6058 -0.1293 -0.2374
  190POPC  H10121916  -0.041   6.218   9.594 -1.2192 -0.5287  0.9786
  190POPC  C21121917   0.177   6.178   9.543  0.9059  0.0150  0.2928
  190POPC  H11R21918   0.201   6.070   9.533 -2.0963 -0.8961  1.6432
  190POPC  H11S21919   0.262   6.234   9.587  0.2611 -0.0920  1.7354
  190POPC  C21221920   0.150   6.217   9.398  0.4154 -0.1525  0.2631
  190POPC  H12R21921   0.245   6.239   9.344  1.1135  0.5784  1.7224
  190POPC  H12S21922   0.110   6.320   9.391  0.8581 -0.0942 -3.6239
  190POPC  C21321923   0.055   6.126   9.317 -0.0390  0.5935  0.0036
  190POPC  H13R21924  -0.051   6.134   9.351 -0.3077  0.9263 -0.8817
  190POPC  H13S21925   0.078   6.021   9.346  0.3193  0.7028  0.1226
  190POPC  C21421926   0.067   6.143   9.164 -0.4352  0.1642 -0.0639
  190POPC  H14R21927   0.070   6.253   9.148  0.7338  0.1824  0.1906
  190POPC  H14S21928  -0.024   6.106   9.113 -2.4639  0.3795  3.0878
  190POPC  C21521929   0.193   6.075   9.098  0.6912  0.0293  0.0297
  190POPC  H15R21930   0.161   5.969   9.093  0.4224  0.0932  0.3801
  190POPC  H15S21931   0.274   6.068   9.174  1.2152  1.1757 -0.4020
  190POPC  C21621932   0.226   6.123   8.964 -0.2409  0.5183 -0.1743
  190POPC  H16R21933   0.305   6.202   8.971  0.5480 -0.2781  0.0841
  190POPC  H16S21934   0.139   6.161   8.908 -1.0604 -3.4380 -1.9018
  190POPC  C21721935   0.291   6.018   8.882  0.0542  0.5555  0.6388
  190POPC  H17R21936   0.221   5.931   8.875 -0.5261  1.1697 -2.7529
  190POPC  H17S21937   0.379   5.978   8.937 -0.7681 -2.0633  0.1753
  190POPC  C21821938   0.335   6.067   8.744  0.0369 -0.7342 -0.1880
  190POPC  H18R21939   0.382   5.986   8.684  0.4343 -1.2273  0.7614
  190POPC  H18S21940   0.391   6.162   8.730 -2.4186  0.6152 -1.4760
  190POPC  H18T21941   0.242   6.079   8.685  0.1611  0.0895 -0.2267
  190POPC   C3321942  -0.067   6.534  10.392  0.0807 -0.0681  0.4501
  190POPC   H3X21943   0.014   6.599  10.351 -1.4852  1.9224  0.3210
  190POPC   H3Y21944  -0.074   6.567  10.498 -1.2539  1.4362 -0.0694
  190POPC   C3421945  -0.201   6.574  10.322  0.2202  0.0189 -0.0899
  190POPC   H4X21946  -0.208   6.684  10.337  0.3699  0.0036  0.1045
  190POPC   H4Y21947  -0.288   6.527  10.372 -0.1596  0.8135  0.0206
  190POPC   C3521948  -0.208   6.533  10.175 -0.8577  0.5623  0.0374
  190POPC   H5X21949  -0.253   6.431  10.177 -1.0005  0.4726 -3.1890
  190POPC   H5Y21950  -0.105   6.527  10.134 -0.8656  1.0413 -0.0545
  190POPC   C3621951  -0.290   6.617  10.080 -0.2751 -0.2883  0.1262
  190POPC   H6X21952  -0.261   6.724  10.085  0.0134 -0.3292 -0.5265
  190POPC   H6Y21953  -0.396   6.620  10.114  0.2375  0.8939  1.7261
  190POPC   C3721954  -0.292   6.563   9.937  0.1794 -0.2782  0.5031
  190POPC   H7X21955  -0.371   6.624   9.887 -2.2711 -0.9078  3.3290
  190POPC   H7Y21956  -0.311   6.455   9.920  1.1407 -0.1642 -1.6674
  190POPC   C3821957  -0.157   6.594   9.870  0.1221 -0.3036 -0.2137
  190POPC   H8X21958  -0.077   6.571   9.944 -1.8011 -0.7819  1.8129
  190POPC   H8Y21959  -0.150   6.702   9.848  1.8376 -0.2398  0.4252
  190POPC   C3921960  -0.144   6.509   9.751 -0.4786  0.1726  0.2810
  190POPC   H9X21961  -0.148   6.401   9.777  0.0532 -0.0303 -0.4283
  190POPC   H9Y21962  -0.044   6.539   9.711 -0.0274  0.3173  1.4703
  190POPC  C31021963  -0.235   6.533   9.629 -0.3018  0.1649 -0.5677
  190POPC  H10X21964  -0.251   6.640   9.605  0.5068  0.9767  2.1064
  190POPC  H10Y21965  -0.332   6.482   9.648  0.2606 -1.9392 -2.8978
  190POPC  C31121966  -0.181   6.477   9.496 -0.2901  0.1541  0.6616
  190POPC  H11X21967  -0.167   6.367   9.504 -2.5735 -0.1949  0.3700
  190POPC  H11Y21968  -0.076   6.514   9.490 -1.0242  2.4971  1.3486
  190POPC  C31221969  -0.256   6.506   9.360 -0.2628 -0.6357  0.2564
  190POPC  H12X21970  -0.247   6.615   9.340 -0.2947 -0.1377  2.7045
  190POPC  H12Y21971  -0.365   6.486   9.366 -0.1215 -2.7129 -2.1694
  190POPC  C31321972  -0.204   6.436   9.233 -0.1480  0.3309  0.2742
  190POPC  H13X21973  -0.219   6.328   9.254  1.1906  0.3982  1.8276
  190POPC  H13Y21974  -0.095   6.459   9.244 -0.3855  0.3575  3.9114
  190POPC  C31421975  -0.269   6.484   9.103  0.3898  0.1441 -0.3764
  190POPC  H14X21976  -0.378   6.466   9.117 -0.2603  3.2031 -0.9339
  190POPC  H14Y21977  -0.234   6.440   9.007 -0.9821 -0.3048 -0.6921
  190POPC  C31521978  -0.243   6.620   9.079 -0.6428 -0.1458  0.2649
  190POPC  H15X21979  -0.135   6.633   9.055 -0.0177 -2.8925  1.2592
  190POPC  H15Y21980  -0.258   6.702   9.153 -2.2654 -1.0293  0.9489
  190POPC  C31621981  -0.329   6.670   8.962 -0.0723 -0.9402  0.0584
  190POPC  H16X21982  -0.296   6.772   8.933 -1.1989 -1.2390 -2.4847
  190POPC  H16Y21983  -0.435   6.678   8.996 -0.2875  0.6507 -0.8903
  190POPC  H16Z21984  -0.324   6.608   8.870  2.7030  0.3849 -0.8000
  191POPC     N21985   1.092   0.132   6.485  0.3908 -0.3390 -0.6492
  191POPC   C1221986   0.980   0.055   6.551 -0.0789 -0.6042 -0.6988
  191POPC  H12A21987   0.919   0.107   6.623 -0.6348 -1.3157 -0.6583
  191POPC  H12B21988   1.035  -0.022   6.602  4.0455  2.3876 -0.0128
  191POPC   C1321989   1.170   0.046   6.394  0.3531 -0.1768  0.0823
  191POPC  H13A21990   1.118   0.031   6.301  0.6902  0.2197 -0.1791
  191POPC  H13B21991   1.272   0.076   6.371  0.4108  0.9192  1.5707
  191POPC  H13C21992   1.166  -0.050   6.442 -0.2489  0.5676  1.6128
  191POPC   C1421993   1.034   0.253   6.418 -0.5461 -0.2398 -0.3610
  191POPC  H14A21994   1.109   0.299   6.355  2.1790 -0.6274  2.3561
  191POPC  H14B21995   0.954   0.211   6.359  0.1330 -3.7283  0.9557
  191POPC  H14C21996   0.990   0.317   6.493 -1.0328 -2.0995  0.9952
  191POPC   C1521997   1.183   0.182   6.594 -0.1554  0.1509  0.7835
  191POPC  H15A21998   1.259   0.248   6.555 -0.5333 -0.0397 -0.3222
  191POPC  H15B21999   1.238   0.100   6.639  2.0306  0.9922 -0.1995
  191POPC  H15C22000   1.134   0.231   6.676  2.0762 -0.1797  2.4113
  191POPC   C1122001   0.880  -0.020   6.454  0.2812 -0.4322  1.0210
  191POPC  H11A22002   0.816  -0.078   6.524  0.4809 -0.0529  1.5218
  191POPC  H11B22003   0.930  -0.091   6.384 -0.4633  1.1650 -1.2364
  191POPC     P22004   0.646   0.096   6.389 -0.3719 -0.0134  0.0363
  191POPC   O1322005   0.585  -0.036   6.416  0.3205 -0.7113 -0.9708
  191POPC   O1422006   0.610   0.166   6.263 -0.2305  0.5785 -0.1454
  191POPC   O1222007   0.805   0.076   6.373 -0.1060  1.1226 -0.3198
  191POPC   O1122008   0.627   0.200   6.510  0.2416  0.6185 -0.1220
  191POPC    C122009   0.709   0.319   6.521  0.6750  0.2894  0.0592
  191POPC    HA22010   0.735   0.361   6.422  0.4638 -0.0668 -0.1537
  191POPC    HB22011   0.804   0.295   6.573  0.5948  1.7728  0.9352
  191POPC    C222012   0.638   0.421   6.605  0.7462 -0.0797  0.1648
  191POPC    HS22013   0.542   0.453   6.560  1.8394  2.9152 -0.2529
  191POPC   O2122014   0.728   0.533   6.610 -0.2591  0.8683 -0.0101
  191POPC   C2122015   0.679   0.656   6.603  0.1712  0.9677 -0.7504
  191POPC   O2222016   0.560   0.675   6.603 -0.2284 -0.1096  0.0804
  191POPC   C2222017   0.799   0.756   6.610  0.1150 -0.5077  0.0741
  191POPC   H2R22018   0.754   0.857   6.615 -0.2204 -0.6319 -0.4182
  191POPC   H2S22019   0.851   0.746   6.513 -1.0206  0.6669 -0.6689
  191POPC    C322020   0.615   0.374   6.755 -1.2434  0.1718  0.2296
  191POPC    HX22021   0.721   0.365   6.786 -0.4819 -0.1336 -2.2583
  191POPC    HY22022   0.571   0.272   6.752  0.4000 -0.5559 -0.4469
  191POPC   O3122023   0.549   0.477   6.830  0.6365 -0.3070 -0.0744
  191POPC   C3122024   0.416   0.468   6.832 -0.0960 -0.4496  0.0739
  191POPC   O3222025   0.354   0.384   6.767  0.1791 -0.3555 -0.3083
  191POPC   C3222026   0.360   0.552   6.953  0.1736 -0.1929 -0.0219
  191POPC   H2X22027   0.250   0.541   6.957  0.0904  0.6125 -0.0792
  191POPC   H2Y22028   0.379   0.657   6.923  1.9527 -0.3951  0.2475
  191POPC   C2322029   0.875   0.735   6.747  0.7698 -0.1151 -0.2755
  191POPC   H3R22030   0.949   0.815   6.769  1.1299 -0.2087 -1.1046
  191POPC   H3S22031   0.923   0.637   6.729  2.1023  0.8091 -2.0597
  191POPC   C2422032   0.773   0.726   6.867  0.3863 -0.5393 -0.0081
  191POPC   H4R22033   0.741   0.620   6.880 -1.0833  0.0313  1.2557
  191POPC   H4S22034   0.682   0.787   6.849  1.0206  0.7829  1.0614
  191POPC   C2522035   0.845   0.770   6.991 -0.4223 -0.1826 -0.4424
  191POPC   H5R22036   0.884   0.873   6.979  0.1869 -0.4587 -0.9498
  191POPC   H5S22037   0.934   0.706   7.009  0.0918  1.2768  2.9357
  191POPC   C2622038   0.757   0.752   7.113 -0.1378  0.4135  0.3182
  191POPC   H6R22039   0.706   0.654   7.118  0.1275  0.2984  0.9909
  191POPC   H6S22040   0.677   0.829   7.112 -0.3357  0.2521  1.4499
  191POPC   C2722041   0.835   0.763   7.245  0.4028 -0.3038 -0.3616
  191POPC   H7R22042   0.857   0.870   7.266  0.9746 -0.8697  2.2659
  191POPC   H7S22043   0.931   0.707   7.243 -1.3732 -3.5904 -1.1731
  191POPC   C2822044   0.756   0.725   7.368  0.2219 -0.5669  0.0164
  191POPC   H8R22045   0.814   0.732   7.463  0.0802  0.9316  0.0224
  191POPC   H8S22046   0.743   0.615   7.366 -0.9078 -0.4390 -1.0783
  191POPC   C2922047   0.621   0.801   7.384 -1.1470  0.2561 -0.3791
  191POPC   H9122048   0.563   0.788   7.291  0.7147  0.7398 -1.6817
  191POPC  C21022049   0.573   0.861   7.490  0.0037 -0.2920  0.1892
  191POPC  H10122050   0.469   0.897   7.483  0.2266  0.1006 -2.1479
  191POPC  C21122051   0.634   0.863   7.630 -0.6435 -0.7048  0.1374
  191POPC  H11R22052   0.611   0.966   7.666 -1.9706 -0.7455 -0.5281
  191POPC  H11S22053   0.743   0.843   7.638 -0.9993 -2.3856  1.3003
  191POPC  C21222054   0.575   0.768   7.735  0.4695  0.2993 -0.7178
  191POPC  H12R22055   0.644   0.683   7.755  0.7049  0.5957 -0.2727
  191POPC  H12S22056   0.471   0.740   7.707  0.3165 -0.4885  0.5153
  191POPC  C21322057   0.558   0.835   7.876  0.7879  0.3519 -0.5997
  191POPC  H13R22058   0.501   0.929   7.857 -0.0914  0.1523  0.8976
  191POPC  H13S22059   0.660   0.864   7.912  2.2319 -1.8541 -2.6100
  191POPC  C21422060   0.489   0.743   7.979  0.3050  0.2167 -0.1635
  191POPC  H14R22061   0.544   0.650   8.004  0.5386  0.1519 -0.8895
  191POPC  H14S22062   0.386   0.719   7.945 -0.0578  1.5633 -0.0494
  191POPC  C21522063   0.464   0.812   8.110 -0.3237  0.5646  0.0841
  191POPC  H15R22064   0.407   0.737   8.169  0.4136  0.0006  0.0901
  191POPC  H15S22065   0.409   0.908   8.097  0.9449  1.1830 -0.9189
  191POPC  C21622066   0.593   0.844   8.183  0.1523  0.7041  0.9619
  191POPC  H16R22067   0.634   0.940   8.145  1.8770  0.2035  1.4861
  191POPC  H16S22068   0.665   0.765   8.155  3.2041  2.9965  1.8241
  191POPC  C21722069   0.583   0.840   8.339 -0.5599 -0.1368  0.6241
  191POPC  H17R22070   0.685   0.826   8.380 -0.7047 -2.3183  0.3686
  191POPC  H17S22071   0.541   0.739   8.358 -0.3936 -0.3574 -0.1579
  191POPC  C21822072   0.509   0.960   8.411 -0.0286  0.5036  0.1212
  191POPC  H18R22073   0.399   0.959   8.392  0.1040  1.4605 -0.7855
  191POPC  H18S22074   0.538   1.059   8.370 -0.4279  0.9382  0.8383
  191POPC  H18T22075   0.529   0.965   8.520  1.0539 -0.6636 -0.0164
  191POPC   C3322076   0.432   0.521   7.082 -0.3745  0.1665 -0.6026
  191POPC   H3X22077   0.530   0.570   7.065  0.7914 -1.9668 -0.3822
  191POPC   H3Y22078   0.452   0.412   7.087 -0.8899  0.0900 -0.1523
  191POPC   C3422079   0.348   0.562   7.203 -0.1372  0.2041  0.0012
  191POPC   H4X22080   0.244   0.529   7.180 -0.2312 -0.5402  1.3815
  191POPC   H4Y22081   0.354   0.671   7.222 -0.6540  0.2272  0.0524
  191POPC   C3522082   0.395   0.490   7.326  0.1408 -0.2649 -0.9770
  191POPC   H5X22083   0.506   0.496   7.333  0.0759 -0.8924  1.7168
  191POPC   H5Y22084   0.376   0.381   7.319 -1.3570 -0.8147  5.5426
  191POPC   C3622085   0.336   0.535   7.459 -0.4614  0.4097 -0.1282
  191POPC   H6X22086   0.227   0.551   7.445 -0.5259  0.1099  0.0262
  191POPC   H6Y22087   0.386   0.630   7.489  0.3011 -0.2708  0.8164
  191POPC   C3722088   0.368   0.437   7.578 -0.4017  0.7311 -0.0665
  191POPC   H7X22089   0.477   0.416   7.589 -0.9843 -2.0648  1.2647
  191POPC   H7Y22090   0.327   0.341   7.540 -2.0323  1.3878 -0.0425
  191POPC   C3822091   0.288   0.452   7.705  0.3321 -0.4240 -0.2096
  191POPC   H8X22092   0.181   0.431   7.687  0.0216 -1.0050  1.9812
  191POPC   H8Y22093   0.291   0.559   7.735 -2.1421 -0.3083 -0.2029
  191POPC   C3922094   0.327   0.359   7.819 -0.3223 -0.1574 -0.1981
  191POPC   H9X22095   0.437   0.365   7.811 -0.2211 -2.3383 -1.0625
  191POPC   H9Y22096   0.284   0.257   7.808 -2.3341  0.6540 -0.3532
  191POPC  C31022097   0.293   0.414   7.961  1.1336  0.0887 -0.3362
  191POPC  H10X22098   0.184   0.418   7.980  0.8254 -1.3542 -1.6177
  191POPC  H10Y22099   0.332   0.518   7.958  0.6899  0.2429 -0.7560
  191POPC  C31122100   0.345   0.333   8.077 -0.2685  0.1716 -0.1012
  191POPC  H11X22101   0.439   0.282   8.047  0.2163  0.5777  0.6885
  191POPC  H11Y22102   0.275   0.253   8.110 -1.0420  0.6033 -0.6578
  191POPC  C31222103   0.377   0.426   8.189 -0.9919  0.0717 -0.5173
  191POPC  H12X22104   0.294   0.500   8.187  0.0814  1.3020 -2.2079
  191POPC  H12Y22105   0.471   0.482   8.175  0.3737 -1.0260  3.1480
  191POPC  C31322106   0.368   0.352   8.324  0.1046  0.5057  0.1701
  191POPC  H13X22107   0.432   0.262   8.339 -0.8388 -0.2670 -0.3697
  191POPC  H13Y22108   0.266   0.309   8.337 -0.2093  1.0505 -0.4913
  191POPC  C31422109   0.411   0.441   8.435  0.5453  0.0290  0.0279
  191POPC  H14X22110   0.496   0.501   8.394 -1.7061  1.4224 -3.0109
  191POPC  H14Y22111   0.436   0.382   8.525 -1.1341 -1.9306 -0.7087
  191POPC  C31522112   0.302   0.542   8.479  0.0009  0.1999 -0.1136
  191POPC  H15X22113   0.202   0.495   8.485  0.5573 -0.8677  1.3885
  191POPC  H15Y22114   0.300   0.610   8.392  4.6462 -0.0192 -0.6149
  191POPC  C31622115   0.330   0.624   8.611  0.0589  0.0845 -0.2706
  191POPC  H16X22116   0.362   0.555   8.691 -1.6187  0.6108  0.9196
  191POPC  H16Y22117   0.236   0.672   8.647 -0.1616 -0.6694  0.1606
  191POPC  H16Z22118   0.405   0.706   8.608  1.2421 -0.5389  4.5459
  192POPC     N22119   4.946   3.861   6.491  0.0331 -0.3276 -0.2272
  192POPC   C1222120   4.852   3.968   6.548 -0.3910 -0.1706  0.1327
  192POPC  H12A22121   4.807   3.939   6.641 -2.5429 -0.1570 -0.8401
  192POPC  H12B22122   4.771   3.981   6.477 -1.4552 -2.7479  0.7961
  192POPC   C1322123   5.026   3.793   6.599  0.1774  0.2859  0.3356
  192POPC  H13A22124   5.091   3.872   6.634 -1.5167  1.9104  0.0113
  192POPC  H13B22125   4.961   3.769   6.682  0.1504  1.4032  0.6657
  192POPC  H13C22126   5.093   3.715   6.568 -1.0523 -0.0794 -1.5338
  192POPC   C1422127   4.869   3.749   6.435 -0.4605  0.4961 -0.7853
  192POPC  H14A22128   4.930   3.662   6.415 -1.1526 -0.3997  0.7797
  192POPC  H14B22129   4.792   3.710   6.501 -1.9915 -1.7386 -3.6585
  192POPC  H14C22130   4.812   3.775   6.347 -0.9271  0.6171 -0.4577
  192POPC   C1522131   5.029   3.920   6.384  0.1944 -0.5760  0.5467
  192POPC  H15A22132   5.114   3.859   6.361  0.2861 -0.2421 -0.0263
  192POPC  H15B22133   5.067   4.019   6.407  2.2192 -0.7491 -1.6868
  192POPC  H15C22134   4.972   3.919   6.292  2.5654  1.7244 -1.0816
  192POPC   C1122135   4.931   4.094   6.607  0.2657  0.1392 -0.2569
  192POPC  H11A22136   5.021   4.056   6.660 -0.7957 -1.8088  0.2304
  192POPC  H11B22137   4.857   4.143   6.675  0.8137  1.0886 -0.3236
  192POPC     P22138   4.872   4.281   6.443  0.1402 -0.2043 -0.0264
  192POPC   O1322139   4.758   4.201   6.394  0.0546 -0.6959 -0.4507
  192POPC   O1422140   4.955   4.350   6.336  0.4179  0.0486 -0.6340
  192POPC   O1222141   4.976   4.193   6.508  0.4149 -0.1875 -0.4250
  192POPC   O1122142   4.817   4.381   6.554  0.2307 -0.1019 -0.2241
  192POPC    C122143   4.906   4.496   6.583 -0.1527  0.5542  0.3520
  192POPC    HA22144   4.884   4.577   6.510 -0.2503 -0.3224 -0.6174
  192POPC    HB22145   5.015   4.477   6.592 -0.0232  1.3101  0.5189
  192POPC    C222146   4.867   4.550   6.725 -0.8512 -0.6383  0.6692
  192POPC    HS22147   4.903   4.655   6.730  2.9287 -1.5541 -2.3861
  192POPC   O2122148   4.918   4.468   6.823  0.0832 -0.2856 -0.0527
  192POPC   C2122149   5.042   4.504   6.861 -0.1734  0.8679 -0.7774
  192POPC   O2222150   5.107   4.594   6.812  0.1133  0.2710 -0.4632
  192POPC   C2222151   5.095   4.404   6.968 -0.0306 -0.8310  0.1231
  192POPC   H2R22152   5.197   4.374   6.934  0.4759  1.9145 -1.0741
  192POPC   H2S22153   5.033   4.312   6.967  0.0340 -0.8810 -0.8988
  192POPC    C322154   4.713   4.562   6.750  0.2032  0.2245 -0.0977
  192POPC    HX22155   4.681   4.456   6.761  1.5990 -0.1271  0.8262
  192POPC    HY22156   4.675   4.603   6.654 -2.8715 -1.7696  0.1082
  192POPC   O3122157   4.684   4.654   6.857 -0.0781  0.1269 -0.3998
  192POPC   C3122158   4.587   4.744   6.836 -0.1834  0.1433  0.4480
  192POPC   O3222159   4.525   4.745   6.728 -0.0582  0.1699  0.2098
  192POPC   C3222160   4.560   4.841   6.960 -0.8751  0.0838 -0.2623
  192POPC   H2X22161   4.450   4.834   6.972 -1.1336  0.2943 -2.2086
  192POPC   H2Y22162   4.595   4.944   6.935  0.1761 -0.2824 -0.3292
  192POPC   C2322163   5.115   4.465   7.108  0.8798  0.2749  0.0434
  192POPC   H3R22164   5.182   4.552   7.087  0.0728  0.4590 -1.9845
  192POPC   H3S22165   5.165   4.392   7.175 -1.9913 -0.4105  1.5676
  192POPC   C2422166   4.995   4.527   7.180  0.1163  0.3779  0.1273
  192POPC   H4R22167   4.918   4.450   7.204 -0.5396  0.8167 -0.5326
  192POPC   H4S22168   4.947   4.590   7.102 -0.6898 -0.0644  0.2478
  192POPC   C2522169   5.020   4.621   7.299 -0.0337 -0.0551 -0.2881
  192POPC   H5R22170   4.925   4.670   7.331  0.4329 -0.1472  1.3656
  192POPC   H5S22171   5.088   4.695   7.254 -0.7024  0.0558 -1.1495
  192POPC   C2622172   5.082   4.560   7.427 -0.0209  0.2019 -0.6735
  192POPC   H6R22173   5.190   4.546   7.408  0.0671  0.7363 -0.5793
  192POPC   H6S22174   5.039   4.461   7.453  0.7069  0.0349 -0.0976
  192POPC   C2722175   5.061   4.645   7.549 -0.5272 -0.0479 -0.0903
  192POPC   H7R22176   4.953   4.643   7.575  0.2047 -4.1014  3.9035
  192POPC   H7S22177   5.089   4.744   7.509 -0.6612  1.0943  2.4909
  192POPC   C2822178   5.130   4.588   7.672 -0.5427 -0.1310  0.2002
  192POPC   H8R22179   5.234   4.557   7.648 -1.5314 -3.1567 -0.6413
  192POPC   H8S22180   5.078   4.498   7.712 -1.8388  0.7374  0.5284
  192POPC   C2922181   5.145   4.688   7.785  0.1561  0.5389  0.3809
  192POPC   H9122182   5.234   4.752   7.788 -0.0478  0.9120 -1.0920
  192POPC  C21022183   5.056   4.703   7.885  0.2254 -0.4088  0.1893
  192POPC  H10122184   5.076   4.779   7.962 -0.2196  0.0303 -0.1284
  192POPC  C21122185   4.925   4.632   7.908 -0.4867  0.3520 -0.1028
  192POPC  H11R22186   4.935   4.568   7.998  0.5354  0.6727  0.0177
  192POPC  H11S22187   4.908   4.562   7.824 -0.3812 -0.0036  0.1690
  192POPC  C21222188   4.796   4.718   7.916 -0.0096  0.5298  0.6805
  192POPC  H12R22189   4.709   4.651   7.904 -0.6170  1.2244  1.0806
  192POPC  H12S22190   4.804   4.795   7.836  1.9936 -0.0885  0.2212
  192POPC  C21322191   4.779   4.799   8.047  0.1084  0.6138  0.1530
  192POPC  H13R22192   4.880   4.845   8.044 -0.0755  1.0026 -0.1628
  192POPC  H13S22193   4.773   4.734   8.137  1.8728  1.1979  0.7359
  192POPC  C21422194   4.656   4.896   8.048 -0.4893 -0.4937  0.2694
  192POPC  H14R22195   4.561   4.840   8.057 -0.3680 -0.8177 -0.3957
  192POPC  H14S22196   4.662   4.946   7.949 -0.1607 -2.0475 -0.5183
  192POPC  C21522197   4.681   5.001   8.159 -0.7962 -0.0582 -0.2767
  192POPC  H15R22198   4.757   5.078   8.133 -0.9817 -0.3345 -1.6797
  192POPC  H15S22199   4.715   4.948   8.251  2.3852 -0.1312 -1.3741
  192POPC  C21622200   4.564   5.092   8.202 -0.4565 -0.0097  0.3265
  192POPC  H16R22201   4.473   5.029   8.203  0.2677 -1.1178  2.8635
  192POPC  H16S22202   4.557   5.180   8.134  2.6317  1.9502  2.2929
  192POPC  C21722203   4.588   5.140   8.346 -0.0964  0.2157 -0.4321
  192POPC  H17R22204   4.694   5.172   8.352 -0.4946  1.8424 -1.3866
  192POPC  H17S22205   4.565   5.055   8.413 -3.0791 -0.1228 -1.7251
  192POPC  C21822206   4.502   5.258   8.390 -0.4319  0.8102 -0.1856
  192POPC  H18R22207   4.561   5.351   8.381 -0.0001  0.4410 -1.2601
  192POPC  H18S22208   4.478   5.248   8.498 -0.2919  0.6996 -0.1637
  192POPC  H18T22209   4.406   5.272   8.336  0.3478  0.5674 -1.6733
  192POPC   C3322210   4.611   4.784   7.102  0.1193 -0.1169  0.2522
  192POPC   H3X22211   4.706   4.733   7.076 -1.3564 -1.7563 -2.4521
  192POPC   H3Y22212   4.538   4.711   7.143 -0.2180 -0.5752 -1.0950
  192POPC   C3422213   4.635   4.901   7.192 -0.2482  0.3511  0.3819
  192POPC   H4X22214   4.545   4.966   7.192  0.6479  1.6490  0.6463
  192POPC   H4Y22215   4.726   4.958   7.163  0.2755 -0.7690 -0.2175
  192POPC   C3522216   4.659   4.857   7.334  0.5355  0.0892  0.2351
  192POPC   H5X22217   4.760   4.811   7.341  0.2613 -1.1086 -2.4813
  192POPC   H5Y22218   4.577   4.787   7.359 -0.6731  1.5974  0.7136
  192POPC   C3622219   4.649   4.967   7.431  0.3495 -0.5051  0.1495
  192POPC   H6X22220   4.542   4.998   7.431  0.5395  0.1977 -0.8245
  192POPC   H6Y22221   4.704   5.050   7.383 -1.2971 -0.3888 -1.6333
  192POPC   C3722222   4.700   4.935   7.573  0.3156  0.2087  0.6979
  192POPC   H7X22223   4.802   4.896   7.555  0.9380  1.1110  2.0482
  192POPC   H7Y22224   4.648   4.848   7.618 -0.3778  0.6924  0.8659
  192POPC   C3822225   4.695   5.053   7.669  0.6175 -0.3026  0.6004
  192POPC   H8X22226   4.764   5.132   7.633 -0.7535  0.1531 -1.1986
  192POPC   H8Y22227   4.741   5.028   7.767 -0.0400 -0.2349  0.9352
  192POPC   C3922228   4.553   5.109   7.704  0.0036  0.5492  0.8899
  192POPC   H9X22229   4.497   5.018   7.736  0.8319  0.2024  1.3721
  192POPC   H9Y22230   4.504   5.151   7.613  0.1835 -1.9437 -0.4531
  192POPC  C31022231   4.549   5.209   7.820  0.1165  0.6967 -0.0883
  192POPC  H10X22232   4.617   5.287   7.778 -0.3934  1.3152  0.2147
  192POPC  H10Y22233   4.591   5.160   7.910 -0.6985 -0.0876 -0.1205
  192POPC  C31122234   4.402   5.253   7.868  0.1393 -0.2730 -0.2692
  192POPC  H11X22235   4.357   5.163   7.915 -1.9777  1.6220  1.6000
  192POPC  H11Y22236   4.347   5.276   7.775  2.3026  1.4810 -1.2056
  192POPC  C31222237   4.403   5.373   7.971  0.2024  0.4831  0.2570
  192POPC  H12X22238   4.435   5.460   7.910 -2.4024 -0.0848 -2.1319
  192POPC  H12Y22239   4.472   5.333   8.048 -1.1631 -2.6103  0.0263
  192POPC  C31322240   4.264   5.414   8.034 -0.3085 -0.5380 -0.8144
  192POPC  H13X22241   4.214   5.330   8.087  1.8152 -1.4230 -0.1093
  192POPC  H13Y22242   4.199   5.460   7.957 -0.1875 -1.5467 -1.5450
  192POPC  C31422243   4.284   5.531   8.141 -0.2497 -0.6691  0.7107
  192POPC  H14X22244   4.334   5.614   8.087  1.1641 -2.9740 -1.7632
  192POPC  H14Y22245   4.352   5.491   8.219 -0.0967 -2.0843 -0.1070
  192POPC  C31522246   4.151   5.580   8.209 -0.2798 -0.1961  0.3047
  192POPC  H15X22247   4.174   5.643   8.297 -1.3150  0.9608 -0.2370
  192POPC  H15Y22248   4.095   5.490   8.244 -0.4429  0.0548  0.6950
  192POPC  C31622249   4.050   5.653   8.109 -0.1071  0.0350 -0.3917
  192POPC  H16X22250   4.027   5.572   8.035  0.2580 -1.9357  1.5445
  192POPC  H16Y22251   4.114   5.731   8.063  0.7569 -1.1370 -1.2697
  192POPC  H16Z22252   3.959   5.678   8.166 -1.2578  0.4411 -2.2977
  193SOD    SOD22253   2.888   3.326   2.995 -0.3719  0.2111  0.0220
  194SOD    SOD22254   6.087   5.279  13.393 -0.0271 -0.0088 -0.0149
  195SOD    SOD22255   1.333   4.843  13.298  0.6482 -0.2549  0.1415
  196SOD    SOD22256   1.968   2.623  16.952  0.6915 -0.0854 -0.2844
  197SOD    SOD22257   3.075   6.208  14.991 -0.2136 -0.1649  0.6706
  198SOD    SOD22258   1.153   1.382   5.668  0.2875 -0.0281  0.5319
  199SOD    SOD22259   3.942   5.147   2.647  0.1846  0.3511  0.1216
  200SOD    SOD22260   2.045   2.774   0.471 -0.6881  0.1563 -0.1138
  201SOD    SOD22261   2.312   3.710  14.447 -0.3518 -0.5141 -0.2027
  202SOD    SOD22262   1.756   6.070   5.703  0.3905  0.3652 -0.2222
  203SOD    SOD22263   6.137   0.018   5.782  0.1970  0.4477 -0.4024
  204SOD    SOD22264   3.625   0.922  16.016  0.2026  0.5173 -0.1703
  205SOD    SOD22265   3.789   2.619   6.181  0.3920 -0.2572  0.0174
  206SOD    SOD22266   6.524   2.584   1.584  0.7935  0.3472  0.1305
  207SOD    SOD22267   1.723   6.692  12.100  0.6260  0.2826 -0.0936
  208SOD    SOD22268   0.988   4.205  15.142 -0.1599 -0.5544 -0.0929
  209SOD    SOD22269   0.565   3.329  14.572 -0.3556  0.0775  0.3762
  210SOD    SOD22270   5.052   5.946  11.340 -0.2189  0.3972  0.6802
  211SOD    SOD22271   0.689   0.953  12.257  0.3175  0.0173 -0.0755
  212SOD    SOD22272   1.470   4.582   1.041 -0.3045 -0.0378  0.1224
  213SOD    SOD22273   4.891   1.089  12.124  0.0425 -0.0937 -0.1964
  214SOD    SOD22274   1.119   6.506   5.006 -0.0042  0.2652  0.1125
  215SOD    SOD22275   5.909   6.773   1.875 -0.3475  0.2482 -0.4206
  216SOD    SOD22276   1.118   0.550  12.358  0.3624 -0.5252  0.3687
  217SOD    SOD22277   2.362   4.875   5.620 -0.1110 -0.2660  0.5127
  218SOD    SOD22278   6.551   3.030  10.861  0.3003 -0.2695 -0.3187
  219SOD    SOD22279   5.257   2.604  11.008  0.0597 -0.6534  0.0045
  220SOD    SOD22280   2.312   3.133   5.933 -0.0240 -0.5201 -0.0244
  221SOD    SOD22281   1.718   1.272   4.939 -0.0564 -0.1742 -0.1546
  222SOD    SOD22282   5.995   1.573  11.815 -0.4495  0.4528 -0.3190
  223SOD    SOD22283   5.201   2.309  16.332  0.0548  0.1618  0.0295
  224SOD    SOD22284   3.164   3.891  12.071 -0.1356  0.6020 -0.1432
  225SOD    SOD22285   1.723   1.788   3.601 -0.0791  0.2111 -0.0413
  226SOD    SOD22286   3.126   6.599  12.003  0.2169  0.0599 -0.2597
  227SOD    SOD22287   6.213   1.457   5.986 -0.3777  0.1614  0.0012
  228SOD    SOD22288   3.929   0.220  14.994  0.3026 -0.4819  0.0216
  229SOD    SOD22289   5.956   3.304   5.238  0.5188  0.1364  0.0186
  230SOD    SOD22290   3.629   1.079  10.522  0.2013  0.1246 -0.3480
  231SOD    SOD22291   5.681   1.466   5.687  0.1685 -0.6720  0.5395
  232SOD    SOD22292   5.044   6.388  14.706  0.5351  0.0465  0.0334
  233SOD    SOD22293   3.289   4.235   5.280 -0.0801 -0.0932  0.7205
  234SOD    SOD22294   6.383   0.516  12.739 -0.0633 -0.0096  0.0102
  235SOD    SOD22295   5.641   2.823  16.208 -0.4862  0.0542  0.2869
  236SOD    SOD22296   1.655   0.700  13.173 -0.5333  0.1609 -0.2461
  237SOD    SOD22297   6.141   5.216   3.999  0.0763 -0.2475  0.1237
  238SOD    SOD22298   1.625   4.413   4.001  0.3664 -0.0635  0.0449
  239SOD    SOD22299   2.168   0.904  10.673  0.5978  0.2583 -0.0717
  240SOD    SOD22300   0.542   5.581  11.591 -0.1774 -0.4274 -0.0988
  241SOD    SOD22301   1.948   3.516  12.015  0.1041 -0.3193  0.1341
  242SOD    SOD22302   4.926   5.092   6.603  0.0100 -0.3333  0.2473
  243SOD    SOD22303   2.805   2.672   0.866  0.0977  0.0140 -0.4749
  244SOD    SOD22304   5.150   0.992  16.433  0.5373 -0.5282 -0.1545
  245SOD    SOD22305   5.610   3.232  14.217  0.0582 -0.0598 -0.1442
  246SOD    SOD22306   1.797   6.622   2.791  0.0242  0.0707 -0.0392
  247SOD    SOD22307   5.962   5.049   2.705 -0.0830  0.0485 -0.5287
  248SOD    SOD22308   0.844   3.290   3.991 -0.4270 -0.5725  0.2833
  249SOD    SOD22309   3.114   1.659   3.124 -0.4191  0.3035  0.0046
  250SOD    SOD22310   6.095   6.641   5.419  0.2247 -0.4616 -0.1656
  251SOD    SOD22311   5.373   0.442   0.713  0.2789 -0.1031  0.2972
  252SOD    SOD22312   0.597   2.572  12.271 -0.2653 -0.2583 -0.0104
  253SOD    SOD22313   5.737   3.450  12.854  0.2131  0.3601 -0.1746
  254SOD    SOD22314   1.321   1.202  12.025 -0.4571 -0.1946 -0.7718
  255SOD    SOD22315   3.304   2.201  11.305  0.0617 -0.6635 -0.5854
  256SOD    SOD22316   4.424   1.807   5.711  0.8782  0.5463  0.0875
  257SOD    SOD22317   1.035   3.547   2.900  0.0632 -0.5414 -0.0301
  258SOD    SOD22318   2.304   0.429   0.573 -0.3403 -0.4198 -0.4073
  259SOD    SOD22319   3.065   0.211  12.897 -0.0122  0.1895 -0.0517
  260SOD    SOD22320   1.218   3.876   2.487 -0.0566  0.2879  0.2096
  261SOD    SOD22321   6.105   2.019   2.223 -0.6281  0.0803 -0.1217
  262SOD    SOD22322   5.571   2.808  12.471 -0.2904  0.1445  0.3308
  263SOD    SOD22323   2.919   2.026  15.230  0.0931  0.1218  0.2183
  264SOD    SOD22324   3.756   4.591  15.308 -0.3985  0.5651 -0.3931
  265SOD    SOD22325   6.073   4.144  10.938  0.4667  0.1121  0.0036
  266SOD    SOD22326   4.484   2.326  11.779 -0.4921 -0.0182  0.2341
  267SOD    SOD22327   0.036   4.011   0.354 -0.1059  0.3464  0.1602
  268SOD    SOD22328   4.593   6.255   6.099 -0.0249 -0.0767 -0.4424
  269SOD    SOD22329   0.612   5.433   3.422  0.1889  0.2297  0.2296
  270CLA    CLA22330   4.989   1.652   5.133 -0.1959  0.1072  0.1605
  271CLA    CLA22331   1.896   3.100  14.719  0.1774 -0.2862  0.3618
  272CLA    CLA22332   3.706   5.451  15.606 -0.0293  0.3796  0.3107
  273CLA    CLA22333   1.721   3.858  14.911  0.4122  0.0280 -0.1353
  274CLA    CLA22334   6.601   3.449  14.573 -0.1933 -0.3352  0.0883
  275CLA    CLA22335   1.648   2.515   5.489  0.5445  0.0039  0.1320
  276CLA    CLA22336   2.566   5.480   4.545 -0.1621 -0.4326 -0.7147
  277CLA    CLA22337   3.440   3.541   1.130  0.4391 -0.3460  0.0732
  278CLA    CLA22338   5.710   0.980  13.959  0.1097  0.1106  0.0960
  279CLA    CLA22339   4.233   1.932   2.564 -0.0081 -0.3829  0.5675
  280CLA    CLA22340   0.586   1.252  16.939  0.2738 -0.1436 -0.0602
  281CLA    CLA22341   0.205   3.016   1.221  0.3394  0.1601  0.2698
  282CLA    CLA22342   4.550   0.112  12.598 -0.2520 -0.0578 -0.0919
  283CLA    CLA22343   1.207   1.938  12.608 -0.0082  0.0039  0.3074
  284CLA    CLA22344   2.847   6.528  16.625 -0.1098 -0.1642 -0.0809
  285CLA    CLA22345   0.744   3.038  13.514  0.2269 -0.0478  0.2848
  286CLA    CLA22346   2.771   5.982  13.765  0.1584 -0.0226  0.1251
  287CLA    CLA22347   5.649   3.234   2.105 -0.3389 -0.0602 -0.0816
  288CLA    CLA22348   4.051   5.912  16.173  0.1541 -0.1165 -0.2782
  289CLA    CLA22349   3.674   5.598  11.439 -0.0229  0.0178 -0.5078
  290CLA    CLA22350   4.545   3.419   3.775  0.0911  0.5869  0.3103
  291CLA    CLA22351   1.976   4.984   3.533  0.0652  0.0132  0.2232
  292CLA    CLA22352   0.531   0.462  12.503 -0.2615 -0.1376  0.3335
  293CLA    CLA22353   4.485   3.310  12.091 -0.2833  0.0128 -0.1813
  294CLA    CLA22354   1.116   6.032   2.395  0.0853  0.2825 -0.3237
  295CLA    CLA22355   2.330   1.956  11.443 -0.0012  0.4253  0.0713
  296CLA    CLA22356   4.560   3.666   1.774  0.0647  0.3665 -0.0949
  297CLA    CLA22357   1.717   0.632  11.463  0.2880  0.0972 -0.0353
  298CLA    CLA22358   0.035   5.553   4.878 -0.4396  0.4481  0.3844
  299CLA    CLA22359   1.753   1.774   2.287  0.3655  0.2313 -0.1921
  300CLA    CLA22360   3.621   1.548   4.972 -0.6505 -0.0291  0.2054
  301CLA    CLA22361   1.313   2.700  16.192 -0.1665 -0.0750 -0.6598
  302CLA    CLA22362   5.857   1.777  11.888  0.0618  0.1533 -0.3191
  303CLA    CLA22363   4.885   1.807  14.401 -0.0436  0.1685  0.1107
  304CLA    CLA22364   5.833   6.120   4.577  0.2336 -0.2884  0.2322
  305CLA    CLA22365   2.776   2.492   3.407  0.0523  0.4291  0.4104
  306CLA    CLA22366   3.807   3.979  12.556  0.0958 -0.2217  0.5826
  307CLA    CLA22367   4.345   0.226  14.755  0.5137  0.1360 -0.0205
  308CLA    CLA22368   5.270   5.400   1.003  0.0527  0.0926 -0.2988
  309CLA    CLA22369   2.863   3.783   3.000 -0.6453  0.1733  0.1496
  310CLA    CLA22370   3.444   2.085  12.866 -0.1789 -0.5163 -0.1088
  311CLA    CLA22371   0.160   1.768  14.962  0.1016  0.2747  0.0104
  312CLA    CLA22372   1.796   3.021  12.694 -0.2143 -0.3360  0.5121
  313CLA    CLA22373   3.437   0.552   0.974  0.2204  0.1302 -0.1670
  314CLA    CLA22374   4.706   4.224  15.425  0.0530 -0.1721 -0.3228
  315CLA    CLA22375   2.576   0.769  12.980  0.1742  0.0320  0.0363
  316CLA    CLA22376   1.531   0.151  16.443 -0.3571  0.3878 -0.0905
  317CLA    CLA22377   3.230   1.768  17.104  0.1291 -0.3394 -0.3523
  318CLA    CLA22378   1.087   0.773   1.287 -0.3176 -0.0189 -0.2564
  319CLA    CLA22379   2.288   2.075  12.539  0.1857 -0.1668 -0.0329
  320CLA    CLA22380   2.491   4.068   5.554  0.2879  0.4374 -0.2612
  321CLA    CLA22381   0.432   4.324   3.668 -0.0573  0.3902 -0.3560
  322CLA    CLA22382   0.376   5.706   3.024  0.3962  0.4333 -0.0389
  323TIP3   OH222383   1.308   2.847  12.606  0.1335 -0.1551 -0.1171
  323TIP3    H122384   1.326   2.760  12.642 -1.4733  0.3894  2.1989
  323TIP3    H222385   1.362   2.906  12.658 -0.4716  0.4512 -0.1646
  324TIP3   OH222386   1.199   1.484  12.214  0.0131  0.4803 -0.4680
  324TIP3    H122387   1.160   1.420  12.155 -0.0039 -0.1124  0.1619
  324TIP3    H222388   1.241   1.547  12.157  0.4062 -0.3358 -1.1070
  325TIP3   OH222389   1.273   1.644  12.615 -0.0343 -0.3780  0.3874
  325TIP3    H122390   1.203   1.590  12.577 -0.2471 -0.6353  1.1061
  325TIP3    H222391   1.239   1.733  12.610 -0.1100 -0.4219  0.0883
  326TIP3   OH222392   4.040   3.145   1.047 -0.5149  0.4373 -0.2397
  326TIP3    H122393   4.112   3.163   1.108  0.3471  1.4777 -1.5121
  326TIP3    H222394   4.051   3.210   0.977 -0.8203 -1.3942 -2.0772
  327TIP3   OH222395   1.354   0.888  14.731  0.3336 -0.8370  0.0443
  327TIP3    H122396   1.364   0.828  14.805  0.6702  0.7611  1.3338
  327TIP3    H222397   1.390   0.971  14.762 -2.9017  0.9389 -0.5720
  328TIP3   OH222398   0.387   6.473  13.368 -0.4782  0.5478 -0.4115
  328TIP3    H122399   0.354   6.519  13.291  0.1378 -0.7515 -1.4941
  328TIP3    H222400   0.389   6.381  13.342 -0.0990  0.1015  1.1065
  329TIP3   OH222401   5.938   3.622  11.134  0.1386  0.1285  0.0241
  329TIP3    H122402   5.925   3.702  11.084 -1.1441  0.1146  0.3023
  329TIP3    H222403   5.853   3.578  11.132  1.0071 -1.6405 -0.8140
  330TIP3   OH222404   2.942   5.810  16.384 -0.4328  0.2271 -0.0600
  330TIP3    H122405   2.937   5.900  16.415 -1.6361  0.3152 -0.4548
  330TIP3    H222406   3.022   5.775  16.424 -1.0151  0.8431  1.7507
  331TIP3   OH222407   6.070   3.235   4.741  0.5026  0.2081  0.1735
  331TIP3    H122408   6.160   3.262   4.761  0.6458  0.1803 -0.4140
  331TIP3    H222409   6.078   3.183   4.661 -0.1350  0.8415 -0.3165
  332TIP3   OH222410   1.561   1.176  10.733  0.2757  0.6931  0.2444
  332TIP3    H122411   1.520   1.098  10.696 -0.0674  0.3173  1.3586
  332TIP3    H222412   1.582   1.231  10.658 -1.2192  0.3820 -0.4368
  333TIP3   OH222413   6.326   3.164   5.030  0.3290  0.5474 -0.7786
  333TIP3    H122414   6.409   3.169   5.079  0.7455  4.6569 -1.5149
  333TIP3    H222415   6.350   3.190   4.941 -1.7925  2.8065 -0.7922
  334TIP3   OH222416   6.691   6.713  13.592  0.1897 -0.0753  0.0910
  334TIP3    H122417   6.643   6.795  13.603 -0.5326 -0.3986 -0.5105
  334TIP3    H222418   6.759   6.734  13.528 -0.1908 -0.0215 -0.2980
  335TIP3   OH222419   4.692   1.392  17.073  0.4470 -0.4149 -0.1832
  335TIP3    H122420   4.632   1.419  17.143  2.3381 -1.1504  1.8450
  335TIP3    H222421   4.641   1.331  17.020 -0.5332 -1.4002  1.7536
  336TIP3   OH222422   4.163   4.214  16.464 -0.1553  0.1107  0.5066
  336TIP3    H122423   4.173   4.126  16.429 -1.3520 -0.5268  1.6713
  336TIP3    H222424   4.072   4.237  16.445 -0.1151  0.7191  1.0162
  337TIP3   OH222425   1.637   5.396   3.519 -0.3266  0.1788 -0.0126
  337TIP3    H122426   1.695   5.357   3.585  0.4869  2.5827  0.7751
  337TIP3    H222427   1.550   5.360   3.540  0.2691 -0.7321  1.0082
  338TIP3   OH222428   2.300   4.837  10.935 -0.5126  0.1243 -0.3973
  338TIP3    H122429   2.223   4.803  10.980 -1.3648 -1.3866 -2.8094
  338TIP3    H222430   2.369   4.834  11.001 -2.2569  0.6543  1.5787
  339TIP3   OH222431   1.215   1.288   2.043 -0.2130  0.3633 -0.4886
  339TIP3    H122432   1.262   1.371   2.059 -0.1967  0.3747 -0.5897
  339TIP3    H222433   1.134   1.296   2.093  0.8988 -0.6156  1.5953
  340TIP3   OH222434   1.812   1.612  14.995  0.5938  0.5049  0.2202
  340TIP3    H122435   1.779   1.660  15.071 -0.5961 -0.1378  0.1324
  340TIP3    H222436   1.827   1.523  15.028 -0.3673  0.1041 -0.3852
  341TIP3   OH222437   3.915   4.039  13.842 -0.2350  0.4705 -0.4958
  341TIP3    H122438   3.982   4.071  13.903 -1.1570 -0.8200  1.3204
  341TIP3    H222439   3.877   4.118  13.805  1.9325  1.2474 -1.2384
  342TIP3   OH222440   0.669   0.507  14.343 -0.1527 -0.4342  0.2625
  342TIP3    H122441   0.638   0.508  14.434 -0.9646 -3.1326  0.0887
  342TIP3    H222442   0.589   0.512  14.291  0.2103 -0.3307 -0.2921
  343TIP3   OH222443   1.563   1.338   5.776  0.1687 -0.0028 -0.6528
  343TIP3    H122444   1.564   1.294   5.861  1.6241  1.6259  0.2431
  343TIP3    H222445   1.471   1.347   5.754 -0.2097 -1.0259  0.4453
  344TIP3   OH222446   5.989   2.931   2.352  0.3187 -0.3042  0.0005
  344TIP3    H122447   6.067   2.922   2.406  0.1815 -0.7390  0.1331
  344TIP3    H222448   6.021   2.962   2.267  0.4420  1.3193  0.5935
  345TIP3   OH222449   0.875   5.513   2.886 -0.2689 -0.2225  0.6082
  345TIP3    H122450   0.858   5.607   2.872  0.5439 -0.1289  0.2030
  345TIP3    H222451   0.957   5.511   2.935 -0.2761 -0.7306  0.5965
  346TIP3   OH222452   3.624   3.900  13.126 -0.0623  0.1792  0.3499
  346TIP3    H122453   3.560   3.966  13.153  1.3271  2.0825 -0.7480
  346TIP3    H222454   3.615   3.895  13.031  0.8931 -0.0840  0.2632
  347TIP3   OH222455   6.662   2.048   5.045 -0.0356 -0.4392  0.0371
  347TIP3    H122456   6.585   1.996   5.020  0.2824 -1.7301  1.5939
  347TIP3    H222457   6.723   1.984   5.083 -0.2584  1.2017  3.5584
  348TIP3   OH222458   0.584   2.820   5.047 -0.1028  0.7364  0.1026
  348TIP3    H122459   0.585   2.804   4.953  0.1350  1.0980  0.0430
  348TIP3    H222460   0.570   2.733   5.086  0.1488  0.5371 -0.2507
  349TIP3   OH222461   2.416   6.727   5.891 -0.1620 -0.1901 -0.6919
  349TIP3    H122462   2.415   6.631   5.887  1.4329 -0.3088  0.5027
  349TIP3    H222463   2.370   6.748   5.972  0.3377 -0.0304 -0.4416
  350TIP3   OH222464   3.894   2.726   0.788 -0.2684 -0.4276  0.3131
  350TIP3    H122465   3.957   2.791   0.820  0.0007 -0.2241 -0.6004
  350TIP3    H222466   3.870   2.675   0.866  0.7727 -0.2934  0.7330
  351TIP3   OH222467   3.759   1.100   2.514  0.0674 -0.2682 -0.1790
  351TIP3    H122468   3.803   1.019   2.539 -1.6480 -0.8223  1.2438
  351TIP3    H222469   3.708   1.077   2.437  0.3996 -0.2599 -0.4020
  352TIP3   OH222470   6.697   6.454   1.166 -0.3280 -0.3770 -1.1108
  352TIP3    H122471   6.709   6.530   1.111 -1.3454  0.7625  0.1697
  352TIP3    H222472   6.785   6.426   1.189  0.0615  0.1251 -1.9794
  353TIP3   OH222473   2.721   4.983  11.018 -0.1208  0.3205  0.3174
  353TIP3    H122474   2.771   4.991  10.937  0.5729  0.3773  0.7387
  353TIP3    H222475   2.683   4.895  11.014 -0.4371  0.4809 -0.2591
  354TIP3   OH222476   1.967   0.963  12.067  0.3360 -0.7164 -0.4816
  354TIP3    H122477   2.049   0.940  12.024  0.1739 -0.3654 -0.9971
  354TIP3    H222478   1.952   1.054  12.043  0.4462 -0.3775  0.6779
  355TIP3   OH222479   3.143   5.761  11.659  0.0147  0.0734 -0.5774
  355TIP3    H122480   3.126   5.710  11.579  1.0927 -2.2623  0.5630
  355TIP3    H222481   3.226   5.726  11.692 -0.5402  0.7295  1.7130
  356TIP3   OH222482   3.779   0.502  16.164  0.1413  0.0851  0.0290
  356TIP3    H122483   3.754   0.410  16.171 -1.1963  0.4614  0.4086
  356TIP3    H222484   3.732   0.545  16.236  0.5928  1.1002 -0.2652
  357TIP3   OH222485   6.510   2.875   3.727 -0.3150 -0.1755  0.2489
  357TIP3    H122486   6.517   2.970   3.736  0.8432 -0.2664  0.4295
  357TIP3    H222487   6.498   2.861   3.633  0.1892  0.1165  0.1393
  358TIP3   OH222488   6.071   2.219   2.106 -0.0135 -0.2398 -0.1019
  358TIP3    H122489   6.129   2.286   2.142  1.4404 -2.2384  1.4993
  358TIP3    H222490   6.040   2.256   2.023  1.7647  1.8388  0.0825
  359TIP3   OH222491   1.939   1.593  11.277 -0.0067 -0.3415  0.3244
  359TIP3    H122492   1.860   1.605  11.225  0.4442 -2.9577 -1.1217
  359TIP3    H222493   2.008   1.575  11.214  2.4724  4.1209  1.3266
  360TIP3   OH222494   6.427   5.477   6.329  0.1372  0.5447 -0.1137
  360TIP3    H122495   6.432   5.514   6.241  1.9927 -0.5519 -0.5262
  360TIP3    H222496   6.433   5.553   6.387 -2.4551  1.4256 -0.8498
  361TIP3   OH222497   6.062   4.290   0.370 -0.1701 -0.0375  0.4727
  361TIP3    H122498   6.074   4.384   0.378  0.0713 -0.0836  0.6934
  361TIP3    H222499   6.134   4.253   0.421  0.3411 -0.3479 -0.4596
  362TIP3   OH222500   5.545   2.782  13.228 -0.0105  0.3702  1.0763
  362TIP3    H122501   5.452   2.788  13.207 -0.4673 -3.7529  1.1077
  362TIP3    H222502   5.590   2.799  13.145 -0.9139 -0.0396  0.4982
  363TIP3   OH222503   2.911   1.997  12.583 -0.3775  0.0960  0.1784
  363TIP3    H122504   2.918   2.082  12.625 -1.6706  0.5206 -0.4194
  363TIP3    H222505   2.862   1.943  12.645 -0.3805  0.0679  0.1518
  364TIP3   OH222506   0.609   0.518   1.667 -0.2862 -0.2681  0.1286
  364TIP3    H122507   0.643   0.429   1.681 -1.6988 -0.6236  1.6228
  364TIP3    H222508   0.664   0.574   1.722  0.8238 -0.1222 -1.0723
  365TIP3   OH222509   3.137   5.673   1.971 -0.6216 -0.3550 -0.2922
  365TIP3    H122510   3.156   5.767   1.974  0.7149 -0.3915 -3.4945
  365TIP3    H222511   3.098   5.654   2.056 -0.6137  3.0089  0.6189
  366TIP3   OH222512   2.570   2.991   2.843 -0.0648  0.3742  0.3878
  366TIP3    H122513   2.652   3.017   2.801  1.3492  0.5357  2.9877
  366TIP3    H222514   2.538   2.918   2.791  1.8066  0.2191 -0.6361
  367TIP3   OH222515   5.202   2.834  11.390  0.2027 -0.3045 -0.1266
  367TIP3    H122516   5.244   2.790  11.463 -1.9196  0.5260  1.7000
  367TIP3    H222517   5.114   2.798  11.387 -0.0974  0.4403 -1.6286
  368TIP3   OH222518   2.204   3.625   5.613  0.2075 -0.4134  0.3449
  368TIP3    H122519   2.207   3.607   5.707 -0.4547  0.0712  0.4652
  368TIP3    H222520   2.272   3.691   5.599 -0.0947 -0.0398  0.5952
  369TIP3   OH222521   2.306   0.560  12.334 -0.0478  0.7261  0.1032
  369TIP3    H122522   2.304   0.638  12.279 -1.9688  0.1140 -0.7927
  369TIP3    H222523   2.383   0.571  12.390  1.5263  1.7667 -2.1288
  370TIP3   OH222524   2.557   2.908  13.715 -0.2875  0.2422 -0.3236
  370TIP3    H122525   2.475   2.874  13.680 -0.8890  1.4032 -0.1004
  370TIP3    H222526   2.559   2.877  13.806  0.1150 -0.7753 -0.6654
  371TIP3   OH222527   5.928   4.961   0.516  0.1384  0.2617  0.0489
  371TIP3    H122528   6.011   4.942   0.471  0.4999  0.5305  0.5879
  371TIP3    H222529   5.923   5.057   0.516  0.8763  0.3256  1.8723
  372TIP3   OH222530   6.173   1.382  14.589 -0.3530 -0.3536  0.0072
  372TIP3    H122531   6.245   1.321  14.574 -0.9208 -1.0124 -0.1022
  372TIP3    H222532   6.096   1.326  14.598 -0.7875  0.3105  0.5600
  373TIP3   OH222533   6.491   6.152   4.138  0.5446 -0.2825  0.2348
  373TIP3    H122534   6.448   6.080   4.183 -2.5144 -0.7843 -2.9966
  373TIP3    H222535   6.420   6.197   4.092  2.8920  2.2360 -1.2684
  374TIP3   OH222536   3.366   1.739  16.815  0.0907  0.0543  0.2175
  374TIP3    H122537   3.375   1.645  16.832  5.1050  0.4877  1.6416
  374TIP3    H222538   3.339   1.775  16.900 -0.1519  0.0403  0.1463
  375TIP3   OH222539   5.609   2.059  16.414  0.3984 -0.5470 -0.0372
  375TIP3    H122540   5.653   1.974  16.410 -0.1924 -0.8711  0.2730
  375TIP3    H222541   5.610   2.090  16.323  3.5312  0.6614  0.2829
  376TIP3   OH222542   3.616   6.518  12.893 -0.2495 -0.5478  0.5807
  376TIP3    H122543   3.646   6.597  12.847 -1.7244 -0.6394 -0.5997
  376TIP3    H222544   3.697   6.472  12.916  0.5995  0.7375  0.2834
  377TIP3   OH222545   4.615   5.986  16.652  0.0917 -0.0543  0.5066
  377TIP3    H122546   4.691   6.016  16.602  0.4578 -1.9217 -0.1528
  377TIP3    H222547   4.547   5.975  16.586  0.4376 -2.0837  0.4285
  378TIP3   OH222548   6.131   0.301   1.724 -0.0557 -0.4740 -0.6567
  378TIP3    H122549   6.079   0.309   1.644  0.5916  0.5905 -0.9995
  378TIP3    H222550   6.218   0.276   1.693 -0.2276 -1.7805 -0.1283
  379TIP3   OH222551   5.166   6.287  14.146  0.1649  0.1923  0.9443
  379TIP3    H122552   5.160   6.215  14.209 -0.0339 -0.9411 -0.3162
  379TIP3    H222553   5.256   6.318  14.154  0.8504 -1.4618  0.2299
  380TIP3   OH222554   4.821   0.029  14.947  0.3680  0.0849 -0.2097
  380TIP3    H122555   4.789   0.047  14.858 -1.7095 -2.4133 -0.0875
  380TIP3    H222556   4.916   0.023  14.937  0.1455 -0.7469 -2.4297
  381TIP3   OH222557   1.900   1.197   0.112  0.1340  0.3158 -0.0023
  381TIP3    H122558   1.870   1.186   0.022  0.7138 -2.1461  0.0393
  381TIP3    H222559   1.971   1.133   0.121 -1.9237 -1.7768  3.0579
  382TIP3   OH222560   5.994   2.163  15.133 -0.0057  0.3065  0.4345
  382TIP3    H122561   5.928   2.128  15.193 -1.2184  0.5138 -0.7207
  382TIP3    H222562   6.020   2.089  15.079  1.0914  0.1163  1.1912
  383TIP3   OH222563   4.568   6.651  12.417  0.4943 -0.0012 -0.1637
  383TIP3    H122564   4.642   6.599  12.448 -1.0948 -1.3411  1.5699
  383TIP3    H222565   4.581   6.737  12.457  0.9964 -0.3008  0.3318
  384TIP3   OH222566   1.840   3.390  15.993 -0.0460  0.4717  0.0040
  384TIP3    H122567   1.900   3.437  16.051 -0.2678  1.3735 -0.4637
  384TIP3    H222568   1.759   3.381  16.044 -0.6026  2.2071 -0.4803
  385TIP3   OH222569   2.030   2.201   1.647  0.3960  0.1627  0.1540
  385TIP3    H122570   2.080   2.283   1.647 -2.0531  1.7403  0.3458
  385TIP3    H222571   2.023   2.178   1.555  0.8070  0.3494  0.0711
  386TIP3   OH222572   3.583   4.590   1.597  0.3132 -0.4356  0.2313
  386TIP3    H122573   3.548   4.624   1.515  0.0936 -1.7073 -0.2352
  386TIP3    H222574   3.527   4.628   1.665  1.1905  1.5259 -0.0850
  387TIP3   OH222575   4.589   6.618  17.184 -0.2307 -0.5356  0.3984
  387TIP3    H122576   4.665   6.638  17.240 -0.4175 -1.6085  1.0736
  387TIP3    H222577   4.514   6.654  17.232 -0.8838 -4.3987  2.7840
  388TIP3   OH222578   4.532   2.087   4.813  0.0802  0.1024  0.4506
  388TIP3    H122579   4.510   2.180   4.823  1.5852  0.5902 -0.4803
  388TIP3    H222580   4.449   2.046   4.788 -0.4749  1.2924  0.2654
  389TIP3   OH222581   0.218   2.215  15.199  0.2013  0.1291  0.5017
  389TIP3    H122582   0.132   2.252  15.176  0.3024  0.8945  1.3204
  389TIP3    H222583   0.271   2.228  15.121 -0.2059  0.3254  0.2516
  390TIP3   OH222584   3.636   3.063   4.568 -0.2454 -0.0394 -0.2700
  390TIP3    H122585   3.705   3.091   4.628  0.1278  0.6299 -0.9922
  390TIP3    H222586   3.616   2.973   4.594  0.0128  0.1939  0.7507
  391TIP3   OH222587   2.048   6.559   5.903  0.2021  0.0483  0.1197
  391TIP3    H122588   2.071   6.508   5.981 -0.8692 -2.3177 -1.0184
  391TIP3    H222589   2.100   6.521   5.833  0.0495  1.1605 -0.6156
  392TIP3   OH222590   4.970   2.711   4.980  0.2322 -0.6059  0.4988
  392TIP3    H122591   5.041   2.744   4.925 -0.5229  1.5349  0.7065
  392TIP3    H222592   4.893   2.715   4.923 -0.0006 -1.4627  0.7437
  393TIP3   OH222593   6.340   5.489  15.657 -0.0984  0.0278 -0.7468
  393TIP3    H122594   6.292   5.407  15.653  0.7268 -0.5780  0.8595
  393TIP3    H222595   6.416   5.470  15.712  1.3757  1.2686 -2.2332
  394TIP3   OH222596   0.165   5.609   1.475 -0.2162 -0.3836 -0.0611
  394TIP3    H122597   0.234   5.592   1.411  1.4380 -1.5785  1.9370
  394TIP3    H222598   0.199   5.683   1.526 -1.0327 -0.1456  0.1460
  395TIP3   OH222599   5.555   6.146   4.427 -0.5168 -0.4428 -0.7358
  395TIP3    H122600   5.516   6.084   4.490 -1.9817  0.4948 -0.6686
  395TIP3    H222601   5.645   6.157   4.457  0.2545 -3.5488 -1.5294
  396TIP3   OH222602   4.226   6.157   0.694  0.1206 -0.4292  0.6911
  396TIP3    H122603   4.266   6.176   0.609  1.6217 -1.1775  1.1906
  396TIP3    H222604   4.214   6.243   0.735 -3.2363  0.2239 -1.3138
  397TIP3   OH222605   1.549   3.240   2.577  0.5237  0.5961 -0.2375
  397TIP3    H122606   1.468   3.267   2.534 -0.7318  0.7213  2.0434
  397TIP3    H222607   1.572   3.313   2.633  1.5915  0.0983 -0.0086
  398TIP3   OH222608   6.742   4.348   4.499  0.0081  0.1017 -0.7707
  398TIP3    H122609   6.825   4.314   4.466 -0.0214  1.0317 -1.8560
  398TIP3    H222610   6.767   4.417   4.561  0.0529 -1.2984  0.8609
  399TIP3   OH222611   0.301   4.920   0.141 -0.7481  0.2818  0.4066
  399TIP3    H122612   0.297   4.986   0.071  0.0861  0.2698  0.3333
  399TIP3    H222613   0.254   4.959   0.214 -3.6492 -0.6100 -0.8443
  400TIP3   OH222614   5.319   0.099   6.183  0.5058 -0.2475 -0.5286
  400TIP3    H122615   5.268   0.112   6.263  0.5222  1.3014 -0.7469
  400TIP3    H222616   5.258   0.057   6.122 -0.0102  0.0898 -0.2482
  401TIP3   OH222617   1.733   0.169  17.186 -0.1298  0.1665  0.7529
  401TIP3    H122618   1.761   0.221  17.261  0.9486 -0.3310  0.7139
  401TIP3    H222619   1.793   0.195  17.116  0.1474 -0.8154  0.6154
  402TIP3   OH222620   4.474   3.203   0.762  0.7112  0.4537 -0.0721
  402TIP3    H122621   4.559   3.159   0.755  1.8424  2.1019  1.9699
  402TIP3    H222622   4.492   3.294   0.738 -0.6690  0.6858 -0.3310
  403TIP3   OH222623   5.762   4.155   3.771  0.0850 -0.0804  0.2063
  403TIP3    H122624   5.731   4.111   3.851  0.1640 -0.3291  0.1015
  403TIP3    H222625   5.696   4.132   3.705 -0.0045  0.1625  0.2120
  404TIP3   OH222626   6.453   4.659  15.949 -0.1365  0.1494  0.6483
  404TIP3    H122627   6.432   4.568  15.925 -0.9315  0.0032  1.7746
  404TIP3    H222628   6.452   4.659  16.045  1.1602  1.0730  0.6880
  405TIP3   OH222629   4.303   5.109   3.476  0.4390  0.0872  0.3581
  405TIP3    H122630   4.241   5.118   3.549  0.2260  1.3648  0.0452
  405TIP3    H222631   4.258   5.054   3.413 -0.1183  0.4629  0.4221
  406TIP3   OH222632   0.682   3.575   0.564 -0.5622  0.2594 -0.3359
  406TIP3    H122633   0.747   3.532   0.618  1.3542 -0.3042 -2.8694
  406TIP3    H222634   0.728   3.649   0.524 -1.4957  0.0171 -2.0041
  407TIP3   OH222635   4.813   1.941  14.668  0.0645  0.5953 -0.1269
  407TIP3    H122636   4.814   1.888  14.588 -0.7970  0.0249  0.2273
  407TIP3    H222637   4.725   1.981  14.669 -0.5888 -0.7783  1.4058
  408TIP3   OH222638   2.084   0.501   4.423 -0.4009  0.5016  0.6728
  408TIP3    H122639   2.002   0.485   4.470 -0.3725  0.7879  0.8233
  408TIP3    H222640   2.143   0.536   4.490  0.7397 -2.2787  1.2568
  409TIP3   OH222641   1.900   4.449   3.500  0.5586  0.0099  0.5802
  409TIP3    H122642   1.962   4.519   3.519 -1.3794  1.3122  2.4958
  409TIP3    H222643   1.821   4.472   3.549 -0.8942 -2.4339 -0.4204
  410TIP3   OH222644   1.238   1.632   4.618 -0.2215 -0.4880  0.1647
  410TIP3    H122645   1.150   1.669   4.616 -0.1122 -0.2449 -0.3903
  410TIP3    H222646   1.256   1.608   4.527 -0.1262 -1.5248  0.4396
  411TIP3   OH222647   6.383   5.230  15.059  0.4980 -0.1864  0.0292
  411TIP3    H122648   6.388   5.153  15.003 -0.6140  0.2783 -0.7445
  411TIP3    H222649   6.470   5.269  15.054  0.6286 -0.5673 -0.7893
  412TIP3   OH222650   5.104   5.407  14.069 -0.1813  0.3830  0.3362
  412TIP3    H122651   5.128   5.322  14.106  1.6609  1.4466  1.7721
  412TIP3    H222652   5.169   5.423  14.001 -1.3622  0.0839 -0.9146
  413TIP3   OH222653   1.679   0.951   2.311  0.6079 -0.0882 -0.3626
  413TIP3    H122654   1.692   1.034   2.264  2.3180 -0.0967  0.0008
  413TIP3    H222655   1.603   0.911   2.269  0.3048  1.2499 -1.1511
  414TIP3   OH222656   0.214   5.056   3.509  0.0046 -0.2647  0.3110
  414TIP3    H122657   0.234   5.108   3.587  0.7369  1.3285 -0.8809
  414TIP3    H222658   0.289   4.997   3.500  1.1912  1.2656 -0.5187
  415TIP3   OH222659   2.878   5.363   3.633 -0.0386  0.2273 -0.5647
  415TIP3    H122660   2.971   5.345   3.624  0.1468  0.9013 -0.0846
  415TIP3    H222661   2.865   5.447   3.590 -0.8128 -0.7652 -2.3928
  416TIP3   OH222662   6.360   2.289   6.225  0.8635  0.0977  0.7517
  416TIP3    H122663   6.274   2.299   6.185  1.9492  1.0085 -1.5697
  416TIP3    H222664   6.376   2.372   6.270  0.5892 -0.0199  1.0659
  417TIP3   OH222665   2.926   0.240   0.304 -0.5851 -0.2544  0.0246
  417TIP3    H122666   2.991   0.195   0.358  0.5447 -0.5108 -1.4797
  417TIP3    H222667   2.922   0.188   0.223 -0.4979  1.3809 -1.0854
  418TIP3   OH222668   4.468   3.643  11.229  0.2997 -0.0214  0.6172
  418TIP3    H122669   4.553   3.686  11.226  0.4889 -0.3013  1.6333
  418TIP3    H222670   4.410   3.709  11.268  0.0133  0.2010 -0.1526
  419TIP3   OH222671   5.744   0.282  11.651 -0.1357  0.3263 -0.4373
  419TIP3    H122672   5.767   0.190  11.661 -0.4933  0.3442  0.7033
  419TIP3    H222673   5.677   0.283  11.583 -1.5538 -0.5060  0.8935
  420TIP3   OH222674   2.138   3.705  14.050  0.3225 -0.1680  0.6771
  420TIP3    H122675   2.146   3.635  13.985 -1.9877  0.1042 -0.0172
  420TIP3    H222676   2.168   3.783  14.005  1.1791 -0.4004  0.8338
  421TIP3   OH222677   4.885   3.816  14.386  0.2704 -0.0731 -0.1133
  421TIP3    H122678   4.858   3.809  14.295  0.7519 -1.6495 -0.1584
  421TIP3    H222679   4.975   3.785  14.388  0.5743  0.7985  0.7675
  422TIP3   OH222680   5.827   2.226  12.813 -0.2185 -0.4200  0.1508
  422TIP3    H122681   5.833   2.135  12.785 -0.2556 -0.8853  1.5877
  422TIP3    H222682   5.917   2.252  12.831 -0.1049  0.1216 -1.0407
  423TIP3   OH222683   0.438   3.369   2.783  0.0908 -0.0483 -0.2995
  423TIP3    H122684   0.483   3.379   2.866 -0.1387 -1.0694 -0.0396
  423TIP3    H222685   0.506   3.342   2.721  0.3739  1.2951 -0.5915
  424TIP3   OH222686   0.499   5.706  16.694 -0.5528  0.4829 -0.2512
  424TIP3    H122687   0.578   5.759  16.701  0.0585 -0.5946  1.4313
  424TIP3    H222688   0.442   5.738  16.763 -0.7842 -0.0616 -0.1850
  425TIP3   OH222689   3.577   3.090  12.808  0.3330 -0.1261 -0.5620
  425TIP3    H122690   3.596   3.135  12.725  2.3298 -0.5711 -0.4094
  425TIP3    H222691   3.656   3.103  12.860 -0.2323 -1.2898  0.6321
  426TIP3   OH222692   5.017   1.802   0.058 -0.7782  0.1270 -0.6702
  426TIP3    H122693   4.995   1.719   0.100  1.6617 -0.5626 -0.6151
  426TIP3    H222694   5.062   1.852   0.127 -1.1010  1.0058 -1.0772
  427TIP3   OH222695   4.189   3.111  16.217  0.6138 -0.7112  0.3138
  427TIP3    H122696   4.121   3.090  16.280  0.0007 -0.1216 -0.1380
  427TIP3    H222697   4.263   3.141  16.271  0.6547 -1.6899  0.8196
  428TIP3   OH222698   4.492   0.982  12.906  0.0820  0.0148 -0.3757
  428TIP3    H122699   4.584   0.956  12.896  0.3268  0.9102 -0.5040
  428TIP3    H222700   4.488   1.070  12.870 -0.6928  0.2526  0.2697
  429TIP3   OH222701   2.920   1.255  13.303 -0.3304  0.5061  0.2201
  429TIP3    H122702   2.898   1.326  13.243  1.3862 -0.4406 -1.6779
  429TIP3    H222703   2.924   1.177  13.247 -0.4810 -0.7636  1.9226
  430TIP3   OH222704   1.130   3.255   1.143 -0.0092 -0.0530 -0.2391
  430TIP3    H122705   1.169   3.201   1.211 -0.8897 -1.3686 -0.7300
  430TIP3    H222706   1.050   3.290   1.183  0.3155  0.4999 -0.0739
  431TIP3   OH222707   1.999   6.476   0.723 -0.2084  0.0207 -0.1701
  431TIP3    H122708   1.926   6.415   0.734  0.9136 -1.3184  0.0203
  431TIP3    H222709   2.009   6.517   0.809 -0.7537  0.2684 -0.2138
  432TIP3   OH222710   5.849   1.246   0.037 -0.0589  0.5489  0.5343
  432TIP3    H122711   5.857   1.243  -0.058  0.3048  2.0643  0.4942
  432TIP3    H222712   5.936   1.225   0.070 -0.0082  0.7207  0.5119
  433TIP3   OH222713   1.978   6.569  12.686  0.1699 -0.2381  0.2692
  433TIP3    H122714   2.019   6.542  12.769  1.0105  0.5611  0.1378
  433TIP3    H222715   1.919   6.641  12.711  0.3085 -0.1002  0.2040
  434TIP3   OH222716   1.892   1.526  15.938  0.1511  0.6183 -0.3766
  434TIP3    H122717   1.895   1.484  16.024  1.8240 -0.9447 -1.1334
  434TIP3    H222718   1.983   1.540  15.915 -0.3196  2.9056 -1.0547
  435TIP3   OH222719   6.571   3.152  13.154 -0.2049 -0.0691  0.4186
  435TIP3    H122720   6.640   3.097  13.190  2.2336  1.1824 -1.9821
  435TIP3    H222721   6.582   3.236  13.197  1.1109  0.6950 -1.2955
  436TIP3   OH222722   3.224   3.319   1.097 -0.2752 -0.2724  0.2541
  436TIP3    H122723   3.276   3.394   1.126  0.4815 -0.9493  0.6897
  436TIP3    H222724   3.275   3.280   1.026 -0.1998 -0.9100  0.6476
  437TIP3   OH222725   1.607   2.242  12.855  0.3132 -0.4435 -0.2232
  437TIP3    H122726   1.608   2.323  12.906 -0.2511 -0.8018  0.3803
  437TIP3    H222727   1.698   2.227  12.832  0.6748 -0.5546  1.1647
  438TIP3   OH222728   4.861   1.075   5.793 -0.0749 -0.1730  0.5142
  438TIP3    H122729   4.886   1.167   5.800 -2.7286  0.5314  2.6856
  438TIP3    H222730   4.927   1.028   5.845  0.2367  0.7602  0.9905
  439TIP3   OH222731   3.503   3.541   5.407  0.4555  0.0650 -0.4357
  439TIP3    H122732   3.554   3.609   5.363  0.2900  0.5628  0.1455
  439TIP3    H222733   3.429   3.587   5.447  0.4937 -0.4080  0.1951
  440TIP3   OH222734   2.555   4.059   1.219  0.1691 -0.4720  0.9686
  440TIP3    H122735   2.528   3.998   1.288  2.2733 -2.2253  0.3439
  440TIP3    H222736   2.630   4.017   1.177  0.0459  1.3485 -1.2813
  441TIP3   OH222737   1.906   2.590  16.535 -0.1052  0.0484 -0.4658
  441TIP3    H122738   1.957   2.512  16.514  0.4384 -0.1730  1.4947
  441TIP3    H222739   1.960   2.663  16.506  0.0977 -0.2549 -0.8606
  442TIP3   OH222740   1.276   5.130   1.239  0.3344  0.5865  0.0139
  442TIP3    H122741   1.291   5.223   1.220 -1.0969  0.5179 -1.7535
  442TIP3    H222742   1.272   5.089   1.153 -0.0087 -0.9586  0.7407
  443TIP3   OH222743   3.286   5.951   3.306  0.1482 -0.2806 -0.0749
  443TIP3    H122744   3.350   5.879   3.302  2.6990  1.8644 -0.6511
  443TIP3    H222745   3.204   5.911   3.277  1.3263 -3.0390  0.0476
  444TIP3   OH222746   5.458   5.676  15.844 -0.1458 -0.3493  0.5954
  444TIP3    H122747   5.479   5.766  15.818  1.4012 -0.4194  1.4240
  444TIP3    H222748   5.474   5.675  15.939 -2.6789 -0.8542  1.0948
  445TIP3   OH222749   0.236   0.171   4.126  0.3980 -0.3159  0.7400
  445TIP3    H122750   0.324   0.174   4.088 -0.5646  0.6806 -1.5989
  445TIP3    H222751   0.190   0.104   4.075 -0.2258 -0.8301  1.9366
  446TIP3   OH222752   2.307   6.791  14.436  1.0692  0.1367  0.4139
  446TIP3    H122753   2.213   6.785  14.455  1.3743 -0.6324  1.8762
  446TIP3    H222754   2.316   6.754  14.349  0.0199  0.1184  0.3011
  447TIP3   OH222755   0.913   2.583  13.065  0.0773 -0.3349  0.1728
  447TIP3    H122756   0.943   2.494  13.048 -0.8226 -0.4576 -0.9127
  447TIP3    H222757   0.868   2.577  13.149  1.2940 -0.5641  0.8338
  448TIP3   OH222758   4.398   1.151  13.402 -0.1480 -0.5700 -0.5824
  448TIP3    H122759   4.379   1.242  13.426 -1.0889 -0.2186 -2.4500
  448TIP3    H222760   4.493   1.145  13.405  0.1542  1.3342 -3.0530
  449TIP3   OH222761   4.036   3.767   2.449 -0.3289 -0.0099 -0.5146
  449TIP3    H122762   4.057   3.787   2.358 -0.8509 -2.1015 -1.1373
  449TIP3    H222763   4.108   3.711   2.479 -0.9492 -0.6120 -0.1336
  450TIP3   OH222764   2.950   1.898  13.974 -0.1676  0.0297 -0.4338
  450TIP3    H122765   3.015   1.836  13.941 -1.2918 -0.4667 -1.7641
  450TIP3    H222766   2.938   1.961  13.903 -1.8899 -0.4720 -0.6165
  451TIP3   OH222767   6.382   2.606   2.358  0.3388  0.3680 -0.0980
  451TIP3    H122768   6.428   2.676   2.405 -2.0254  0.4766  2.2322
  451TIP3    H222769   6.356   2.544   2.426 -0.8638 -0.8941 -1.6359
  452TIP3   OH222770   4.759   4.387  16.405  0.1387  0.0411 -0.3778
  452TIP3    H122771   4.714   4.458  16.452  1.7261  1.5913 -1.0996
  452TIP3    H222772   4.833   4.430  16.362  0.2148 -1.7821 -2.2000
  453TIP3   OH222773   0.020   4.377  15.881 -0.3953  0.3976 -0.1201
  453TIP3    H122774  -0.067   4.338  15.885 -0.8594  1.4078 -0.1463
  453TIP3    H222775   0.044   4.371  15.788  0.1971 -1.1812  0.0968
  454TIP3   OH222776   5.908   3.695  15.002  0.2623 -0.1364  0.0522
  454TIP3    H122777   5.932   3.783  15.030  0.2807 -0.1814  0.1800
  454TIP3    H222778   5.820   3.681  15.038 -0.0265  0.0886 -0.5505
  455TIP3   OH222779   0.348   4.276  11.089  0.0439  0.1819  0.1885
  455TIP3    H122780   0.308   4.227  11.017 -1.1155 -0.8887  1.5163
  455TIP3    H222781   0.319   4.366  11.076 -0.8376 -0.1498 -0.2121
  456TIP3   OH222782   3.221   6.596  15.201  0.5551  0.0747  0.0483
  456TIP3    H122783   3.242   6.504  15.188  0.6273  0.1936 -0.7321
  456TIP3    H222784   3.129   6.603  15.173  0.3440  0.1179  0.7276
  457TIP3   OH222785   1.840   4.931   5.139  0.4909 -0.0142  0.7943
  457TIP3    H122786   1.865   4.966   5.054 -1.0697 -0.9082 -0.0944
  457TIP3    H222787   1.750   4.900   5.126  0.6874 -1.4035  2.3882
  458TIP3   OH222788   4.370   5.987  15.809  0.0804  0.2780 -0.1450
  458TIP3    H122789   4.340   6.029  15.729 -0.4098  0.5573  0.1792
  458TIP3    H222790   4.290   5.959  15.853  0.3193  0.5039  0.4442
  459TIP3   OH222791   1.315   2.748   0.874 -0.1416  0.1058  0.1868
  459TIP3    H122792   1.272   2.785   0.797  1.7786  0.4044 -0.8181
  459TIP3    H222793   1.332   2.657   0.851 -0.0264  0.0597  0.4572
  460TIP3   OH222794   2.892   5.585  13.108 -0.1902  0.2770 -0.4971
  460TIP3    H122795   2.867   5.665  13.155 -0.6409  0.6219 -1.2975
  460TIP3    H222796   2.838   5.516  13.148  0.6978  0.2288  0.6633
  461TIP3   OH222797   1.614   1.598  11.585 -0.0977 -0.3834  0.7005
  461TIP3    H122798   1.697   1.630  11.550 -0.8476  0.5702 -0.2594
  461TIP3    H222799   1.572   1.675  11.624 -1.7800 -0.1696 -1.3416
  462TIP3   OH222800   3.992   5.980   4.477 -0.6240 -0.1440 -0.2737
  462TIP3    H122801   4.062   5.983   4.411 -1.0563  0.9997 -0.6992
  462TIP3    H222802   3.975   5.886   4.489 -0.6464 -0.3757 -1.8981
  463TIP3   OH222803   0.087   0.192  13.119  0.3893 -0.6197  0.3486
  463TIP3    H122804   0.129   0.166  13.038 -0.5954 -1.5556  0.1086
  463TIP3    H222805   0.159   0.213  13.178  1.2552 -2.9378  0.2272
  464TIP3   OH222806   1.067   3.980  17.102  0.0019  0.1903 -0.3735
  464TIP3    H122807   1.129   3.925  17.149 -1.0293  0.3130  1.2008
  464TIP3    H222808   1.097   4.069  17.118  0.2708  0.1916 -0.8715
  465TIP3   OH222809   4.869   0.024  16.956  0.3540 -0.4305  0.1921
  465TIP3    H122810   4.878   0.117  16.936  1.5418 -0.7297 -0.7213
  465TIP3    H222811   4.819  -0.012  16.883  0.5564 -0.6531  0.1639
  466TIP3   OH222812   4.584   2.033   6.050  0.1127 -0.6710  0.0404
  466TIP3    H122813   4.535   1.970   5.997 -1.1475  0.0465  0.2969
  466TIP3    H222814   4.643   1.979   6.103  0.0872 -1.5183 -0.7736
  467TIP3   OH222815   5.642   1.400   6.506 -0.1409 -0.0681 -0.2907
  467TIP3    H122816   5.618   1.314   6.473  0.5084 -0.3675  0.0164
  467TIP3    H222817   5.730   1.416   6.472  0.5102 -0.3474  1.2014
  468TIP3   OH222818   4.043   0.803  16.065  0.1917  0.3032 -0.1732
  468TIP3    H122819   4.115   0.866  16.068  0.9117 -0.3942 -1.4827
  468TIP3    H222820   4.080   0.728  16.017 -1.4163 -0.0642 -0.8931
  469TIP3   OH222821   6.592   1.509  13.028  0.0188 -0.3838  0.4993
  469TIP3    H122822   6.561   1.462  12.951  0.6638  0.3165 -0.2000
  469TIP3    H222823   6.598   1.442  13.096 -0.5536 -1.0110 -0.0494
  470TIP3   OH222824   5.112   0.165  14.604  0.0262  0.1840  0.1166
  470TIP3    H122825   5.177   0.122  14.549 -1.0367 -1.1779 -0.1308
  470TIP3    H222826   5.120   0.122  14.689 -0.5405 -0.0030  0.0797
  471TIP3   OH222827   5.726   5.252  16.199  0.0412  0.4462 -0.0889
  471TIP3    H122828   5.798   5.311  16.175  0.7276 -0.2126  0.2768
  471TIP3    H222829   5.650   5.309  16.210  0.2606  1.0513 -1.4552
  472TIP3   OH222830   0.043   6.007   6.427 -0.1400 -0.6916  0.2001
  472TIP3    H122831   0.121   6.031   6.477  0.6231  1.1349 -1.6899
  472TIP3    H222832   0.034   5.913   6.440  0.8610 -0.5494  2.4979
  473TIP3   OH222833   4.149   5.842  14.429  0.0495  0.8180  0.4090
  473TIP3    H122834   4.110   5.918  14.386 -0.3797  0.8687  0.8738
  473TIP3    H222835   4.090   5.769  14.407 -0.0430  0.8003  0.7090
  474TIP3   OH222836   5.829   3.076   1.153  0.0747 -0.4382  0.1281
  474TIP3    H122837   5.885   3.120   1.090 -0.6173  0.2527 -0.0259
  474TIP3    H222838   5.772   3.020   1.100  1.9956 -2.8266  0.4162
  475TIP3   OH222839   2.549   4.468  15.940  0.5378 -0.5416 -0.2792
  475TIP3    H122840   2.561   4.383  15.896  1.2982 -0.4541 -0.2455
  475TIP3    H222841   2.570   4.532  15.872  0.0466 -0.3753 -0.2780
  476TIP3   OH222842   3.527   0.484   1.361  0.3816  0.3147  0.6859
  476TIP3    H122843   3.535   0.548   1.290  0.4149  0.1097  0.5046
  476TIP3    H222844   3.599   0.423   1.346 -2.4173 -2.7105 -2.1265
  477TIP3   OH222845   1.505   0.033   1.765  0.4607  0.2761  0.1297
  477TIP3    H122846   1.480   0.107   1.710 -1.1841 -1.3417 -1.4268
  477TIP3    H222847   1.476   0.058   1.853 -0.5763  1.2660 -0.4618
  478TIP3   OH222848   6.100   2.456  16.485  0.3236 -0.4394  0.0264
  478TIP3    H122849   6.047   2.516  16.539  1.6796  1.2548 -0.4491
  478TIP3    H222850   6.105   2.498  16.400 -0.2929 -2.2240 -0.9553
  479TIP3   OH222851   1.824   6.025   3.736  0.3477  0.3003 -0.0049
  479TIP3    H122852   1.739   5.994   3.768 -0.0872  0.0150 -1.3568
  479TIP3    H222853   1.881   5.948   3.743  0.4580  0.4467  0.7539
  480TIP3   OH222854   0.662   1.606   5.811  0.9638 -0.4881 -0.2959
  480TIP3    H122855   0.595   1.588   5.877 -0.0268  0.0297 -1.1389
  480TIP3    H222856   0.670   1.525   5.762 -0.2393 -0.0800 -1.2192
  481TIP3   OH222857   2.540   3.294  14.572 -0.0560 -0.3569 -0.5891
  481TIP3    H122858   2.526   3.296  14.667  3.7893  0.0332  0.1488
  481TIP3    H222859   2.591   3.215  14.557  0.9190  0.4800 -2.0058
  482TIP3   OH222860   3.586   5.278   4.361  0.1080 -0.4712  0.4124
  482TIP3    H122861   3.626   5.267   4.275  0.4032  1.1114  0.3280
  482TIP3    H222862   3.635   5.217   4.417 -0.1949 -1.6399 -0.5381
  483TIP3   OH222863   2.533   3.775  16.163 -0.2557  0.0009  0.2105
  483TIP3    H122864   2.443   3.777  16.195 -0.6132  2.6481 -0.7500
  483TIP3    H222865   2.587   3.775  16.242 -1.1157  0.8231  0.8132
  484TIP3   OH222866   1.542   3.596  11.111 -0.1740  0.2545  0.5374
  484TIP3    H122867   1.534   3.631  11.022  0.3928 -0.9255  0.0004
  484TIP3    H222868   1.461   3.623  11.155 -1.4175 -0.8558 -0.9531
  485TIP3   OH222869   5.392   0.294  12.010  0.2104  0.4485 -0.0014
  485TIP3    H122870   5.477   0.274  12.049 -0.0884 -0.1798  0.3483
  485TIP3    H222871   5.405   0.377  11.964  1.3411 -0.2531 -1.0028
  486TIP3   OH222872   4.098   1.196   0.080 -0.3279  0.1499  0.0194
  486TIP3    H122873   4.015   1.148   0.076  0.2861 -0.8939 -0.9952
  486TIP3    H222874   4.097   1.252   0.002 -0.0194  0.0341 -0.0683
  487TIP3   OH222875   1.634   0.032   0.652  0.2657  0.4924  0.5999
  487TIP3    H122876   1.640   0.036   0.747 -0.2874  1.6132  0.5951
  487TIP3    H222877   1.722   0.005   0.624  0.0877 -1.1070  1.4742
  488TIP3   OH222878   6.658   0.920   4.491  0.5491  0.0346 -0.2474
  488TIP3    H122879   6.576   0.966   4.507  0.7348 -0.5115  2.8530
  488TIP3    H222880   6.643   0.872   4.409 -1.1903  2.0576 -1.2188
  489TIP3   OH222881   4.627   5.069  14.851 -0.0379 -0.1168  0.3810
  489TIP3    H122882   4.710   5.106  14.882 -0.5180  1.1613  0.2063
  489TIP3    H222883   4.634   5.071  14.756 -0.5084  0.5622  0.3603
  490TIP3   OH222884   4.893   3.989   4.722 -0.4793  0.0148 -0.3696
  490TIP3    H122885   4.958   4.055   4.700  1.0965 -0.9290  1.1286
  490TIP3    H222886   4.873   3.946   4.639 -0.6531  1.5756 -1.1670
  491TIP3   OH222887   2.810   4.827  12.314 -0.1162  0.5253  0.4294
  491TIP3    H122888   2.770   4.876  12.385 -2.0019 -0.9793  0.4843
  491TIP3    H222889   2.736   4.790  12.265  1.1637 -2.0238  0.2611
  492TIP3   OH222890   2.300   5.893  12.228 -0.1200 -0.2351  0.3844
  492TIP3    H122891   2.380   5.846  12.204  0.3456  1.4425 -1.5467
  492TIP3    H222892   2.329   5.981  12.250 -1.2196 -0.2190  1.9480
  493TIP3   OH222893   0.144   3.114   3.941 -0.1777 -0.4946  0.0394
  493TIP3    H122894   0.215   3.176   3.920  0.9951 -1.4983  0.8598
  493TIP3    H222895   0.110   3.088   3.856 -1.5391  2.1327 -0.3375
  494TIP3   OH222896   2.917   2.071  13.731  0.4620 -0.7625  0.1183
  494TIP3    H122897   2.914   2.052  13.637 -0.6971 -0.3636  0.0549
  494TIP3    H222898   2.827   2.059  13.761  0.6239  0.0514  0.9935
  495TIP3   OH222899   6.597   4.357   2.368 -0.0473 -0.2748 -0.1680
  495TIP3    H122900   6.693   4.363   2.377  0.1157 -1.3497 -0.9549
  495TIP3    H222901   6.581   4.375   2.275 -0.7166  0.8073  0.1337
  496TIP3   OH222902   5.255   4.238   3.705 -0.4324  0.5204  0.1153
  496TIP3    H122903   5.272   4.319   3.656  1.8079 -0.9249 -1.7196
  496TIP3    H222904   5.197   4.188   3.648 -0.1690  0.0089  0.2964
  497TIP3   OH222905   2.693   2.550   5.133 -0.4276  0.0958 -0.3257
  497TIP3    H122906   2.659   2.554   5.223 -0.5560 -2.2123 -0.2206
  497TIP3    H222907   2.725   2.639   5.116 -0.4863  0.6219  1.9582
  498TIP3   OH222908   2.013   2.116   1.927  0.3853 -0.1877  0.3792
  498TIP3    H122909   2.089   2.116   1.986 -0.9265  3.0129  2.3266
  498TIP3    H222910   2.050   2.130   1.840  2.1602 -1.9703  0.7534
  499TIP3   OH222911   1.233   5.230  13.345 -0.2936 -0.4173 -0.4552
  499TIP3    H122912   1.252   5.293  13.276 -1.1370  1.8975  1.2944
  499TIP3    H222913   1.162   5.176  13.309 -1.0281  1.0325 -1.2707
  500TIP3   OH222914   0.494   4.406   5.209  0.6056 -0.5885  0.2839
  500TIP3    H122915   0.413   4.454   5.227  1.7271  1.5437 -0.0322
  500TIP3    H222916   0.535   4.395   5.295 -0.2832 -2.2493  0.5268
  501TIP3   OH222917   5.256   4.815   1.509 -0.2701 -0.5825  0.2617
  501TIP3    H122918   5.180   4.857   1.468  0.5999  2.0775  1.1607
  501TIP3    H222919   5.227   4.797   1.599  0.4624  1.5445  0.9709
  502TIP3   OH222920   4.948   3.722   3.492  0.5524  0.1010 -0.1638
  502TIP3    H122921   4.923   3.629   3.494 -0.4486  0.3325 -1.0966
  502TIP3    H222922   4.970   3.739   3.401  1.3017  0.6471  0.1136
  503TIP3   OH222923   3.738   3.062  13.106  0.5299  0.0701  0.0964
  503TIP3    H122924   3.801   3.027  13.044  0.6422 -0.4247  0.4835
  503TIP3    H222925   3.678   2.990  13.124 -1.0842  0.9736 -1.4271
  504TIP3   OH222926   4.634   2.160   0.991  0.4516  0.5151 -0.2024
  504TIP3    H122927   4.639   2.154   0.896 -0.5354  0.0720 -0.2371
  504TIP3    H222928   4.698   2.227   1.014  0.8600  0.4687 -1.1554
  505TIP3   OH222929   6.104   2.798  12.198  0.1399 -0.3364 -0.6710
  505TIP3    H122930   6.130   2.708  12.217 -1.2820 -1.0586 -1.8936
  505TIP3    H222931   6.154   2.822  12.120  1.9039  0.6649  0.6752
  506TIP3   OH222932   6.558   5.234   6.389 -0.3939  1.0050 -0.1066
  506TIP3    H122933   6.509   5.300   6.341  0.0973  0.6762 -1.0821
  506TIP3    H222934   6.526   5.151   6.354  1.6349  0.7964 -1.5766
  507TIP3   OH222935   0.427   1.602  14.591 -0.4756  0.0048 -0.2296
  507TIP3    H122936   0.342   1.645  14.581 -0.5198  1.0180  3.3129
  507TIP3    H222937   0.413   1.534  14.656  0.9942 -1.3313 -1.2280
  508TIP3   OH222938   4.969   1.857   1.658 -0.1158 -0.2827  0.0510
  508TIP3    H122939   5.043   1.818   1.705 -3.7958 -2.7271  4.7206
  508TIP3    H222940   4.962   1.945   1.695  0.8254  0.2608 -1.0108
  509TIP3   OH222941   1.885   4.379   1.394  0.1430 -0.0675 -0.1419
  509TIP3    H122942   1.900   4.407   1.485 -1.4894 -0.7627  0.3734
  509TIP3    H222943   1.962   4.411   1.347  0.9448  0.4770  1.4437
  510TIP3   OH222944   5.767   5.714   1.634 -0.2683  0.0625  0.0696
  510TIP3    H122945   5.817   5.770   1.693  0.4768 -0.8512  0.3074
  510TIP3    H222946   5.677   5.720   1.667  0.2023 -0.7748  1.5719
  511TIP3   OH222947   4.115   1.762  12.186 -0.0336 -0.0362  0.8766
  511TIP3    H122948   4.076   1.814  12.115  0.1382 -1.2925 -0.1815
  511TIP3    H222949   4.169   1.825  12.235 -0.3939  0.9267  0.0750
  512TIP3   OH222950   6.364   0.607  14.058 -0.4882  0.3718  0.5481
  512TIP3    H122951   6.435   0.552  14.025  0.0798  2.2466 -1.6491
  512TIP3    H222952   6.408   0.684  14.094 -1.3313  0.7600  0.7779
  513TIP3   OH222953   5.806   5.191  10.809 -0.5697 -0.1976  0.8002
  513TIP3    H122954   5.889   5.148  10.833  1.8766  3.7041  0.1332
  513TIP3    H222955   5.801   5.182  10.714 -1.0564 -0.5950  0.8585
  514TIP3   OH222956   6.207   4.099   4.981  0.4800  0.0035  0.0890
  514TIP3    H122957   6.264   4.152   5.036 -0.6859 -0.1158  1.4749
  514TIP3    H222958   6.262   4.028   4.950  1.8173  1.4403 -0.9925
  515TIP3   OH222959   3.527   5.488   5.669  0.0387  0.1940  0.0908
  515TIP3    H122960   3.480   5.497   5.752  1.6334 -0.2751  1.1028
  515TIP3    H222961   3.487   5.412   5.627  0.1109 -0.4123  1.0899
  516TIP3   OH222962   6.632   4.951  17.017  0.0021  0.1542  0.2414
  516TIP3    H122963   6.601   4.878  17.071  1.9312  0.3765  1.7504
  516TIP3    H222964   6.711   4.918  16.975  0.0432  0.8917 -0.2895
  517TIP3   OH222965   1.793   6.241  15.441  0.0497 -0.1439 -0.6193
  517TIP3    H122966   1.877   6.225  15.483 -0.0965 -0.2201 -0.3566
  517TIP3    H222967   1.728   6.214  15.505 -0.1844 -2.3105 -1.6867
  518TIP3   OH222968   5.192   3.618  11.142  0.1919  0.5686 -0.2521
  518TIP3    H122969   5.279   3.605  11.105 -0.2738 -1.3256 -0.8023
  518TIP3    H222970   5.135   3.631  11.066 -0.2581  0.0447 -0.0141
  519TIP3   OH222971   4.106   0.519   2.898  0.1682 -0.3134 -0.2017
  519TIP3    H122972   4.026   0.571   2.887  0.1031 -0.1187  1.0305
  519TIP3    H222973   4.127   0.527   2.991  0.9704 -1.3293 -0.2778
  520TIP3   OH222974   6.022   0.099   0.774  0.2163 -0.1441 -0.1308
  520TIP3    H122975   6.114   0.120   0.759 -0.0182  1.4319  0.4502
  520TIP3    H222976   5.976   0.140   0.701 -0.1006 -0.3247 -0.0337
  521TIP3   OH222977   0.444   6.760  14.996 -0.1684 -0.1028  0.7358
  521TIP3    H122978   0.538   6.773  15.011  0.3889 -0.5063 -1.8898
  521TIP3    H222979   0.418   6.695  15.061  1.3677 -0.0504  1.4559
  522TIP3   OH222980   6.203   6.178  16.398  0.5231 -0.0162 -0.1884
  522TIP3    H122981   6.196   6.266  16.362 -1.3912  0.4579  1.1291
  522TIP3    H222982   6.260   6.188  16.474 -0.1564  0.2346  0.2992
  523TIP3   OH222983   1.042   6.245   2.642  0.0482  0.0075 -0.1164
  523TIP3    H122984   1.013   6.207   2.725  1.9587  0.2048  0.6950
  523TIP3    H222985   1.043   6.172   2.580 -0.5686 -0.3203  0.2622
  524TIP3   OH222986   4.387   4.124  16.183  0.2347  0.7514  0.0536
  524TIP3    H122987   4.325   4.153  16.250  0.6207 -0.0347  0.7706
  524TIP3    H222988   4.473   4.150  16.216  0.4750 -0.0891  0.1292
  525TIP3   OH222989   1.442   3.913  11.044  0.8275 -0.2517  0.0788
  525TIP3    H122990   1.418   3.961  10.965  0.7257 -0.1553  0.1677
  525TIP3    H222991   1.537   3.901  11.037  0.7381 -0.7570 -0.3412
  526TIP3   OH222992   6.338   6.562   1.729 -0.4881  0.0482  0.3360
  526TIP3    H122993   6.383   6.503   1.668 -1.8781  0.4678 -1.1379
  526TIP3    H222994   6.332   6.645   1.682 -0.6469  0.6980  1.4789
  527TIP3   OH222995   6.102   0.251   5.306 -0.0759 -0.1253 -0.1382
  527TIP3    H122996   6.181   0.298   5.283  0.7565 -0.1721  2.3884
  527TIP3    H222997   6.031   0.313   5.290  0.8635  1.5006  1.6142
  528TIP3   OH222998   6.032   4.363  10.860 -0.4244 -0.3830 -0.2239
  528TIP3    H122999   6.086   4.388  10.785  3.2281 -2.7464  1.3302
  528TIP3    H223000   6.012   4.446  10.904  1.3286  0.6837 -1.3138
  529TIP3   OH223001   2.909   5.338  17.126  0.1199  0.5591 -0.3074
  529TIP3    H123002   2.859   5.314  17.048 -0.4891  0.1579  0.1943
  529TIP3    H223003   2.927   5.431  17.116 -1.3911  0.8876 -0.1429
  530TIP3   OH223004   0.532   6.653   5.751  0.5533 -0.0918  0.2566
  530TIP3    H123005   0.463   6.587   5.745 -1.5454  1.9878  0.0629
  530TIP3    H223006   0.587   6.623   5.823  0.0474 -2.3376 -0.2088
  531TIP3   OH223007   5.892   6.388   0.326  0.2426 -0.2149 -0.2924
  531TIP3    H123008   5.905   6.297   0.300 -0.4556 -0.1742 -0.8008
  531TIP3    H223009   5.808   6.412   0.287  0.5341  0.7204 -0.3522
  532TIP3   OH223010   1.285   1.390   3.626  0.0473 -0.6121  0.2028
  532TIP3    H123011   1.334   1.393   3.708 -0.3285  0.4296  0.3996
  532TIP3    H223012   1.349   1.363   3.561  0.5952 -0.4435  0.6647
  533TIP3   OH223013   4.434   2.837  11.746 -0.6141 -0.0474  0.5101
  533TIP3    H123014   4.423   2.910  11.684 -1.7965  0.2096  0.9861
  533TIP3    H223015   4.466   2.879  11.825  0.9764 -0.3879  0.0686
  534TIP3   OH223016   4.394   4.644  13.469  0.0090  0.4033  0.3573
  534TIP3    H123017   4.362   4.631  13.558  0.4044 -0.3016  0.4094
  534TIP3    H223018   4.488   4.653  13.478  0.1352 -0.3517 -0.0342
  535TIP3   OH223019   2.659   6.749   0.808  0.0132 -0.0299  0.0659
  535TIP3    H123020   2.664   6.682   0.740 -0.9968  0.8671 -0.9196
  535TIP3    H223021   2.570   6.782   0.803  0.8063  2.2020 -0.2924
  536TIP3   OH223022   6.166   0.257   4.246  0.4277  0.2273  0.0689
  536TIP3    H123023   6.142   0.281   4.336 -0.2878 -1.7738  0.4583
  536TIP3    H223024   6.131   0.169   4.234  1.1605  0.1509 -1.9403
  537TIP3   OH223025   1.395   3.993   0.470 -1.1665  0.1060 -0.0255
  537TIP3    H123026   1.472   4.011   0.524 -2.0445  0.2370  1.2086
  537TIP3    H223027   1.322   4.033   0.517 -2.2256 -1.3234 -0.3920
  538TIP3   OH223028   4.296   1.989  15.784 -0.3076  0.0433 -0.3418
  538TIP3    H123029   4.294   2.080  15.755 -2.6683 -0.2468 -1.2590
  538TIP3    H223030   4.214   1.951  15.753  0.6878 -2.4806 -0.1643
  539TIP3   OH223031   3.590   3.767  14.694 -0.0487  0.1521 -0.3471
  539TIP3    H123032   3.519   3.823  14.724  0.6228  0.5028  0.6450
  539TIP3    H223033   3.640   3.823  14.634 -0.8076 -0.2207 -1.3587
  540TIP3   OH223034   2.067   0.743   0.609  0.3052 -0.1005  0.4826
  540TIP3    H123035   2.091   0.834   0.596  0.2648 -0.0082  1.0497
  540TIP3    H223036   2.143   0.693   0.579 -0.9586 -0.0571 -3.3114
  541TIP3   OH223037   3.392   1.435  14.243  0.1874 -0.1519  0.2687
  541TIP3    H123038   3.324   1.373  14.215 -1.3984  0.8335  1.7723
  541TIP3    H223039   3.389   1.433  14.338  0.3766  1.8830  0.3724
  542TIP3   OH223040   1.661   4.365  14.328 -0.2388 -1.0456  0.4471
  542TIP3    H123041   1.575   4.385  14.366 -0.7752 -0.9405 -0.7946
  542TIP3    H223042   1.721   4.371  14.402 -1.2071 -0.4909  1.2154
  543TIP3   OH223043   1.054   6.567  15.795 -0.1032  0.0629  0.0309
  543TIP3    H123044   0.968   6.548  15.831  0.1095 -2.4025 -0.6010
  543TIP3    H223045   1.079   6.650  15.835 -0.7339 -1.4423  3.9719
  544TIP3   OH223046   3.711   5.068   4.517 -0.0267 -0.0441 -0.0462
  544TIP3    H123047   3.717   5.043   4.609 -0.3553 -1.5897 -0.4211
  544TIP3    H223048   3.649   5.005   4.479 -0.8264  1.3110 -1.0828
  545TIP3   OH223049   6.588   4.008   2.321 -0.4451 -0.0496  0.0869
  545TIP3    H123050   6.612   4.048   2.405  1.7470  0.0684 -0.5364
  545TIP3    H223051   6.581   3.914   2.340 -2.0539  0.1732  0.7937
  546TIP3   OH223052   4.326   2.676   2.156 -0.3841 -0.2067  0.3056
  546TIP3    H123053   4.358   2.596   2.115 -0.5266 -0.0748 -0.0691
  546TIP3    H223054   4.370   2.680   2.241  1.0048  0.2448 -0.4123
  547TIP3   OH223055   6.566   3.851  14.865  0.6485 -0.0302  0.4237
  547TIP3    H123056   6.597   3.804  14.788 -1.3651  1.2032 -1.2476
  547TIP3    H223057   6.486   3.806  14.890  0.1856  0.8260  0.5055
  548TIP3   OH223058   3.378   0.795   6.100 -0.0885 -0.5776  0.0705
  548TIP3    H123059   3.432   0.840   6.165 -1.6162 -0.7715  1.5341
  548TIP3    H223060   3.439   0.775   6.028  1.4642  0.3715  1.0660
  549TIP3   OH223061   0.478   5.671  12.324 -0.4241  0.1423  0.0996
  549TIP3    H123062   0.452   5.633  12.240  2.0711 -1.9674  0.1462
  549TIP3    H223063   0.495   5.763  12.304 -0.8854 -0.0838 -1.4646
  550TIP3   OH223064   3.660   5.880   0.125  0.1425 -0.2992 -0.3249
  550TIP3    H123065   3.650   5.954   0.065 -0.5115 -0.5740 -0.5592
  550TIP3    H223066   3.669   5.804   0.068 -0.7023 -0.5907 -0.0835
  551TIP3   OH223067   4.802   5.271   2.939 -0.1736  0.0908 -0.0796
  551TIP3    H123068   4.729   5.332   2.938 -0.0072  0.4561  2.3206
  551TIP3    H223069   4.807   5.242   3.030  0.5996 -2.5038 -0.8782
  552TIP3   OH223070   2.711   2.376  15.315 -0.2686 -0.4393  0.0474
  552TIP3    H123071   2.701   2.303  15.375  1.0754 -0.2834  0.4895
  552TIP3    H223072   2.647   2.441  15.344 -1.2824 -1.2997 -0.1824
  553TIP3   OH223073   6.324   4.491  14.733  0.1421 -0.1769 -0.1686
  553TIP3    H123074   6.235   4.456  14.728 -0.6550  1.6668  0.4519
  553TIP3    H223075   6.344   4.493  14.826  0.1095  1.0749 -0.1664
  554TIP3   OH223076   1.443   3.305  11.602  0.1945  0.0036 -0.6517
  554TIP3    H123077   1.474   3.238  11.663  0.3641 -0.6226 -1.3960
  554TIP3    H223078   1.506   3.377  11.610 -0.4554  0.4455  0.7606
  555TIP3   OH223079   2.458   2.421   4.327 -0.1437 -0.1961  0.3231
  555TIP3    H123080   2.506   2.378   4.257  0.2147 -1.3609  1.2408
  555TIP3    H223081   2.387   2.468   4.283  0.4536 -0.3624 -0.8532
  556TIP3   OH223082   5.762   1.675   2.054 -0.4234  0.2320  0.2236
  556TIP3    H123083   5.750   1.770   2.061  0.1422  0.2401  1.2768
  556TIP3    H223084   5.740   1.642   2.141  0.0696 -0.5230  0.0690
  557TIP3   OH223085   6.460   2.870   3.142 -0.2106  0.2123  0.2304
  557TIP3    H123086   6.510   2.952   3.149  1.1175 -0.6341  0.8227
  557TIP3    H223087   6.521   2.808   3.102 -1.1581 -0.5533 -0.0617
  558TIP3   OH223088   3.557   0.848  13.288 -0.8337  0.1786  0.4241
  558TIP3    H123089   3.632   0.874  13.342 -0.2548 -0.1603 -0.2109
  558TIP3    H223090   3.567   0.754  13.276 -1.2080  0.1779  0.0984
  559TIP3   OH223091   5.648   6.692   2.481 -0.5468 -0.1165 -0.0642
  559TIP3    H123092   5.562   6.666   2.513  0.1527 -2.2391  0.2626
  559TIP3    H223093   5.708   6.663   2.549  0.4401  1.6572 -0.1125
  560TIP3   OH223094   4.889   2.883   2.743 -0.3696 -0.0393  0.6156
  560TIP3    H123095   4.803   2.858   2.710 -1.1555 -0.3528  2.7395
  560TIP3    H223096   4.896   2.840   2.828  0.5947  2.3758  1.8737
  561TIP3   OH223097   0.518   4.020   1.799 -0.1871 -0.5638 -0.0216
  561TIP3    H123098   0.486   3.970   1.874  0.1064 -0.5031  0.1463
  561TIP3    H223099   0.523   4.110   1.831 -0.2023 -0.5140 -0.1597
  562TIP3   OH223100   1.011   6.296   1.808  0.3645  0.1006 -0.2922
  562TIP3    H123101   0.991   6.215   1.855  0.2348  0.2817 -0.0390
  562TIP3    H223102   1.027   6.361   1.876  2.0998 -0.0877 -0.4532
  563TIP3   OH223103   0.208   5.426  10.734 -0.2233 -0.4147  0.5912
  563TIP3    H123104   0.183   5.518  10.721  2.0184  0.4936  2.1458
  563TIP3    H223105   0.141   5.391  10.792  0.2995  1.0257  2.1255
  564TIP3   OH223106   5.487   2.454  11.795 -0.5380 -0.2692 -0.0549
  564TIP3    H123107   5.574   2.440  11.834  1.1710  1.9309 -2.6716
  564TIP3    H223108   5.483   2.548  11.780 -2.8842 -0.4764 -1.1601
  565TIP3   OH223109   3.314   3.668   6.061 -0.2214 -0.0893 -0.3525
  565TIP3    H123110   3.309   3.759   6.090 -0.7104 -0.2734  0.1586
  565TIP3    H223111   3.369   3.625   6.126 -2.1591 -0.7312  0.9433
  566TIP3   OH223112   1.538   6.592  10.956 -0.0833  0.4592  0.3198
  566TIP3    H123113   1.448   6.623  10.962 -0.1064  0.3824  0.3770
  566TIP3    H223114   1.534   6.518  10.895  0.0587  0.8947 -0.2227
  567TIP3   OH223115   3.858   0.137   4.284  0.3164  0.2723  0.5925
  567TIP3    H123116   3.913   0.062   4.304 -0.3193 -0.0702  1.0704
  567TIP3    H223117   3.810   0.154   4.364 -1.7813 -0.7102 -0.3807
  568TIP3   OH223118   5.596   4.458   5.605  0.6290 -0.3364 -0.2809
  568TIP3    H123119   5.555   4.521   5.664  1.1522 -0.5113  0.2798
  568TIP3    H223120   5.526   4.433   5.545  0.2284  0.2423 -0.0642
  569TIP3   OH223121   3.863   6.286   3.888 -0.9969 -0.1881 -0.1324
  569TIP3    H123122   3.928   6.227   3.851 -2.0769 -1.3049 -0.2935
  569TIP3    H223123   3.902   6.373   3.879  1.7034 -0.9792  2.2354
  570TIP3   OH223124   5.994   1.139   4.441  0.4529  0.5367  0.0741
  570TIP3    H123125   6.013   1.076   4.372 -0.8996  0.7331 -0.5150
  570TIP3    H223126   5.953   1.087   4.511  1.0955  0.4663  0.4067
  571TIP3   OH223127   1.068   4.565   4.643 -0.3687 -0.0032  0.4241
  571TIP3    H123128   1.128   4.600   4.708 -1.3377 -1.3905  2.1656
  571TIP3    H223129   1.106   4.480   4.618  0.2847  0.7427 -1.3150
  572TIP3   OH223130   0.887   0.499   1.911 -0.5179  0.6380  0.1572
  572TIP3    H123131   0.829   0.429   1.882 -0.6682  1.5330 -1.8790
  572TIP3    H223132   0.911   0.475   2.001 -2.3715 -0.8152  0.3274
  573TIP3   OH223133   2.402   3.004  15.518  0.1083 -0.0431 -0.3750
  573TIP3    H123134   2.363   3.056  15.448  0.4581 -0.8596 -1.2015
  573TIP3    H223135   2.473   2.956  15.475  2.2861  1.6630  1.1348
  574TIP3   OH223136   0.997   0.852   3.654 -0.8877  0.2466  0.0862
  574TIP3    H123137   0.981   0.771   3.702 -0.5529  0.1088 -0.0336
  574TIP3    H223138   0.947   0.843   3.573  2.1336 -1.5191 -1.7375
  575TIP3   OH223139   2.387   3.198  11.961  1.0290  0.5280  0.0119
  575TIP3    H123140   2.378   3.256  11.886  1.0949 -0.7307 -1.0166
  575TIP3    H223141   2.317   3.133  11.951  1.7125 -0.3071  0.4201
  576TIP3   OH223142   5.015   4.790  17.086  0.1917 -0.3551 -0.9247
  576TIP3    H123143   4.928   4.829  17.094  0.5119  0.1810  0.1847
  576TIP3    H223144   5.019   4.757  16.996 -1.4508 -1.1040 -0.7558
  577TIP3   OH223145   2.765   1.685  11.307  0.0209 -0.1346  0.8166
  577TIP3    H123146   2.695   1.677  11.372 -1.4427  1.2589 -0.5217
  577TIP3    H223147   2.793   1.777  11.312  1.1696 -0.4574  0.7203
  578TIP3   OH223148   1.076   1.031  13.201  0.4149 -0.6218  0.3556
  578TIP3    H123149   1.092   1.125  13.199 -0.0077 -0.4707  2.1786
  578TIP3    H223150   1.085   1.007  13.294 -1.4672 -2.0117  0.2380
  579TIP3   OH223151   6.108   6.301  14.714  0.5806  0.2927  0.0472
  579TIP3    H123152   6.163   6.228  14.687  2.5291  1.6485  0.1339
  579TIP3    H223153   6.114   6.364  14.642 -1.1080  0.3680 -0.0629
  580TIP3   OH223154   5.491   0.640   0.029  0.1336 -0.3947 -0.0402
  580TIP3    H123155   5.443   0.718   0.056 -1.0366 -0.6195 -1.3656
  580TIP3    H223156   5.581   0.657   0.055 -0.3434  0.7960  0.9371
  581TIP3   OH223157   5.328   5.668   3.835 -0.0826  0.5302  0.3795
  581TIP3    H123158   5.292   5.707   3.915  0.0048  1.7551 -0.1561
  581TIP3    H223159   5.409   5.717   3.820 -0.3962  0.7250 -0.7719
  582TIP3   OH223160   5.006   6.756   5.057  0.4065  0.4248 -0.0157
  582TIP3    H123161   4.920   6.794   5.042  0.3785  0.3892  0.0566
  582TIP3    H223162   4.990   6.662   5.064  0.5379  0.3464 -0.6773
  583TIP3   OH223163   0.075   6.696  12.279  0.7428 -0.1182  0.7632
  583TIP3    H123164   0.060   6.731  12.366  0.4073  0.9754  0.2793
  583TIP3    H223165   0.149   6.746  12.245  0.3869 -0.0052  0.1366
  584TIP3   OH223166   1.342   1.856   6.330 -0.0848 -0.3302  0.4698
  584TIP3    H123167   1.351   1.887   6.240  0.7564 -0.7243  0.4086
  584TIP3    H223168   1.371   1.930   6.383  0.9602 -0.6316  0.3528
  585TIP3   OH223169   3.327   0.629  11.302  0.0313  0.0212 -0.3390
  585TIP3    H123170   3.307   0.702  11.361 -0.6161 -0.6136  0.2519
  585TIP3    H223171   3.306   0.661  11.215 -0.0037  0.6260 -0.1081
  586TIP3   OH223172   0.837   4.096  12.291 -0.2460  0.0213  0.6304
  586TIP3    H123173   0.833   4.140  12.206 -1.4897 -0.5356  0.3834
  586TIP3    H223174   0.746   4.092  12.321  0.2662  1.0619  2.4512
  587TIP3   OH223175   2.124   2.943  16.919 -0.8105  0.2494 -0.3754
  587TIP3    H123176   2.206   2.909  16.884 -1.1202 -1.4003  0.4305
  587TIP3    H223177   2.141   3.037  16.931  1.8485 -0.3905  2.0376
  588TIP3   OH223178   4.221   2.446  12.941  0.2183  0.0316 -0.4323
  588TIP3    H123179   4.262   2.527  12.973  0.9239 -0.4869  0.0046
  588TIP3    H223180   4.277   2.376  12.974  0.2929 -0.5906 -1.8012
  589TIP3   OH223181   3.479   0.427   4.816  0.1445  0.1930  0.1426
  589TIP3    H123182   3.502   0.455   4.727  0.4701  2.1356  0.7799
  589TIP3    H223183   3.415   0.493   4.845 -0.5583 -0.8691  1.0847
  590TIP3   OH223184   5.549   3.381  12.986  0.0769 -0.3588  0.0154
  590TIP3    H123185   5.532   3.397  13.079 -0.3663  0.1531 -0.1493
  590TIP3    H223186   5.559   3.286  12.979  2.4991 -0.2417  0.9703
  591TIP3   OH223187   2.331   6.565   0.152  0.0692  0.4874  0.0556
  591TIP3    H123188   2.348   6.645   0.103 -0.0332  1.1820  1.1205
  591TIP3    H223189   2.392   6.501   0.116  2.7750  2.0263  1.5625
  592TIP3   OH223190   2.058   5.601   4.741 -0.3012 -0.0791 -0.3012
  592TIP3    H123191   2.048   5.626   4.649  1.8177 -0.1437 -0.6022
  592TIP3    H223192   2.143   5.558   4.745 -1.4781 -2.4327  1.2490
  593TIP3   OH223193   4.150   3.801  13.089  0.0379  0.0963  0.5023
  593TIP3    H123194   4.167   3.878  13.144 -1.1948  0.3335  0.6002
  593TIP3    H223195   4.054   3.799  13.082  0.1379 -0.4594 -0.8935
  594TIP3   OH223196   6.250   4.148  14.767  0.0862  0.3274 -0.0885
  594TIP3    H123197   6.198   4.080  14.725 -1.2701  1.8655 -1.0404
  594TIP3    H223198   6.341   4.121  14.755 -0.4245 -1.5377  0.0142
  595TIP3   OH223199   4.892   1.885  10.938  0.4499  0.0542  0.6350
  595TIP3    H123200   4.978   1.924  10.923  0.4589 -0.1429  0.1533
  595TIP3    H223201   4.852   1.941  11.005  0.4765  0.8826 -0.0130
  596TIP3   OH223202   4.963   2.749  11.506 -0.1495 -0.1384 -0.1331
  596TIP3    H123203   4.995   2.783  11.589  1.6264 -2.3505  0.2001
  596TIP3    H223204   4.898   2.683  11.531 -0.8948  0.3991 -0.6049
  597TIP3   OH223205   6.449   4.185  14.322  0.0646  0.3719 -0.8854
  597TIP3    H123206   6.395   4.126  14.375  0.2196  1.1664  0.1990
  597TIP3    H223207   6.387   4.246  14.283  0.1219  1.1911  0.2397
  598TIP3   OH223208   2.708   6.249   2.688 -0.2567  0.2855 -0.5732
  598TIP3    H123209   2.764   6.326   2.674 -0.9634  0.6728 -1.4224
  598TIP3    H223210   2.623   6.286   2.714 -1.2386 -0.0391 -3.0395
  599TIP3   OH223211   1.332   2.428  10.429 -0.6275  0.7313  0.8220
  599TIP3    H123212   1.274   2.360  10.395  1.3146 -1.7395  2.1169
  599TIP3    H223213   1.274   2.501  10.449 -2.6661 -0.0048 -1.7976
  600TIP3   OH223214   0.403   6.309  14.367 -0.1641 -0.1158  0.0674
  600TIP3    H123215   0.486   6.304  14.414 -0.0310 -1.6920 -0.2870
  600TIP3    H223216   0.347   6.364  14.423  0.3848 -0.9236  1.4598
  601TIP3   OH223217   0.562   0.923  13.647 -0.1585 -0.3319 -0.6250
  601TIP3    H123218   0.648   0.943  13.685 -0.2373 -0.3697 -0.4241
  601TIP3    H223219   0.510   0.893  13.722 -0.1129 -1.0558 -0.8780
  602TIP3   OH223220   1.162   3.989  13.554 -0.6901  0.7195 -0.4032
  602TIP3    H123221   1.220   4.007  13.628 -2.8852  0.3897  1.5229
  602TIP3    H223222   1.174   4.064  13.495 -0.6330  2.2711  1.4903
  603TIP3   OH223223   1.852   2.292   2.211 -0.6078  0.0798 -0.3336
  603TIP3    H123224   1.905   2.348   2.268 -0.7650 -1.1610  1.1046
  603TIP3    H223225   1.868   2.326   2.123 -2.8783  4.2135  0.5762
  604TIP3   OH223226   0.543   1.177  15.966  0.2025 -0.2054 -0.4896
  604TIP3    H123227   0.638   1.173  15.965  0.1836 -0.7487 -0.4143
  604TIP3    H223228   0.516   1.159  15.876  0.1535 -0.7019 -0.3799
  605TIP3   OH223229   4.651   0.411   5.040  0.0952  0.1544 -0.5307
  605TIP3    H123230   4.700   0.399   5.121  0.6698 -0.0108 -0.8981
  605TIP3    H223231   4.630   0.323   5.010 -1.5772  0.2309  0.2964
  606TIP3   OH223232   0.954   6.018  11.599 -0.2796 -0.1187  0.0255
  606TIP3    H123233   0.963   5.965  11.678 -0.1162  0.3949  0.3636
  606TIP3    H223234   0.960   5.956  11.527 -1.5026 -0.7316  0.4339
  607TIP3   OH223235   4.169   1.888  16.449  0.1226 -0.4134  0.3520
  607TIP3    H123236   4.215   1.821  16.398  0.6093  1.0631 -1.2559
  607TIP3    H223237   4.238   1.930  16.501 -0.3579 -1.8476  2.2284
  608TIP3   OH223238   0.509   3.569   1.747 -0.3748  0.6264  0.4411
  608TIP3    H123239   0.435   3.587   1.804 -2.0903  0.2560 -1.5475
  608TIP3    H223240   0.498   3.630   1.674  0.4127 -0.4497 -0.6129
  609TIP3   OH223241   1.251   1.321  16.056  0.7114 -0.1462  0.1563
  609TIP3    H123242   1.282   1.348  15.970 -0.2039  1.0202  0.1574
  609TIP3    H223243   1.156   1.310  16.045  0.6754 -0.5940  0.8591
  610TIP3   OH223244   5.280   4.177   2.356  0.3665  0.1764  0.4129
  610TIP3    H123245   5.246   4.098   2.313  0.8653 -0.8933  1.8729
  610TIP3    H223246   5.371   4.183   2.326  0.3337  0.1826  0.3134
  611TIP3   OH223247   5.824   5.508   3.288 -0.0795 -0.4835  0.0718
  611TIP3    H123248   5.750   5.556   3.251  0.7421  1.2374  0.5539
  611TIP3    H223249   5.860   5.458   3.214 -0.1705  0.6902 -0.7914
  612TIP3   OH223250   4.648   5.401  14.498  0.2940  0.0605 -0.4784
  612TIP3    H123251   4.580   5.368  14.438  0.4064 -0.1696 -0.4790
  612TIP3    H223252   4.602   5.416  14.581  0.3816 -0.7480 -0.2791
  613TIP3   OH223253   5.033   1.115   1.673 -0.3852 -0.6184  0.6854
  613TIP3    H123254   5.034   1.195   1.725 -1.8706  0.1070 -0.3246
  613TIP3    H223255   5.107   1.125   1.613 -0.2186 -0.2577  0.9467
  614TIP3   OH223256   1.717   4.753   5.381  0.3586  0.4499  0.2531
  614TIP3    H123257   1.639   4.712   5.419  0.2848  0.1061 -0.2559
  614TIP3    H223258   1.706   4.846   5.396  0.0261  0.3686  0.5134
  615TIP3   OH223259   1.254   4.223   2.233 -0.7589  0.1742  0.1720
  615TIP3    H123260   1.295   4.309   2.242 -0.5244 -0.1155  2.2457
  615TIP3    H223261   1.164   4.242   2.209 -1.1162  1.0953  2.0710
  616TIP3   OH223262   1.864   0.117  14.037 -0.1798  0.4386  0.5592
  616TIP3    H123263   1.871   0.213  14.041  1.6311  0.3556  0.0482
  616TIP3    H223264   1.880   0.089  14.127 -0.3440  0.5980  0.6393
  617TIP3   OH223265   3.236   2.182  15.482 -0.7206 -0.4863 -0.1846
  617TIP3    H123266   3.263   2.205  15.393  0.0934 -1.2693 -0.1536
  617TIP3    H223267   3.169   2.115  15.470  0.2481 -1.4792 -0.2092
  618TIP3   OH223268   1.927   5.919  14.469  0.5707  0.1109  0.0497
  618TIP3    H123269   1.834   5.930  14.453  0.5482  0.8781  0.6098
  618TIP3    H223270   1.931   5.857  14.543  0.3870  1.7401  1.4916
  619TIP3   OH223271   2.214   3.403   4.563 -0.1022  0.6047  0.7463
  619TIP3    H123272   2.137   3.347   4.554  0.1780 -0.0024  1.8723
  619TIP3    H223273   2.181   3.492   4.552 -0.6826  0.2715 -0.3446
  620TIP3   OH223274   2.063   2.492   4.487  0.3005  0.2417  0.0000
  620TIP3    H123275   2.083   2.452   4.571  0.1190  0.1283 -0.0087
  620TIP3    H223276   2.133   2.556   4.472  0.9417 -0.5092 -0.2713
  621TIP3   OH223277   5.921   1.814   0.646 -0.2130  0.1807  0.0826
  621TIP3    H123278   5.909   1.728   0.607  2.9756 -0.2440 -0.2283
  621TIP3    H223279   5.964   1.797   0.730 -0.8384  1.4347  0.6975
  622TIP3   OH223280   3.480   3.546   4.791 -0.0574 -0.3995 -0.7419
  622TIP3    H123281   3.546   3.605   4.755 -0.6227  1.4232  0.9925
  622TIP3    H223282   3.502   3.539   4.884 -0.8525 -1.8087 -0.6295
  623TIP3   OH223283   3.497   4.792  16.039 -0.2619 -0.2936 -0.6845
  623TIP3    H123284   3.535   4.875  16.010 -0.7622  0.5065  0.8350
  623TIP3    H223285   3.566   4.752  16.092 -0.6722  0.0611  0.1394
  624TIP3   OH223286   5.495   2.847   2.098 -0.0351 -0.2187 -0.6956
  624TIP3    H123287   5.517   2.754   2.102  0.9399  0.0374  0.3560
  624TIP3    H223288   5.579   2.892   2.103 -0.5856  0.7457  0.2781
  625TIP3   OH223289   3.327   2.003   1.873  0.0025 -0.1412  0.6217
  625TIP3    H123290   3.372   1.921   1.895 -2.1886 -1.3805  0.7220
  625TIP3    H223291   3.362   2.067   1.936  0.2395 -1.4949  1.9050
  626TIP3   OH223292   6.773   1.238   1.147  0.3274 -1.0094 -0.1712
  626TIP3    H123293   6.724   1.277   1.074 -0.3153  1.6904  1.5663
  626TIP3    H223294   6.846   1.298   1.161  0.9981 -2.0264  0.7854
  627TIP3   OH223295   1.669   1.759   4.952 -0.3365 -0.2557  0.0077
  627TIP3    H123296   1.591   1.807   4.926  0.7632  1.9737  0.5686
  627TIP3    H223297   1.659   1.747   5.047 -0.5668 -1.1398 -0.1144
  628TIP3   OH223298   6.310   1.681   5.153  0.5752 -0.0524 -0.5244
  628TIP3    H123299   6.321   1.604   5.209 -1.3563  0.1486  0.2220
  628TIP3    H223300   6.234   1.660   5.099  1.4679  0.3998 -2.0066
  629TIP3   OH223301   1.679   0.460   5.061  0.5068  0.0004  0.6213
  629TIP3    H123302   1.733   0.534   5.091  0.2623 -0.2018  1.5963
  629TIP3    H223303   1.655   0.415   5.142  0.2893 -0.8945  0.0611
  630TIP3   OH223304   4.794   0.844   5.280  0.0345  0.1993 -0.1515
  630TIP3    H123305   4.745   0.768   5.250 -1.8302  0.6504  1.5167
  630TIP3    H223306   4.772   0.913   5.216 -0.8850  0.1759  0.1237
  631TIP3   OH223307   4.105   5.333   0.616  0.4123 -0.0021  0.1106
  631TIP3    H123308   4.030   5.274   0.609  0.3713  0.0430  0.1621
  631TIP3    H223309   4.098   5.390   0.540 -1.4627  2.1232  1.7351
  632TIP3   OH223310   3.099   1.094  11.449 -0.2460 -0.0827 -0.2999
  632TIP3    H123311   3.138   1.152  11.514 -0.6649  0.4797 -0.5353
  632TIP3    H223312   3.008   1.123  11.442 -0.0391  0.3426 -1.6434
  633TIP3   OH223313   0.985   6.550  16.371 -0.0040  0.7794 -0.3438
  633TIP3    H123314   1.073   6.589  16.367  0.1527  0.9436  2.6623
  633TIP3    H223315   0.927   6.620  16.340  0.8067  1.0476 -1.3130
  634TIP3   OH223316   4.169   6.052   0.152  1.3372  0.1839  0.4336
  634TIP3    H123317   4.204   6.065   0.064 -1.2885  0.8634 -0.5748
  634TIP3    H223318   4.125   6.135   0.173  1.1898 -0.2728  2.0434
  635TIP3   OH223319   1.153   0.452  12.564 -1.2387 -0.1213  0.0333
  635TIP3    H123320   1.211   0.376  12.559 -0.3710  0.5030  0.3163
  635TIP3    H223321   1.147   0.470  12.658 -0.3616  0.9463 -0.0957
  636TIP3   OH223322   0.340   1.470   4.998  0.2562  0.4034 -0.2098
  636TIP3    H123323   0.281   1.545   5.004  0.8284  0.9170 -0.8984
  636TIP3    H223324   0.322   1.433   4.912 -1.1610 -1.2301  0.7274
  637TIP3   OH223325   5.270   4.782   0.913  0.3115 -0.5621  0.3814
  637TIP3    H123326   5.270   4.872   0.880  0.7905 -0.5920  0.2959
  637TIP3    H223327   5.274   4.727   0.835  2.4299 -0.6221  0.4684
  638TIP3   OH223328   4.597   6.476   2.248  0.0299  0.1763 -0.5035
  638TIP3    H123329   4.551   6.453   2.328  0.6302  1.6703  0.3086
  638TIP3    H223330   4.621   6.392   2.209 -0.8990 -0.5788  0.5071
  639TIP3   OH223331   5.286   2.716  13.167  0.8217  0.0749 -0.0598
  639TIP3    H123332   5.275   2.629  13.129  1.4590  1.1743 -3.0575
  639TIP3    H223333   5.210   2.727  13.224 -1.1168 -1.1925 -2.2249
  640TIP3   OH223334   6.095   3.309   3.634 -0.1282 -0.5808 -0.2355
  640TIP3    H123335   6.186   3.279   3.631  0.0239 -0.0833 -0.9733
  640TIP3    H223336   6.064   3.286   3.721  0.4562 -1.4880 -0.2549
  641TIP3   OH223337   1.723   3.927   0.929  0.1676  0.3111  0.4763
  641TIP3    H123338   1.785   3.997   0.908 -0.4988  0.7629 -0.0430
  641TIP3    H223339   1.773   3.847   0.918  0.0483  0.5306 -2.4583
  642TIP3   OH223340   1.648   4.570   4.170  0.7475 -0.1244  0.3912
  642TIP3    H123341   1.577   4.634   4.171  2.2260  1.6766 -1.6614
  642TIP3    H223342   1.650   4.535   4.259 -2.2379  0.2176  0.6966
  643TIP3   OH223343   6.064   5.636  14.428 -0.1525 -0.2331  0.0309
  643TIP3    H123344   6.054   5.595  14.514  0.7839 -0.9003 -0.1521
  643TIP3    H223345   6.070   5.730  14.446 -1.2586 -0.2529  0.5627
  644TIP3   OH223346   4.247   3.335   1.911  0.3563 -0.3418  0.2733
  644TIP3    H123347   4.330   3.381   1.915  1.1040 -1.7057  1.7933
  644TIP3    H223348   4.270   3.242   1.920 -1.2825 -0.7957  0.1479
  645TIP3   OH223349   2.948   5.510  11.421  0.2577 -0.0753  0.0660
  645TIP3    H123350   2.927   5.424  11.384  1.1299 -1.1261  1.8573
  645TIP3    H223351   2.863   5.550  11.438 -0.3615 -2.1985  2.6610
  646TIP3   OH223352   5.384   3.372   5.367 -0.1870 -0.0644 -0.0159
  646TIP3    H123353   5.325   3.443   5.393 -0.0993 -0.5811  1.7652
  646TIP3    H223354   5.461   3.384   5.423  0.3234 -0.8833 -0.5191
  647TIP3   OH223355   2.636   0.969   5.368 -0.2714  0.6776  1.0294
  647TIP3    H123356   2.587   0.974   5.286 -0.4502 -0.9989  1.0003
  647TIP3    H223357   2.686   1.050   5.372  0.9867  0.1121 -1.5398
  648TIP3   OH223358   6.154   0.081   3.697 -0.0239 -0.2743 -0.5287
  648TIP3    H123359   6.193   0.025   3.629 -0.8872 -1.6838  0.0948
  648TIP3    H223360   6.197   0.053   3.778 -1.6096 -1.1938  0.0305
  649TIP3   OH223361   5.652   2.050  14.877 -0.2638  0.7973 -0.5231
  649TIP3    H123362   5.561   2.026  14.861 -1.2236  3.7373 -0.2620
  649TIP3    H223363   5.647   2.142  14.904  2.2669 -0.1745  4.4225
  650TIP3   OH223364   2.759   6.568  11.875  0.9449 -1.1124 -0.2089
  650TIP3    H123365   2.793   6.642  11.825  0.1267  0.7093  1.7776
  650TIP3    H223366   2.666   6.564  11.851  0.6278 -0.4445  0.8479
  651TIP3   OH223367   3.341   2.366   5.544  0.4777 -0.2545  0.3111
  651TIP3    H123368   3.397   2.444   5.547  0.1435  0.1038 -1.4382
  651TIP3    H223369   3.402   2.292   5.545  1.0627  0.1279 -1.6809
  652TIP3   OH223370   4.724   4.893   5.557  0.0210 -0.4666 -0.2187
  652TIP3    H123371   4.733   4.974   5.606  1.3324 -0.3057 -0.6611
  652TIP3    H223372   4.642   4.854   5.587 -0.4941  0.8899  0.1851
  653TIP3   OH223373   3.643   5.844  13.359 -0.4570  0.1997 -0.0618
  653TIP3    H123374   3.673   5.896  13.434 -1.4268  0.7595 -0.0547
  653TIP3    H223375   3.550   5.829  13.375 -0.2966 -1.1920 -0.2843
  654TIP3   OH223376   5.152   2.400  10.955 -0.5405  0.5373  0.0704
  654TIP3    H123377   5.081   2.352  10.996 -1.4886  0.8401 -1.1640
  654TIP3    H223378   5.196   2.336  10.900  0.3635  0.2735  1.0701
  655TIP3   OH223379   0.531   6.179  12.777  0.3115  0.4621  0.2614
  655TIP3    H123380   0.625   6.191  12.784  0.4120 -0.7848  1.3856
  655TIP3    H223381   0.519   6.085  12.761 -0.6837  0.8476 -1.5565
  656TIP3   OH223382   0.353   1.417   2.326 -0.1160 -0.1340  0.3881
  656TIP3    H123383   0.325   1.461   2.406 -1.1842  1.0945 -0.5915
  656TIP3    H223384   0.294   1.342   2.318 -2.5640  1.7797 -1.0475
  657TIP3   OH223385   2.316   2.567   1.352  0.6852  0.5265 -0.1521
  657TIP3    H123386   2.342   2.660   1.354 -0.2893  0.8102  0.0635
  657TIP3    H223387   2.325   2.538   1.443 -1.3184  1.1052  0.2793
  658TIP3   OH223388   5.206   0.507   5.092 -0.5762 -0.2292 -0.4660
  658TIP3    H123389   5.295   0.517   5.059 -0.8382  0.2435 -1.0397
  658TIP3    H223390   5.162   0.451   5.028 -0.7695 -0.2444 -0.3209
  659TIP3   OH223391   5.891   5.321  13.537 -0.3259  0.7200 -0.3758
  659TIP3    H123392   5.839   5.244  13.559  1.8480 -0.4527  0.9670
  659TIP3    H223393   5.839   5.395  13.569 -1.4346 -0.3237  0.3418
  660TIP3   OH223394   2.862   4.530  11.607 -0.3478  0.2236  0.1730
  660TIP3    H123395   2.946   4.519  11.653 -0.6676 -1.2860  0.4525
  660TIP3    H223396   2.849   4.625  11.603  0.3300  0.4410  2.0480
  661TIP3   OH223397   2.821   3.606   1.568 -0.2622 -0.3688 -0.0315
  661TIP3    H123398   2.854   3.521   1.599  1.5369 -0.8101 -2.8398
  661TIP3    H223399   2.737   3.616   1.613  0.6501 -2.3785  2.3748
  662TIP3   OH223400   2.809   2.316  14.128 -0.8142 -0.2692  0.0916
  662TIP3    H123401   2.732   2.373  14.132 -0.3118  0.4830 -0.6834
  662TIP3    H223402   2.845   2.330  14.040  0.0265 -0.8630  0.3266
  663TIP3   OH223403   2.833   4.903   6.536 -0.0263 -0.0242  0.0432
  663TIP3    H123404   2.890   4.980   6.533  0.4690 -0.3706  0.3757
  663TIP3    H223405   2.893   4.829   6.546 -0.5887 -0.2931  1.6731
  664TIP3   OH223406   6.649   5.580  12.951 -0.2915  0.4050 -0.2888
  664TIP3    H123407   6.574   5.638  12.935  0.4241  1.5077  0.2178
  664TIP3    H223408   6.681   5.606  13.038  1.1881  0.5243 -0.8516
  665TIP3   OH223409   3.238   5.064  14.368  0.4044  0.2673 -0.2430
  665TIP3    H123410   3.243   4.972  14.340  0.5916  0.2822 -0.2616
  665TIP3    H223411   3.258   5.114  14.289 -1.6816  0.3921 -0.7551
  666TIP3   OH223412   4.495   1.557  12.508  0.7204  0.3619  0.0592
  666TIP3    H123413   4.401   1.560  12.526  1.0186  0.4776  1.7269
  666TIP3    H223414   4.501   1.573  12.414 -0.8934  0.9494  0.0135
  667TIP3   OH223415   6.017   4.457   1.161  0.0158  0.3739  0.3906
  667TIP3    H123416   6.022   4.547   1.192 -1.2403  0.8848 -0.7948
  667TIP3    H223417   6.031   4.463   1.067 -0.9901 -0.5303  0.1543
  668TIP3   OH223418   6.564   5.432  15.848  0.2367 -0.0539 -0.6158
  668TIP3    H123419   6.513   5.385  15.914 -2.5737  1.9025 -1.2627
  668TIP3    H223420   6.642   5.461  15.895 -0.9810  0.0338  1.4626
  669TIP3   OH223421   0.838   0.811   0.463  0.2916  0.1696  0.1110
  669TIP3    H123422   0.834   0.749   0.390 -0.7754  0.3009  0.0391
  669TIP3    H223423   0.874   0.891   0.424 -1.2034  0.5593 -0.5380
  670TIP3   OH223424   1.266   3.387  13.409  0.4223 -0.0674  0.5977
  670TIP3    H123425   1.185   3.378  13.359  0.2636  1.7214  0.4764
  670TIP3    H223426   1.318   3.311  13.384 -0.6637 -0.5238 -0.3686
  671TIP3   OH223427   1.123   3.184   2.997  0.3656  0.0008 -0.0008
  671TIP3    H123428   1.184   3.181   2.922 -1.3516 -1.2760 -1.4405
  671TIP3    H223429   1.093   3.093   3.006 -0.5053  0.4038  1.3701
  672TIP3   OH223430   6.606   6.119  16.307  0.2105  0.0117  0.1908
  672TIP3    H123431   6.566   6.205  16.299  1.6106  0.5429 -1.6964
  672TIP3    H223432   6.610   6.085  16.218  0.2795 -1.7371  0.8232
  673TIP3   OH223433   0.901   3.916  15.449 -0.1033 -0.2224  0.2356
  673TIP3    H123434   0.961   3.874  15.510  0.2881  0.9956  0.7249
  673TIP3    H223435   0.814   3.884  15.474 -0.1184  1.2585  2.3722
  674TIP3   OH223436   4.357   3.265  16.943 -0.2039  1.0650 -0.3104
  674TIP3    H123437   4.309   3.230  16.868 -1.7553  2.0556  0.1740
  674TIP3    H223438   4.377   3.356  16.919  0.7438  0.9026 -0.1754
  675TIP3   OH223439   1.760   3.549   5.644  0.5229  0.5920 -0.2072
  675TIP3    H123440   1.813   3.579   5.570 -1.5526  1.7656 -1.3202
  675TIP3    H223441   1.774   3.615   5.712 -0.4852  1.6611 -0.9903
  676TIP3   OH223442   1.935   4.492   0.678  0.3292  0.8764  0.2247
  676TIP3    H123443   1.922   4.539   0.596  0.2618  0.2870 -0.1074
  676TIP3    H223444   2.028   4.469   0.678 -0.2004 -1.5820 -1.0530
  677TIP3   OH223445   6.099   5.548   1.388 -0.5173 -0.1656  0.0537
  677TIP3    H123446   6.103   5.505   1.473  0.8710 -0.6489 -0.2339
  677TIP3    H223447   6.061   5.482   1.330 -1.2713  0.0932  0.2359
  678TIP3   OH223448   2.483   5.742  11.777 -0.7144 -0.5674 -0.2861
  678TIP3    H123449   2.479   5.739  11.681 -1.3443 -0.7796 -0.2516
  678TIP3    H223450   2.575   5.764  11.796 -0.8901  0.8273 -0.9618
  679TIP3   OH223451   1.897   6.374   3.547 -0.5052  0.6800  0.3310
  679TIP3    H123452   1.877   6.286   3.581 -2.6943  1.1281  0.3578
  679TIP3    H223453   1.928   6.359   3.458  1.5727 -0.2433  1.1401
  680TIP3   OH223454   6.169   1.722   5.603 -0.8650  0.6178 -0.1359
  680TIP3    H123455   6.248   1.767   5.631  0.4166  0.5803 -3.2489
  680TIP3    H223456   6.197   1.631   5.588 -2.0622  0.0650  0.7711
  681TIP3   OH223457   5.618   4.600  13.515 -0.1588  0.0952  0.5403
  681TIP3    H123458   5.592   4.659  13.586 -0.6320  0.5431  0.0001
  681TIP3    H223459   5.537   4.577  13.471  0.1072 -0.3612  0.2823
  682TIP3   OH223460   5.759   2.899   0.365 -0.7091  0.1270  0.0437
  682TIP3    H123461   5.741   2.842   0.289 -1.7442  0.7930 -0.2379
  682TIP3    H223462   5.800   2.977   0.327 -0.2999  0.0380  0.2983
  683TIP3   OH223463   5.754   2.412  11.877  1.0395  0.7529  0.1401
  683TIP3    H123464   5.749   2.412  11.973 -0.5861 -2.8200  0.2059
  683TIP3    H223465   5.822   2.348  11.856 -1.0131 -1.1638 -1.0134
  684TIP3   OH223466   0.279   0.995  11.797  0.2912 -0.2738  0.1203
  684TIP3    H123467   0.373   1.008  11.787  0.0820  0.7541 -0.8083
  684TIP3    H223468   0.256   1.047  11.875  0.5696 -0.9975  0.6933
  685TIP3   OH223469   0.796   4.559  11.929  0.3352  0.1169  0.4344
  685TIP3    H123470   0.759   4.597  11.849 -0.7987  0.5837  1.1472
  685TIP3    H223471   0.886   4.592  11.932  0.0297  1.0379 -0.0580
  686TIP3   OH223472   5.692   3.411   3.043  0.7874 -0.5324  0.0360
  686TIP3    H123473   5.774   3.408   2.994  0.3117 -1.8739 -0.7029
  686TIP3    H223474   5.706   3.353   3.118  0.7098 -0.3126  0.2230
  687TIP3   OH223475   5.020   6.558   4.419  0.3283 -0.0820 -0.3721
  687TIP3    H123476   5.028   6.530   4.510 -0.3785 -1.5684 -0.7382
  687TIP3    H223477   5.020   6.477   4.368 -0.7301  0.6337 -1.5795
  688TIP3   OH223478   4.481   2.044  13.286 -0.6054  0.0854  0.0422
  688TIP3    H123479   4.488   2.048  13.381 -0.9402 -2.6656  0.2395
  688TIP3    H223480   4.410   1.982  13.269  0.8072 -1.0873 -1.9856
  689TIP3   OH223481   2.606   4.361  16.735  0.1794 -0.1674 -0.1382
  689TIP3    H123482   2.586   4.412  16.657  0.1786 -0.5018 -0.3577
  689TIP3    H223483   2.695   4.387  16.759 -0.5263  1.3969  0.8994
  690TIP3   OH223484   5.916   1.965   6.120 -0.5550  0.4984 -0.1929
  690TIP3    H123485   5.920   2.034   6.186 -1.3804  0.3541  0.0159
  690TIP3    H223486   6.007   1.950   6.096 -0.3182  1.2011  0.2390
  691TIP3   OH223487   0.331   3.120  16.887  0.1488 -0.3212  0.5185
  691TIP3    H123488   0.310   3.053  16.951  0.1785 -0.5985  0.2370
  691TIP3    H223489   0.247   3.140  16.845  0.5377 -2.1091 -1.2760
  692TIP3   OH223490   0.086   2.171  12.899  0.4352  0.1801  0.4047
  692TIP3    H123491   0.119   2.083  12.884  1.4973  0.6309  0.0483
  692TIP3    H223492   0.163   2.223  12.920 -0.3200  0.7970  1.7884
  693TIP3   OH223493   5.071   4.525   2.698  0.3522  0.2570  0.3659
  693TIP3    H123494   5.041   4.547   2.787  1.1888 -0.8882  0.9498
  693TIP3    H223495   5.113   4.440   2.707  1.0716  0.4396 -1.0066
  694TIP3   OH223496   3.738   4.900   0.144 -0.2056 -0.2406  0.3433
  694TIP3    H123497   3.705   4.814   0.118  0.3248 -0.1692 -0.6149
  694TIP3    H223498   3.737   4.898   0.240 -2.3187 -0.4826  0.3689
  695TIP3   OH223499   0.474   2.776  16.763 -0.1529  0.3270  0.6703
  695TIP3    H123500   0.559   2.816  16.783  0.1630  0.5793 -1.0479
  695TIP3    H223501   0.420   2.848  16.730 -2.2044  0.9090  4.6424
  696TIP3   OH223502   0.301   2.112  14.570 -0.3538 -0.0095  0.3541
  696TIP3    H123503   0.206   2.123  14.568 -0.5398 -1.4115  0.4802
  696TIP3    H223504   0.335   2.201  14.580 -1.6062  0.6284 -0.6798
  697TIP3   OH223505   4.118   2.905   2.046 -0.2936 -0.3332 -0.2653
  697TIP3    H123506   4.201   2.936   2.010 -1.2731  1.4974 -1.0716
  697TIP3    H223507   4.100   2.966   2.118 -0.0032 -1.9257  1.2213
  698TIP3   OH223508   1.217   1.994   4.858  0.7683  0.3166 -0.2008
  698TIP3    H123509   1.221   2.068   4.919  0.4683  0.4542 -0.3440
  698TIP3    H223510   1.180   2.031   4.777 -1.5159 -0.4155  0.4117
  699TIP3   OH223511   6.296   5.843   0.732 -0.0190  0.3554 -0.2634
  699TIP3    H123512   6.315   5.921   0.681  0.5196  0.6518  0.3701
  699TIP3    H223513   6.245   5.875   0.807  1.5502  0.3592  0.8381
  700TIP3   OH223514   2.988   4.722   2.395  0.0037  0.3752 -0.0488
  700TIP3    H123515   2.893   4.735   2.395  0.0892  1.0817 -0.6022
  700TIP3    H223516   3.000   4.629   2.414 -0.7740  0.4180  0.7183
  701TIP3   OH223517   3.178   3.360  16.322 -0.3789 -0.2683 -0.2193
  701TIP3    H123518   3.085   3.337  16.320 -0.9352  1.8160 -2.1144
  701TIP3    H223519   3.194   3.388  16.412 -2.3663  2.1147 -0.5151
  702TIP3   OH223520   2.055   5.482  15.882  0.9386 -0.2319  0.0110
  702TIP3    H123521   2.010   5.558  15.846 -2.0839 -1.6250  0.5776
  702TIP3    H223522   2.091   5.512  15.966 -0.4736  0.5062  0.3756
  703TIP3   OH223523   3.690   2.521  13.218  0.6149  0.1206 -0.5799
  703TIP3    H123524   3.785   2.511  13.212  1.0456  1.9059  1.8116
  703TIP3    H223525   3.675   2.615  13.209 -1.0788 -0.2303 -1.9782
  704TIP3   OH223526   2.012   3.900  15.025 -0.2866 -0.4973  0.0613
  704TIP3    H123527   1.923   3.901  14.992 -0.1736  0.8750 -0.2482
  704TIP3    H223528   2.052   3.980  14.992  0.7573 -0.5832  1.0170
  705TIP3   OH223529   5.158   6.347   3.863 -0.1555  0.1906  1.1013
  705TIP3    H123530   5.155   6.253   3.879  0.6662 -0.5066 -2.2837
  705TIP3    H223531   5.251   6.369   3.861  0.1052 -0.3103 -4.1944
  706TIP3   OH223532   1.912   2.921  15.937  0.7422 -0.4307 -0.0547
  706TIP3    H123533   1.979   2.949  15.998  1.0692 -0.7165 -0.2770
  706TIP3    H223534   1.870   3.002  15.908 -0.5735 -0.3778  1.8262
  707TIP3   OH223535   1.376   1.464  14.239 -0.1527 -0.6579  0.5666
  707TIP3    H123536   1.395   1.473  14.332 -0.2981 -1.6047  0.6963
  707TIP3    H223537   1.332   1.380  14.231 -1.4262  0.0491 -0.1757
  708TIP3   OH223538   1.280   0.853  15.554  0.1886  0.0725  0.0864
  708TIP3    H123539   1.371   0.868  15.580  0.4112  0.5609 -0.9583
  708TIP3    H223540   1.253   0.933  15.510  0.3291 -1.2489 -2.6014
  709TIP3   OH223541   4.296   6.014   5.255  0.2045 -0.1052  0.0124
  709TIP3    H123542   4.239   6.008   5.178  1.0379 -0.1960 -0.6135
  709TIP3    H223543   4.237   6.038   5.327 -0.7716 -1.0715 -0.4311
  710TIP3   OH223544   5.911   1.226  16.973  0.3924  0.1270  0.2772
  710TIP3    H123545   5.878   1.153  16.921  2.6504  0.4019 -1.7705
  710TIP3    H223546   5.860   1.301  16.944  0.1099 -0.1151  0.1407
  711TIP3   OH223547   3.298   4.421   4.882  0.3632  0.6273 -0.4088
  711TIP3    H123548   3.309   4.440   4.975  0.9052  4.8455 -1.1338
  711TIP3    H223549   3.204   4.411   4.870  0.3342 -0.5211  0.6399
  712TIP3   OH223550   3.651   3.559  12.865  0.3442 -0.5554 -0.2738
  712TIP3    H123551   3.646   3.479  12.917 -0.6306 -0.5377 -0.3382
  712TIP3    H223552   3.745   3.569  12.847  0.5633 -1.2178  0.4424
  713TIP3   OH223553   3.324   5.988   0.111  0.2187 -0.4702 -0.2961
  713TIP3    H123554   3.395   6.034   0.067 -0.7156 -0.3139 -1.6833
  713TIP3    H223555   3.290   6.052   0.174  0.4718 -0.0898 -0.5383
  714TIP3   OH223556   2.026   2.090   4.804  0.9268 -0.1780 -0.5384
  714TIP3    H123557   2.069   2.175   4.797 -1.0368  0.7947 -1.5147
  714TIP3    H223558   1.954   2.094   4.741  0.3137 -2.2765 -0.0534
  715TIP3   OH223559   0.591   4.642   4.079 -0.1950  0.2722  0.1018
  715TIP3    H123560   0.681   4.662   4.107  0.1753 -0.8498 -0.2389
  715TIP3    H223561   0.559   4.579   4.143  0.1636 -1.2353 -1.1390
  716TIP3   OH223562   6.024   0.394   3.048  0.0828  0.2813 -0.1663
  716TIP3    H123563   6.006   0.348   2.966  1.1475  0.3532 -0.4552
  716TIP3    H223564   6.046   0.325   3.110  1.1443  0.3420 -0.4561
  717TIP3   OH223565   2.405   4.108  15.528 -0.4174 -0.2210 -0.0362
  717TIP3    H123566   2.363   4.135  15.447  1.3247 -0.5758 -1.1187
  717TIP3    H223567   2.390   4.013  15.533  1.5340 -0.6548 -1.2963
  718TIP3   OH223568   6.514   5.513  13.366 -0.4547 -0.2029  0.2730
  718TIP3    H123569   6.547   5.423  13.362  2.1099  0.6423  0.8595
  718TIP3    H223570   6.503   5.531  13.459  3.2317  1.3943  0.5482
  719TIP3   OH223571   0.516   3.405  12.045  0.3176 -0.6040 -0.2114
  719TIP3    H123572   0.558   3.438  11.966 -0.3613 -0.4048 -0.4911
  719TIP3    H223573   0.498   3.313  12.026  1.3704 -0.9156  0.2226
  720TIP3   OH223574   1.109   5.631   2.741  0.2532 -0.3211  0.1362
  720TIP3    H123575   1.108   5.726   2.753  1.2551 -0.0477 -1.6555
  720TIP3    H223576   1.053   5.616   2.665 -2.3126 -1.5240  2.1030
  721TIP3   OH223577   4.458   3.771  14.928  0.0480  0.1605 -0.0575
  721TIP3    H123578   4.493   3.801  15.012  0.8653 -1.5007  0.2472
  721TIP3    H223579   4.372   3.811  14.922  0.9802  2.4051  0.3345
  722TIP3   OH223580   6.162   1.097  13.866  0.2986  0.0212  0.1963
  722TIP3    H123581   6.128   1.131  13.783 -0.6254  2.6534  1.5294
  722TIP3    H223582   6.141   1.004  13.865  0.2285 -0.0078 -2.4548
  723TIP3   OH223583   2.745   2.407  15.978 -0.4739  0.1732 -0.4077
  723TIP3    H123584   2.687   2.340  15.941 -1.3066  0.5868  0.1148
  723TIP3    H223585   2.749   2.385  16.071 -1.6811  1.4872 -0.0109
  724TIP3   OH223586   2.677   3.562  14.875 -0.4486 -0.0193 -0.4588
  724TIP3    H123587   2.628   3.524  14.948 -1.0265  2.6724  0.6895
  724TIP3    H223588   2.626   3.639  14.850  1.6548  1.2180 -1.1981
  725TIP3   OH223589   2.416   2.234  13.409 -0.8381  0.1302  0.0195
  725TIP3    H123590   2.349   2.224  13.342 -1.6294 -0.9408  0.9319
  725TIP3    H223591   2.370   2.219  13.492  0.3559  0.1941  0.7208
  726TIP3   OH223592   2.182   3.193  14.297  0.8367  0.3033  0.1984
  726TIP3    H123593   2.196   3.099  14.289  1.1691  0.2188  1.5039
  726TIP3    H223594   2.121   3.215  14.227  0.6242 -0.9108 -0.0123
  727TIP3   OH223595   3.394   0.458   3.097  0.1761 -0.3804  0.2823
  727TIP3    H123596   3.479   0.492   3.123 -0.2803  0.1571  1.1124
  727TIP3    H223597   3.412   0.369   3.066  1.0771 -0.1553  0.1306
  728TIP3   OH223598   4.301   5.100  15.976 -0.1122 -0.3420 -0.5328
  728TIP3    H123599   4.347   5.096  16.060  0.2247 -0.7033 -0.7307
  728TIP3    H223600   4.278   5.010  15.956 -0.6765 -0.1932 -0.5695
  729TIP3   OH223601   2.359   3.350  11.719 -0.3810 -0.2821  0.2630
  729TIP3    H123602   2.307   3.273  11.695 -0.8633  0.4021 -0.9895
  729TIP3    H223603   2.450   3.323  11.706 -0.4934 -0.9515  0.8125
  730TIP3   OH223604   1.799   5.536   2.506  0.4257 -0.3970 -0.0057
  730TIP3    H123605   1.809   5.526   2.411 -0.8499 -0.4174 -0.1576
  730TIP3    H223606   1.710   5.569   2.517  0.2995 -1.0859  1.2252
  731TIP3   OH223607   2.834   4.205  15.005 -0.2015 -0.1435  0.5290
  731TIP3    H123608   2.799   4.172  14.922  0.1955  0.7755 -0.0161
  731TIP3    H223609   2.918   4.245  14.981  0.4082 -0.7955  1.5428
  732TIP3   OH223610   1.342   6.130  16.419  0.1394 -0.4489 -1.1206
  732TIP3    H123611   1.435   6.138  16.439 -0.1344 -0.7325  0.4039
  732TIP3    H223612   1.321   6.038  16.439 -0.7019 -0.1045 -0.3641
  733TIP3   OH223613   4.765   2.040   5.146 -0.2961 -0.0467 -0.0214
  733TIP3    H123614   4.799   2.115   5.097  0.8206 -1.3524 -1.3231
  733TIP3    H223615   4.730   1.982   5.079 -1.9854 -0.3199  1.0443
  734TIP3   OH223616   5.336   4.087   1.686  0.0478  0.0799  0.0895
  734TIP3    H123617   5.358   4.003   1.727 -0.3692  0.5845  1.4127
  734TIP3    H223618   5.241   4.094   1.696  0.1352  0.9013  0.3894
  735TIP3   OH223619   4.502   5.389  12.134 -0.0476  0.1296  0.0298
  735TIP3    H123620   4.428   5.373  12.076 -0.0356 -0.4074  0.1544
  735TIP3    H223621   4.471   5.365  12.221  0.7382 -1.6951 -0.1291
  736TIP3   OH223622   5.634   3.834   5.492 -0.2273  0.3797 -0.2362
  736TIP3    H123623   5.649   3.856   5.400  0.4660  1.3002  0.0801
  736TIP3    H223624   5.574   3.901   5.523  0.5130  0.8203  0.2869
  737TIP3   OH223625   2.422   4.470   0.070 -0.1298 -0.3006  0.0920
  737TIP3    H123626   2.428   4.409  -0.004 -0.4638  1.5940 -1.5550
  737TIP3    H223627   2.495   4.530   0.058  0.2322 -0.3596  1.7345
  738TIP3   OH223628   2.766   1.518   1.212 -0.0715 -0.2451 -0.1563
  738TIP3    H123629   2.808   1.595   1.249  1.6695 -0.2812 -1.9184
  738TIP3    H223630   2.755   1.459   1.287 -0.1833  1.1460  0.9654
  739TIP3   OH223631   3.029   2.072   2.100  0.5814 -0.6297  0.4486
  739TIP3    H123632   3.007   2.056   2.008  0.0403 -2.4967  0.8656
  739TIP3    H223633   3.037   2.168   2.106 -1.3995 -0.2999 -1.0903
  740TIP3   OH223634   6.745   6.512   2.472  0.3127  0.0237 -0.1148
  740TIP3    H123635   6.791   6.447   2.419 -0.3080  0.1850 -0.8561
  740TIP3    H223636   6.659   6.521   2.431  0.1500  0.8200  0.3797
  741TIP3   OH223637   0.638   5.944  13.473 -0.0831 -0.0643  0.7259
  741TIP3    H123638   0.578   5.926  13.401 -0.0936  1.9273  0.1858
  741TIP3    H223639   0.725   5.941  13.433  0.3199 -3.3481  1.5871
  742TIP3   OH223640   4.245   0.621   1.488  0.4710  0.1636  0.5772
  742TIP3    H123641   4.161   0.623   1.442  1.4443 -2.2635 -1.5806
  742TIP3    H223642   4.304   0.672   1.433  1.4388 -2.0107 -0.5283
  743TIP3   OH223643   2.786   3.381  13.995  0.4766 -0.2136  0.1881
  743TIP3    H123644   2.854   3.372  14.061  1.4346  1.9011 -0.4202
  743TIP3    H223645   2.804   3.313  13.931  0.7024 -1.0322  1.1003
  744TIP3   OH223646   1.603   1.336   0.772 -0.4293  0.0186 -0.1667
  744TIP3    H123647   1.546   1.331   0.696 -0.6099  1.1560 -0.1240
  744TIP3    H223648   1.604   1.429   0.795  1.4345  0.0199 -0.1582
  745TIP3   OH223649   2.075   0.275   3.647  0.2419  0.1364 -0.1811
  745TIP3    H123650   2.157   0.226   3.653  0.7809  0.8013 -1.5808
  745TIP3    H223651   2.011   0.221   3.694  1.7291  0.2328  2.0847
  746TIP3   OH223652   4.582   0.496   4.734 -0.2074  0.0605 -0.4198
  746TIP3    H123653   4.541   0.558   4.794  0.8116 -0.3603  0.7427
  746TIP3    H223654   4.580   0.412   4.780  0.9262 -0.1920 -0.8056
  747TIP3   OH223655   3.137   0.920  12.360 -0.3109  0.0357  0.4683
  747TIP3    H123656   3.072   0.924  12.430 -1.8822 -1.6912 -0.7872
  747TIP3    H223657   3.087   0.941  12.280  0.6353 -1.3473 -0.5347
  748TIP3   OH223658   4.535   3.314  14.470 -0.1371  0.4944 -0.3346
  748TIP3    H123659   4.551   3.332  14.378  1.4036  1.8856  0.1565
  748TIP3    H223660   4.622   3.318  14.511 -0.8661  0.6388  1.2842
  749TIP3   OH223661   1.660   3.194  14.553  0.2834 -0.1573 -0.7094
  749TIP3    H123662   1.665   3.286  14.579 -1.2372 -0.5962  1.4234
  749TIP3    H223663   1.732   3.152  14.600 -1.0555 -0.5504  1.1342
  750TIP3   OH223664   2.153   4.547   3.262  0.6577 -0.1889 -0.1307
  750TIP3    H123665   2.244   4.528   3.286  1.0421  0.4946 -1.0245
  750TIP3    H223666   2.125   4.470   3.213  0.5818 -0.6130  0.5509
  751TIP3   OH223667   5.913   0.029  16.861  0.1979 -0.2962  0.2646
  751TIP3    H123668   5.822   0.011  16.836  0.3842  0.3395 -0.9344
  751TIP3    H223669   5.960  -0.053  16.843  0.0063 -0.3872  0.1817
  752TIP3   OH223670   5.414   6.633   6.808 -0.8028 -0.6857 -0.1723
  752TIP3    H123671   5.383   6.543   6.813  1.0401 -1.3221  0.2563
  752TIP3    H223672   5.493   6.629   6.755 -2.0895  1.1134 -2.4005
  753TIP3   OH223673   1.110   4.859  14.839 -0.2602  0.0339 -0.0240
  753TIP3    H123674   1.055   4.793  14.797  0.5389  0.1581 -1.3286
  753TIP3    H223675   1.172   4.885  14.771 -0.1661  1.6914  0.6493
  754TIP3   OH223676   4.895   5.718  13.086 -0.2259 -0.2435  0.7534
  754TIP3    H123677   4.880   5.758  13.000 -0.4811 -0.1181  0.8536
  754TIP3    H223678   4.906   5.793  13.145  0.3543 -0.3349  0.7600
  755TIP3   OH223679   0.318   4.897  14.201  0.0348  0.1897  0.1699
  755TIP3    H123680   0.351   4.976  14.244 -0.7574  0.0317  1.1066
  755TIP3    H223681   0.253   4.861  14.262 -0.1270 -0.8055 -0.5505
  756TIP3   OH223682   2.255   6.027  16.992 -0.1669  0.4608  0.3504
  756TIP3    H123683   2.342   6.012  16.956 -0.0332  0.3944  0.7021
  756TIP3    H223684   2.260   5.996  17.082 -0.7985 -0.3155  0.1210
  757TIP3   OH223685   2.809   3.448   0.878  0.2602  0.4477 -0.5937
  757TIP3    H123686   2.752   3.392   0.825  1.3220  0.1824 -1.4995
  757TIP3    H223687   2.850   3.388   0.940  0.0421  0.5372 -0.3588
  758TIP3   OH223688   3.936   6.199  11.965 -0.6235  0.0528  0.1252
  758TIP3    H123689   4.006   6.188  12.030 -0.6472 -2.6452 -0.1655
  758TIP3    H223690   3.867   6.245  12.012  0.8506  1.6939  0.7896
  759TIP3   OH223691   0.408   6.285   4.529 -0.1222 -0.0633 -0.1169
  759TIP3    H123692   0.475   6.219   4.548  0.2021  0.4307  0.4940
  759TIP3    H223693   0.351   6.284   4.606  0.5209  1.1279  0.4056
  760TIP3   OH223694   3.506   0.391   6.128 -0.7555  0.4279 -0.3901
  760TIP3    H123695   3.578   0.453   6.117 -0.9045  0.4907 -1.0857
  760TIP3    H223696   3.510   0.364   6.219 -0.0875  0.7270 -0.3307
  761TIP3   OH223697   3.473   5.456   4.786  0.1720  0.2020  0.2448
  761TIP3    H123698   3.442   5.365   4.789  0.4024  0.1284  0.4372
  761TIP3    H223699   3.396   5.507   4.760  0.0194 -0.0373  0.2251
  762TIP3   OH223700   1.460   6.671   3.828  0.9143 -0.1714  0.2320
  762TIP3    H123701   1.454   6.592   3.774  1.3060  0.1929 -0.3353
  762TIP3    H223702   1.430   6.742   3.772  0.6183  0.1056  0.7259
  763TIP3   OH223703   0.143   4.063  10.298  0.4471  0.3223  0.0141
  763TIP3    H123704   0.212   4.121  10.267 -0.2271  1.5765  0.7582
  763TIP3    H223705   0.070   4.122  10.320  0.2500 -0.6214  2.2295
  764TIP3   OH223706   1.103   0.367  16.473 -0.2473 -0.0880  0.0771
  764TIP3    H123707   1.105   0.461  16.486  3.8536  0.0696 -0.3006
  764TIP3    H223708   1.125   0.330  16.559 -0.1056 -0.5721 -0.1584
  765TIP3   OH223709   0.521   2.567  10.845 -0.5356 -0.2819  0.4270
  765TIP3    H123710   0.436   2.537  10.875 -1.0747 -1.2479 -1.8492
  765TIP3    H223711   0.548   2.502  10.780  1.0238  1.0420 -0.3394
  766TIP3   OH223712   2.528   1.494  17.077 -0.0774  0.0688 -0.0372
  766TIP3    H123713   2.554   1.573  17.030 -0.4078 -0.0964 -0.5125
  766TIP3    H223714   2.470   1.524  17.147  1.1509  0.4133  0.8671
  767TIP3   OH223715   1.228   3.128  16.473 -0.6278 -0.0706 -0.8053
  767TIP3    H123716   1.240   3.213  16.516 -2.2586 -0.4460  0.4756
  767TIP3    H223717   1.305   3.120  16.416  1.1321  0.8948  1.2701
  768TIP3   OH223718   1.144   2.865   3.613 -0.1552 -0.4157 -0.6774
  768TIP3    H123719   1.175   2.953   3.589 -0.3536 -0.1415  0.0339
  768TIP3    H223720   1.055   2.879   3.645 -0.0253 -0.8045 -0.1215
  769TIP3   OH223721   6.543   3.901  13.898  0.5976 -0.7167  0.5380
  769TIP3    H123722   6.572   3.936  13.982 -1.7978 -1.5716  1.8157
  769TIP3    H223723   6.512   3.978  13.850 -0.0146 -0.4642  1.3122
  770TIP3   OH223724   2.163   0.099  15.466 -0.2307  0.0267  0.4875
  770TIP3    H123725   2.224   0.170  15.443 -0.5853  0.2273  0.1499
  770TIP3    H223726   2.106   0.138  15.533 -1.1114  0.4189 -0.4684
  771TIP3   OH223727   4.219   4.645   4.432 -0.2491 -0.4862 -0.0871
  771TIP3    H123728   4.219   4.617   4.523 -2.3986 -1.4439 -0.3212
  771TIP3    H223729   4.294   4.599   4.393  0.2480 -0.6353  0.9970
  772TIP3   OH223730   0.493   2.521  14.837  0.4274  0.1283 -0.0250
  772TIP3    H123731   0.454   2.588  14.894 -0.6116 -1.4877  1.2461
  772TIP3    H223732   0.548   2.468  14.895 -0.4509 -1.4103 -0.5362
  773TIP3   OH223733   5.313   0.128  16.491  0.4170  0.2299  0.4669
  773TIP3    H123734   5.274   0.213  16.472 -2.0829 -0.8544  0.2999
  773TIP3    H223735   5.249   0.085  16.548  0.2271 -2.5300 -1.6037
  774TIP3   OH223736   6.025   6.561   6.133 -0.4289  0.0419 -0.7559
  774TIP3    H123737   6.048   6.652   6.155  1.5352 -0.3075 -1.2233
  774TIP3    H223738   6.107   6.522   6.105 -1.4680 -1.5899 -1.6289
  775TIP3   OH223739   5.508   4.285   1.305 -0.1703  0.1818  0.2558
  775TIP3    H123740   5.506   4.288   1.400  1.3428  0.7620  0.2945
  775TIP3    H223741   5.464   4.203   1.283  1.7127 -1.2778  1.5924
  776TIP3   OH223742   2.283   6.452  15.905  0.3514  0.4512  0.0985
  776TIP3    H123743   2.213   6.500  15.950  1.1541  1.0056  0.7936
  776TIP3    H223744   2.320   6.515  15.843  0.4084  0.2472 -0.0748
  777TIP3   OH223745   0.307   1.663   1.065 -0.0924  0.5165  0.1592
  777TIP3    H123746   0.299   1.684   0.971 -1.6223  0.3541  0.2336
  777TIP3    H223747   0.352   1.740   1.102  1.3233  0.2107 -0.8174
  778TIP3   OH223748   0.987   3.061  11.510  0.0110  0.1487  0.0424
  778TIP3    H123749   0.989   3.151  11.477  0.4358  0.7164  1.5325
  778TIP3    H223750   0.921   3.061  11.579 -0.4815 -0.8748 -0.3981
  779TIP3   OH223751   2.951   2.588   0.655  0.3727 -0.0854 -0.2249
  779TIP3    H123752   3.003   2.613   0.578  0.4217  0.2477 -0.0852
  779TIP3    H223753   3.015   2.554   0.717  0.3079 -0.5519 -0.4088
  780TIP3   OH223754   5.190   4.019   2.139  0.4679  0.2799 -0.4278
  780TIP3    H123755   5.236   4.076   2.078  0.2070 -1.0389 -1.9091
  780TIP3    H223756   5.099   4.046   2.133  0.1988 -0.7739 -1.7890
  781TIP3   OH223757   3.574   3.839   6.323  0.3273 -0.1557  0.1346
  781TIP3    H123758   3.485   3.851   6.287  0.1938  1.3992  0.8963
  781TIP3    H223759   3.560   3.793   6.405 -0.1713  2.6434  1.7633
  782TIP3   OH223760   5.234   1.413   0.262 -0.1022 -0.0937  0.1499
  782TIP3    H123761   5.304   1.465   0.301 -0.7586  1.2241 -0.3726
  782TIP3    H223762   5.169   1.404   0.332  0.4323 -1.0622  0.5406
  783TIP3   OH223763   3.421   1.852   4.985  0.3866 -0.3945  0.2468
  783TIP3    H123764   3.431   1.759   4.964 -0.8781 -0.5484  0.2621
  783TIP3    H223765   3.361   1.854   5.059  1.5498  0.3757  1.2131
  784TIP3   OH223766   0.267   3.513   3.162  0.0462  0.1209 -0.4462
  784TIP3    H123767   0.229   3.576   3.101  2.1329  1.3309 -0.5983
  784TIP3    H223768   0.333   3.564   3.210  0.6396 -1.5687  0.5959
  785TIP3   OH223769   2.068   4.627   4.663 -0.2150  0.7393 -0.1914
  785TIP3    H123770   2.159   4.654   4.668  0.0768 -0.0070 -1.1688
  785TIP3    H223771   2.023   4.682   4.727  0.8055  1.5758 -0.1655
  786TIP3   OH223772   5.725   4.492  16.522 -0.3869  0.3456 -0.2655
  786TIP3    H123773   5.742   4.455  16.435 -0.2182 -0.5694  0.1403
  786TIP3    H223774   5.752   4.423  16.583 -1.6855  0.4737  0.4923
  787TIP3   OH223775   1.333   1.446   1.279  0.4647  0.0986  0.4435
  787TIP3    H123776   1.370   1.534   1.276  0.6810  0.0433  1.2662
  787TIP3    H223777   1.319   1.422   1.187 -0.5582  1.3934  0.2310
  788TIP3   OH223778   1.880   5.285   2.051  0.0295 -0.5780 -0.2236
  788TIP3    H123779   1.897   5.206   2.000  0.4542 -0.4726 -0.2572
  788TIP3    H223780   1.793   5.313   2.025  0.5256 -0.1139 -1.4622
  789TIP3   OH223781   3.549   4.876   3.875 -0.2451 -0.3432  0.2261
  789TIP3    H123782   3.638   4.899   3.903 -0.7627  1.2303  0.6803
  789TIP3    H223783   3.495   4.946   3.909 -1.6614 -1.2083 -0.1760
  790TIP3   OH223784   5.316   4.551  15.002  0.0165  0.0958  0.3256
  790TIP3    H123785   5.366   4.531  15.081 -0.3411  0.7184  0.7121
  790TIP3    H223786   5.339   4.641  14.980 -0.2239  0.0748 -0.0324
  791TIP3   OH223787   0.770   4.541  13.774 -0.0187  0.6807  0.0790
  791TIP3    H123788   0.747   4.456  13.735  0.3395  1.2635 -1.4914
  791TIP3    H223789   0.691   4.567  13.821 -0.7052  0.1869 -0.7573
  792TIP3   OH223790   4.469   5.957   0.837  0.5361 -0.2544 -0.0816
  792TIP3    H123791   4.474   5.965   0.932 -0.5722  1.0244 -0.0993
  792TIP3    H223792   4.376   5.945   0.819  0.3212  2.2181 -1.1153
  793TIP3   OH223793   1.337   3.181   5.684  0.2483  0.0435 -0.5767
  793TIP3    H123794   1.327   3.168   5.778 -1.0019  1.4043 -0.4733
  793TIP3    H223795   1.421   3.142   5.663  0.3493 -0.6773  1.0268
  794TIP3   OH223796   5.492   4.651  15.521 -0.0069 -0.9980 -0.0247
  794TIP3    H123797   5.411   4.620  15.560 -1.2297  0.4555 -1.2747
  794TIP3    H223798   5.506   4.738  15.559 -0.0775 -0.4581 -1.1739
  795TIP3   OH223799   0.826   2.137   2.922 -0.3862 -0.1807 -0.2853
  795TIP3    H123800   0.778   2.219   2.911  1.4080  0.7423 -1.9644
  795TIP3    H223801   0.906   2.162   2.967 -0.4272 -1.2752  0.4207
  796TIP3   OH223802   1.327   0.455  14.077 -0.4780  0.2327  0.1213
  796TIP3    H123803   1.257   0.420  14.131 -0.4615 -1.0798 -0.6645
  796TIP3    H223804   1.284   0.522  14.023 -1.3675 -1.2062 -1.0190
  797TIP3   OH223805   0.362   0.202  13.890  0.2835  0.4877 -0.2502
  797TIP3    H123806   0.273   0.169  13.903  1.0843 -1.2593  1.2569
  797TIP3    H223807   0.372   0.270  13.957  0.7730 -0.9271  1.2041
  798TIP3   OH223808   4.831   6.632   2.484 -0.2605 -0.4548 -0.0158
  798TIP3    H123809   4.894   6.591   2.426 -0.2618  1.0758 -1.1824
  798TIP3    H223810   4.871   6.716   2.507  0.2288 -1.4262  3.1425
  799TIP3   OH223811   3.368   0.535  12.680  0.6692  0.6702  0.0619
  799TIP3    H123812   3.285   0.570  12.713  0.3139  0.4042 -0.5287
  799TIP3    H223813   3.356   0.440  12.681  0.6414  0.6524 -0.8257
  800TIP3   OH223814   3.273   2.113   0.535 -0.2325  0.0777 -0.3450
  800TIP3    H123815   3.226   2.179   0.585 -2.0101  0.2660 -2.1718
  800TIP3    H223816   3.299   2.157   0.455 -1.0119 -1.2739 -1.3754
  801TIP3   OH223817   2.510   1.992   2.075 -0.4065  0.0020 -0.2529
  801TIP3    H123818   2.532   1.996   2.168  1.4840  0.4316 -0.6899
  801TIP3    H223819   2.582   1.944   2.035 -0.9751  0.2023 -1.5732
  802TIP3   OH223820   1.965   0.775   1.136  0.2858  0.4450 -0.2987
  802TIP3    H123821   1.937   0.864   1.161  0.0321  0.1124  0.6153
  802TIP3    H223822   1.959   0.775   1.040 -3.7250  0.1639 -0.2244
  803TIP3   OH223823   5.508   4.763  13.953  0.4551  0.2331  0.4232
  803TIP3    H123824   5.525   4.702  14.024  0.3087 -1.0105 -0.5659
  803TIP3    H223825   5.447   4.827  13.989  0.5678 -0.2313  1.4654
  804TIP3   OH223826   3.811   6.713  11.590 -0.5613 -0.4495 -0.5015
  804TIP3    H123827   3.728   6.725  11.544 -0.3689  1.8890 -0.3593
  804TIP3    H223828   3.833   6.800  11.623 -0.4569 -1.8040  3.6880
  805TIP3   OH223829   2.452   0.065   0.370 -0.0917  0.0293 -0.1485
  805TIP3    H123830   2.438  -0.030   0.374  0.1337  0.0200  0.5246
  805TIP3    H223831   2.498   0.078   0.287 -1.2366 -0.2964 -0.8664
  806TIP3   OH223832   0.299   5.205   4.759 -0.6667  0.6674  0.4689
  806TIP3    H123833   0.340   5.126   4.796 -0.2766  2.1436  3.5398
  806TIP3    H223834   0.330   5.208   4.669 -0.2371 -2.3458  0.3935
  807TIP3   OH223835   1.654   4.796  10.975  0.0619  0.0302  0.4146
  807TIP3    H123836   1.665   4.837  10.889  2.9977  0.3818  0.8477
  807TIP3    H223837   1.731   4.740  10.985 -1.5504 -2.1106  1.7466
  808TIP3   OH223838   6.368   1.632  12.647 -0.2432  0.6749 -0.7744
  808TIP3    H123839   6.417   1.592  12.575  1.5749  1.3057  0.0298
  808TIP3    H223840   6.399   1.723  12.649 -1.1133  0.9740  0.0874
  809TIP3   OH223841   1.145   1.494  11.136  0.6817  0.1761  0.3483
  809TIP3    H123842   1.197   1.535  11.066  1.3712  0.2672  0.9020
  809TIP3    H223843   1.143   1.559  11.206  1.4035 -0.5498  1.0616
  810TIP3   OH223844   1.773   2.454  14.576  0.0415 -0.2364  0.1766
  810TIP3    H123845   1.722   2.509  14.517  0.5941 -0.9657 -1.0076
  810TIP3    H223846   1.854   2.502  14.591  0.4957 -0.6791 -0.8035
  811TIP3   OH223847   1.902   5.414  11.062  0.0602  0.2449  0.0376
  811TIP3    H123848   1.853   5.430  10.981 -0.1372  0.0087  0.1097
  811TIP3    H223849   1.992   5.401  11.033  0.2257  1.4069 -0.0318
  812TIP3   OH223850   1.198   2.749  11.073 -0.0034 -0.0687  0.9002
  812TIP3    H123851   1.176   2.677  11.131 -0.7480  0.4890  1.3326
  812TIP3    H223852   1.140   2.739  10.997  0.4425 -0.3655  0.5907
  813TIP3   OH223853   4.715   0.529   4.045  0.5502  0.4090 -0.5474
  813TIP3    H123854   4.756   0.530   4.131 -0.7815  2.0818  0.0985
  813TIP3    H223855   4.768   0.466   3.995  0.5832 -1.6145  1.8233
  814TIP3   OH223856   5.026   2.031   6.856  0.1965 -0.8167  0.2347
  814TIP3    H123857   5.009   1.949   6.809  0.7352  0.1451 -1.7413
  814TIP3    H223858   5.110   2.018   6.898 -0.4079 -1.7885  1.1968
  815TIP3   OH223859   1.659   0.814  13.799  0.3148  0.3658 -0.2916
  815TIP3    H123860   1.706   0.842  13.878  1.3519  1.4550 -1.2462
  815TIP3    H223861   1.608   0.738  13.826  1.0430  0.4129  1.2944
  816TIP3   OH223862   1.353   2.643   5.382 -0.2706  0.1082  0.2969
  816TIP3    H123863   1.443   2.613   5.382 -0.8257 -1.6455  0.5771
  816TIP3    H223864   1.331   2.652   5.475  0.1310  2.3281  0.2454
  817TIP3   OH223865   3.398   0.872  15.046 -0.0574 -0.3058 -0.0053
  817TIP3    H123866   3.333   0.884  14.978  0.7843  0.2739 -0.7304
  817TIP3    H223867   3.482   0.879  15.001  0.5646  1.5173  1.2908
  818TIP3   OH223868   1.154   4.256   4.059  0.2861  0.0219  0.2664
  818TIP3    H123869   1.179   4.168   4.087  0.4421 -0.9724 -2.6408
  818TIP3    H223870   1.059   4.254   4.052  0.2072  0.4148  1.0953
  819TIP3   OH223871   4.532   2.342   3.273 -0.1717 -0.3361  0.2344
  819TIP3    H123872   4.488   2.258   3.260 -3.0367  1.2582 -1.3647
  819TIP3    H223873   4.561   2.368   3.186  2.1824 -0.3605  0.9599
  820TIP3   OH223874   6.402   3.676   1.473 -0.4478 -0.0255 -0.3956
  820TIP3    H123875   6.389   3.595   1.423 -2.3554  0.5380 -0.8949
  820TIP3    H223876   6.315   3.714   1.479  0.6271  2.8844 -1.6362
  821TIP3   OH223877   0.457   6.530   6.451 -0.2407  0.6373  0.2590
  821TIP3    H123878   0.516   6.606   6.446  2.1222 -1.1356 -1.0328
  821TIP3    H223879   0.370   6.567   6.439  0.8722  3.0693 -1.2329
  822TIP3   OH223880   1.134   6.321  14.623 -0.2459  0.0748 -0.0421
  822TIP3    H123881   1.164   6.412  14.614 -1.9089  0.6217 -0.5101
  822TIP3    H223882   1.205   6.268  14.587  1.8067  0.9902  2.3583
  823TIP3   OH223883   5.098   0.077  13.166  1.2379 -0.1552 -0.3753
  823TIP3    H123884   5.094  -0.014  13.194  0.1345 -0.4993 -1.5928
  823TIP3    H223885   5.104   0.074  13.071  0.5670  1.0511 -0.4848
  824TIP3   OH223886   2.476   4.873  11.166 -0.2397  0.0178  0.0234
  824TIP3    H123887   2.537   4.939  11.132 -1.1846  0.5573 -0.6712
  824TIP3    H223888   2.465   4.895  11.258  2.2397 -1.3682  0.7574
  825TIP3   OH223889   1.361   2.141  17.232  0.5327 -0.0227  0.0888
  825TIP3    H123890   1.297   2.077  17.202 -1.1537  1.5319  0.1584
  825TIP3    H223891   1.411   2.163  17.153 -1.1936  1.0690 -0.7705
  826TIP3   OH223892   6.738   5.310  14.816 -0.3215 -0.7520  0.4214
  826TIP3    H123893   6.821   5.356  14.823 -2.1226  3.2953 -1.3053
  826TIP3    H223894   6.751   5.248  14.744  1.2957 -0.4530  0.4213
  827TIP3   OH223895   2.319   0.777  14.452 -0.2786 -0.2280  0.2276
  827TIP3    H123896   2.293   0.860  14.412 -1.0013 -1.0374 -1.0351
  827TIP3    H223897   2.282   0.780  14.540  0.5849  1.2077  0.5772
  828TIP3   OH223898   3.382   2.153  12.133  0.7147  0.1778 -0.3337
  828TIP3    H123899   3.298   2.119  12.165  1.1830 -1.7141 -0.9503
  828TIP3    H223900   3.366   2.173  12.041  0.3756  1.9707  0.0894
  829TIP3   OH223901   0.489   3.008   4.586  0.0341  0.3115 -0.3255
  829TIP3    H123902   0.566   3.064   4.593 -0.6835  1.3233 -0.2987
  829TIP3    H223903   0.420   3.056   4.631 -0.2604 -1.2808  1.0139
  830TIP3   OH223904   5.369   2.771  11.148  0.0113 -0.1187 -0.1152
  830TIP3    H123905   5.457   2.752  11.181  0.1119  1.2988  0.5195
  830TIP3    H223906   5.323   2.810  11.223 -0.3165  1.5602 -1.1315
  831TIP3   OH223907   3.469   3.002  17.047 -0.3560  0.3115  0.6032
  831TIP3    H123908   3.559   3.018  17.075 -0.5313  1.1552  0.7078
  831TIP3    H223909   3.419   3.075  17.084 -1.3537 -0.9443  1.8403
  832TIP3   OH223910   3.589   2.702   3.802  0.0251 -0.1968 -0.2709
  832TIP3    H123911   3.595   2.623   3.855  1.2155  0.4547  0.6462
  832TIP3    H223912   3.644   2.766   3.849  0.3305  0.7033 -1.7756
  833TIP3   OH223913   0.243   1.444   5.743 -0.0479  0.1010 -0.8045
  833TIP3    H123914   0.306   1.386   5.699 -1.8024 -1.0405 -1.9081
  833TIP3    H223915   0.258   1.427   5.837 -0.3238 -1.9753 -1.0948
  834TIP3   OH223916   2.758   3.995   2.799 -0.1126  0.4366  0.0727
  834TIP3    H123917   2.828   3.978   2.862 -0.3707 -1.7574 -0.1459
  834TIP3    H223918   2.748   3.912   2.752  0.5930  2.1774 -3.4232
  835TIP3   OH223919   1.622   0.822   1.882 -0.5866  0.1516  0.6458
  835TIP3    H123920   1.591   0.867   1.961  0.7580  1.5896  0.4167
  835TIP3    H223921   1.717   0.825   1.889 -0.4343  0.3813 -1.0688
  836TIP3   OH223922   6.014   5.332   5.667  0.2689 -0.3519  0.2800
  836TIP3    H123923   5.938   5.319   5.723  1.2119 -0.6988  1.5315
  836TIP3    H223924   6.067   5.398   5.713  0.4570  0.3276 -0.8638
  837TIP3   OH223925   2.116   3.305   3.922 -0.5754 -0.4529  0.2467
  837TIP3    H123926   2.069   3.386   3.944 -1.9934 -1.2033  0.0983
  837TIP3    H223927   2.132   3.312   3.828  0.6182  0.2828  0.4745
  838TIP3   OH223928   2.625   2.198   5.253  0.3915  0.0194  0.5803
  838TIP3    H123929   2.693   2.229   5.193 -0.9581  0.0880 -0.9886
  838TIP3    H223930   2.578   2.131   5.203 -2.0563  1.5216  0.7426
  839TIP3   OH223931   3.695   2.388   1.945 -0.6477 -0.5010  0.1878
  839TIP3    H123932   3.735   2.475   1.941  0.5486 -1.0523 -0.4865
  839TIP3    H223933   3.606   2.403   1.977 -0.3390  0.9252  0.4148
  840TIP3   OH223934   4.607   1.001  12.591 -0.0896 -0.1225  0.2463
  840TIP3    H123935   4.563   1.083  12.567  1.3021  0.6718  0.2722
  840TIP3    H223936   4.700   1.019  12.576  0.2390 -1.7165  0.2460
  841TIP3   OH223937   4.078   1.287   3.347  0.0339 -0.1735  0.0073
  841TIP3    H123938   4.148   1.314   3.287 -0.1832 -0.7710 -0.5214
  841TIP3    H223939   4.125   1.263   3.427  0.6255 -1.9817 -0.8136
  842TIP3   OH223940   2.618   1.573  13.212 -0.5845 -0.0120  0.1082
  842TIP3    H123941   2.592   1.553  13.302  0.2617 -0.5084  0.2480
  842TIP3    H223942   2.559   1.644  13.185 -1.9558 -0.9820  0.4731
  843TIP3   OH223943   3.729   0.205  15.368  0.2954 -0.0965 -0.0150
  843TIP3    H123944   3.789   0.131  15.353 -0.0154 -0.3119 -0.2322
  843TIP3    H223945   3.644   0.163  15.383 -0.3924  0.2438 -2.4938
  844TIP3   OH223946   4.134   6.429   2.851  0.0630  0.5257  0.6483
  844TIP3    H123947   4.224   6.450   2.877 -0.0588 -0.3120  1.8406
  844TIP3    H223948   4.139   6.413   2.757  1.2980 -0.1794  0.8116
  845TIP3   OH223949   6.104   0.264   4.522 -0.4258 -0.2186  0.0644
  845TIP3    H123950   6.108   0.353   4.558 -0.9584  0.1752 -0.8278
  845TIP3    H223951   6.168   0.215   4.574 -1.1985  0.3166  1.5903
  846TIP3   OH223952   0.645   2.232  10.840 -0.0506  0.0955 -0.2234
  846TIP3    H123953   0.725   2.207  10.793  1.2737  0.2077  1.8706
  846TIP3    H223954   0.619   2.315  10.801  0.0459 -0.5928 -1.8393
  847TIP3   OH223955   1.914   2.406  13.971 -0.2201 -0.6476  0.1335
  847TIP3    H123956   1.948   2.317  13.967  0.3228 -0.3997 -1.9978
  847TIP3    H223957   1.891   2.419  14.063 -0.4869 -3.0328  0.4597
  848TIP3   OH223958   3.947   5.099  13.962  0.4460  0.0830 -0.8691
  848TIP3    H123959   4.000   5.178  13.970  1.3917 -0.6372  0.4845
  848TIP3    H223960   4.010   5.027  13.964 -0.4718 -0.7557 -0.8316
  849TIP3   OH223961   5.763   5.193  12.361 -0.1537  0.0873  0.1691
  849TIP3    H123962   5.699   5.183  12.432  1.1321 -1.3440  1.1816
  849TIP3    H223963   5.709   5.201  12.282 -1.6026  0.8211  1.1825
  850TIP3   OH223964   2.031   5.176  16.769  0.5646  0.8171 -0.2013
  850TIP3    H123965   2.001   5.091  16.802 -0.3066  0.6843 -1.2895
  850TIP3    H223966   2.012   5.174  16.675  1.3164  1.8887 -0.3942
  851TIP3   OH223967   6.125   5.637   6.216 -0.0342  0.1660 -0.1633
  851TIP3    H123968   6.187   5.618   6.145  0.4244 -2.6089  0.8561
  851TIP3    H223969   6.045   5.665   6.172  0.9827  0.8552 -1.6407
  852TIP3   OH223970   1.969   0.450   4.961  0.4089 -0.2397  0.1370
  852TIP3    H123971   1.999   0.398   5.036 -0.2835  0.5914  1.0143
  852TIP3    H223972   1.941   0.534   4.999  1.8503  0.9552 -1.2609
  853TIP3   OH223973   1.587   2.204   3.917 -0.2243 -0.2106 -0.4981
  853TIP3    H123974   1.538   2.129   3.883 -0.8214  0.2368 -0.6360
  853TIP3    H223975   1.616   2.176   4.004  1.2846 -1.3470 -1.3309
  854TIP3   OH223976   3.890   4.340  13.342 -0.2109 -0.1116  0.3710
  854TIP3    H123977   3.934   4.393  13.275  1.1431 -1.2885  0.2678
  854TIP3    H223978   3.940   4.259  13.344 -0.6739 -0.3949  2.3045
  855TIP3   OH223979   5.504   1.449  14.872 -0.0148  0.8177 -0.0638
  855TIP3    H123980   5.425   1.459  14.819  0.0731 -0.4295 -0.4843
  855TIP3    H223981   5.537   1.538  14.883 -1.1959  1.3087 -0.3072
  856TIP3   OH223982   1.283   1.198   5.704  0.0038 -0.0319  0.0245
  856TIP3    H123983   1.309   1.183   5.795 -0.0953  1.7784  0.3918
  856TIP3    H223984   1.277   1.111   5.666  1.4164 -0.7687  1.3756
  857TIP3   OH223985   5.995   3.194  12.177 -0.2735  0.3397  0.2176
  857TIP3    H123986   6.039   3.110  12.188  1.2912  1.2748  1.6759
  857TIP3    H223987   6.009   3.218  12.086  0.0908 -0.5297  0.0374
  858TIP3   OH223988   6.563   2.585   1.339  0.3197  0.2798  0.5727
  858TIP3    H123989   6.604   2.509   1.297  1.7267  0.8458  0.8395
  858TIP3    H223990   6.541   2.644   1.266  0.7622  0.3251  0.4707
  859TIP3   OH223991   3.652   6.674   5.922 -0.2633 -0.1001 -0.0846
  859TIP3    H123992   3.608   6.748   5.965 -0.5763 -0.4754  0.2400
  859TIP3    H223993   3.737   6.709   5.896 -1.3993  1.2380 -2.4039
  860TIP3   OH223994   1.820   4.441   4.714  0.1507  0.5930  0.0980
  860TIP3    H123995   1.862   4.523   4.742 -0.2475  1.1035 -0.7749
  860TIP3    H223996   1.768   4.465   4.638  0.5724 -0.6125 -0.6016
  861TIP3   OH223997   4.016   6.227  12.312  0.5917  0.1704 -0.2973
  861TIP3    H123998   4.093   6.285  12.311  0.5757  0.1810 -0.9909
  861TIP3    H223999   3.986   6.230  12.403 -0.5677  2.7888 -0.6730
  862TIP3   OH224000   6.359   0.727  13.570  0.3463  0.2197 -0.6399
  862TIP3    H124001   6.297   0.760  13.504 -0.2733  1.5134  0.5525
  862TIP3    H224002   6.445   0.736  13.529 -0.1282 -0.3471 -1.8091
  863TIP3   OH224003   6.460   1.123   6.293  0.0312 -0.1604 -0.9168
  863TIP3    H124004   6.484   1.052   6.353 -1.2668 -0.6712 -0.9806
  863TIP3    H224005   6.490   1.203   6.336  0.2083 -0.6311 -0.1654
  864TIP3   OH224006   1.981   1.693   3.832  0.0412 -0.3612  0.3797
  864TIP3    H124007   2.072   1.722   3.830 -0.6908  2.1325  0.0832
  864TIP3    H224008   1.983   1.603   3.800  2.3152 -0.1632 -0.1507
  865TIP3   OH224009   2.711   0.183   3.493 -0.4809 -0.1675  0.2126
  865TIP3    H124010   2.701   0.184   3.588 -0.5968 -0.5218  0.2087
  865TIP3    H224011   2.791   0.132   3.478  0.5867  1.4376  0.1837
  866TIP3   OH224012   4.780   3.360   1.030 -0.2801  0.3113 -0.2428
  866TIP3    H124013   4.768   3.348   1.124 -0.2921 -1.5256 -0.4465
  866TIP3    H224014   4.742   3.282   0.991  3.5200 -1.1103 -1.5213
  867TIP3   OH224015   1.919   6.610  15.479 -0.5550  0.2000  0.1792
  867TIP3    H124016   1.918   6.516  15.499  1.7121 -0.0969 -0.7191
  867TIP3    H224017   2.005   6.640  15.511 -1.5490  2.1711  1.1671
  868TIP3   OH224018   1.065   3.385   3.582 -0.1428 -0.0585 -0.4381
  868TIP3    H124019   1.071   3.374   3.677  1.5399  0.5476 -0.4396
  868TIP3    H224020   0.971   3.378   3.563 -0.6130  0.7041  1.3822
  869TIP3   OH224021   0.037   0.582  12.601  0.1056 -0.2113  0.5454
  869TIP3    H124022   0.052   0.609  12.511 -1.7662 -2.7527 -0.6437
  869TIP3    H224023   0.063   0.658  12.654 -2.6856  3.0388 -2.2771
  870TIP3   OH224024   0.466   4.700   2.559 -0.4732 -0.0227  0.1361
  870TIP3    H124025   0.553   4.716   2.595 -0.8186  0.6013  0.7192
  870TIP3    H224026   0.455   4.767   2.491  0.6541 -1.9353 -2.0563
  871TIP3   OH224027   0.655   5.960  12.242 -0.0985 -0.2492 -0.2025
  871TIP3    H124028   0.647   5.951  12.147 -0.9361  2.0992 -0.4133
  871TIP3    H224029   0.567   5.983  12.271  0.5794  1.1491  0.8397
  872TIP3   OH224030   5.784   2.946  16.050  0.3821 -0.3077  0.0585
  872TIP3    H124031   5.842   2.884  16.007  1.4324  0.7787 -0.1626
  872TIP3    H224032   5.726   2.977  15.981 -0.0531 -0.9351  0.1401
  873TIP3   OH224033   1.910   2.654   3.055  0.4245  0.7359  0.0534
  873TIP3    H124034   1.997   2.671   3.088  0.7429 -3.5521  2.1480
  873TIP3    H224035   1.851   2.696   3.117  1.1152 -1.9845  2.7842
  874TIP3   OH224036   6.648   0.841  15.850 -0.2359 -0.3375 -0.0340
  874TIP3    H124037   6.738   0.845  15.884 -0.8460  1.8666  1.5888
  874TIP3    H224038   6.647   0.905  15.780 -0.6485 -0.0168  0.2642
  875TIP3   OH224039   4.384   3.549  14.158 -0.0889 -0.0355 -0.7344
  875TIP3    H124040   4.401   3.635  14.120  1.8604 -0.2721 -0.4976
  875TIP3    H224041   4.316   3.565  14.223 -0.4981  1.1253 -1.4090
  876TIP3   OH224042   0.980   2.473   3.940 -0.4034  0.3239 -0.1615
  876TIP3    H124043   1.054   2.417   3.966 -0.2985  0.5366  0.0007
  876TIP3    H224044   0.903   2.421   3.961 -0.3201  0.5032  0.6089
  877TIP3   OH224045   3.615   2.875  11.277  0.1647  0.1095  0.5745
  877TIP3    H124046   3.524   2.899  11.257  0.4341  0.1520 -0.6893
  877TIP3    H224047   3.642   2.821  11.203  1.9237  2.0325 -0.2728
  878TIP3   OH224048   2.341   0.298   3.476  0.7734  0.5227  0.6538
  878TIP3    H124049   2.344   0.357   3.401  0.7241  0.9131  0.9555
  878TIP3    H224050   2.339   0.356   3.552 -1.8211  0.2224  0.9124
  879TIP3   OH224051   2.572   1.771   1.781 -0.2900 -0.0017  0.0689
  879TIP3    H124052   2.569   1.826   1.702 -1.2838  0.4767  0.4341
  879TIP3    H224053   2.623   1.822   1.844 -0.2442 -0.0003  0.0309
  880TIP3   OH224054   0.614   1.539  10.256 -0.5699  0.7577  0.7263
  880TIP3    H124055   0.645   1.627  10.236  0.4646  0.1586 -0.4055
  880TIP3    H224056   0.519   1.545  10.245 -0.4958  1.6815  0.4570
  881TIP3   OH224057   5.731   0.933  12.723  0.4340 -0.1297 -0.2243
  881TIP3    H124058   5.683   0.868  12.672  1.1016 -0.5927 -0.2698
  881TIP3    H224059   5.778   0.985  12.658 -0.1253  0.4274 -0.1909
  882TIP3   OH224060   1.365   3.891  16.551 -0.5275  0.1890  0.0792
  882TIP3    H124061   1.401   3.866  16.636  0.8160 -0.9047 -0.7726
  882TIP3    H224062   1.272   3.871  16.557 -0.3511 -0.3477  1.1287
  883TIP3   OH224063   2.789   3.688  14.152 -0.8243  0.0447  0.4321
  883TIP3    H124064   2.712   3.638  14.176 -0.4188 -0.0653  1.5615
  883TIP3    H224065   2.791   3.685  14.056 -1.9043 -0.4046  0.4135
  884TIP3   OH224066   5.301   3.402   4.126  0.0888 -0.0372 -0.0738
  884TIP3    H124067   5.251   3.338   4.075 -0.5179  0.0456  0.4037
  884TIP3    H224068   5.235   3.465   4.156 -0.2397 -1.9246  3.7005
  885TIP3   OH224069   4.999   2.234  15.583  0.0482 -0.2170  0.6593
  885TIP3    H124070   5.061   2.162  15.587  0.5166  0.1355 -0.0144
  885TIP3    H224071   4.953   2.231  15.667 -1.5125 -2.6634 -0.1929
  886TIP3   OH224072   5.722   4.307  11.698  0.6109  0.1944  0.6695
  886TIP3    H124073   5.757   4.288  11.785  0.7796 -2.0261  0.1826
  886TIP3    H224074   5.786   4.269  11.638  0.2373  1.2393 -0.4286
  887TIP3   OH224075   3.853   3.975  12.235  0.3509  0.2158  0.0326
  887TIP3    H124076   3.786   3.927  12.187 -0.0689  0.7835  0.0373
  887TIP3    H224077   3.822   3.975  12.326  1.9409 -2.2867  0.6916
  888TIP3   OH224078   6.674   2.415  15.256 -0.5902  0.4752 -0.0122
  888TIP3    H124079   6.734   2.418  15.182 -0.8523 -0.7092 -0.2992
  888TIP3    H224080   6.604   2.356  15.228 -0.9405  0.3885  0.9932
  889TIP3   OH224081   5.141   3.052  10.935  0.1557  0.9117  0.1467
  889TIP3    H124082   5.082   2.990  10.978  0.2899  0.0294 -0.9326
  889TIP3    H224083   5.108   3.138  10.962 -2.0898  0.4675 -0.9989
  890TIP3   OH224084   4.577   4.391  10.618 -0.6663 -0.0833 -0.4923
  890TIP3    H124085   4.507   4.333  10.648 -2.4834  1.3689 -1.7440
  890TIP3    H224086   4.553   4.477  10.653  0.8345  0.3493 -0.4618
  891TIP3   OH224087   4.802   3.471  14.109  0.9401 -0.1264 -0.1251
  891TIP3    H124088   4.727   3.504  14.158  1.0872 -0.7954  0.5768
  891TIP3    H224089   4.801   3.376  14.125  1.2249 -0.3066 -1.1024
  892TIP3   OH224090   5.688   6.772   0.980 -0.3598 -0.3728 -0.1519
  892TIP3    H124091   5.752   6.702   0.972 -0.6772 -1.0268  2.2072
  892TIP3    H224092   5.646   6.776   0.894  1.2154 -1.5134 -1.0248
  893TIP3   OH224093   6.729   1.017   1.309 -0.1324 -0.3238  0.6418
  893TIP3    H124094   6.766   1.072   1.240  2.2694 -0.9791  1.3106
  893TIP3    H224095   6.709   1.078   1.380 -0.9236  0.1266  0.0363
  894TIP3   OH224096   3.398   3.241  11.647  0.0201 -0.2851 -0.4876
  894TIP3    H124097   3.317   3.254  11.597 -0.5109  1.3435  0.6772
  894TIP3    H224098   3.454   3.314  11.621 -1.0962  1.9612  2.6588
  895TIP3   OH224099   2.111   2.473  14.378  0.1669 -0.5530 -0.0446
  895TIP3    H124100   2.150   2.534  14.441  1.6728 -2.7882  1.3194
  895TIP3    H224101   2.022   2.506  14.365  1.4148  2.9629 -0.8615
  896TIP3   OH224102   2.644   4.266  11.828 -0.8094  0.0606  0.0388
  896TIP3    H124103   2.661   4.183  11.873  0.3564  1.1307  1.6505
  896TIP3    H224104   2.727   4.290  11.788 -1.1225  0.4989 -0.3635
  897TIP3   OH224105   0.994   1.042  16.747  0.0946  0.3605 -0.0294
  897TIP3    H124106   0.984   1.133  16.721  0.2119  0.6477  0.9180
  897TIP3    H224107   0.959   1.038  16.836  1.4294 -0.2008  0.4913
  898TIP3   OH224108   0.711   6.382   0.062  0.3437  0.3653  0.0100
  898TIP3    H124109   0.797   6.391   0.103  1.2645  1.9131 -2.1012
  898TIP3    H224110   0.696   6.287   0.057  2.0293  0.0620  0.2104
  899TIP3   OH224111   3.462   3.601   5.818  0.6603 -0.5491  0.0535
  899TIP3    H124112   3.518   3.591   5.895  0.8125 -0.9655 -0.1050
  899TIP3    H224113   3.380   3.636   5.852 -0.0579 -2.7363  0.7496
  900TIP3   OH224114   2.227   4.722  14.794 -0.8316 -0.0639 -0.3587
  900TIP3    H124115   2.154   4.763  14.747 -0.7806  0.5956  0.1203
  900TIP3    H224116   2.244   4.781  14.868 -1.2337 -1.3443  0.7860
  901TIP3   OH224117   4.359   5.133  16.697  0.7877 -0.1745  0.0067
  901TIP3    H124118   4.303   5.113  16.772  1.1520 -0.5703  0.1783
  901TIP3    H224119   4.376   5.048  16.657  0.8979 -0.0054 -0.3068
  902TIP3   OH224120   1.756   3.763  14.105  0.0665 -0.0171  0.2049
  902TIP3    H124121   1.824   3.830  14.091  1.0320 -0.5618  1.9365
  902TIP3    H224122   1.793   3.684  14.066  0.4517 -0.3084  1.1264
  903TIP3   OH224123   4.533   5.877   1.406  0.1234 -0.0309 -0.2981
  903TIP3    H124124   4.595   5.951   1.406  0.3521 -0.2081 -1.1731
  903TIP3    H224125   4.588   5.800   1.401 -0.1560 -0.1552 -2.4866
  904TIP3   OH224126   2.164   2.584  11.062  0.3023  0.9322 -0.2031
  904TIP3    H124127   2.144   2.548  10.976 -2.2020  0.2976  0.5778
  904TIP3    H224128   2.244   2.539  11.089  0.2441  0.0009 -1.5174
  905TIP3   OH224129   6.774   6.122  14.059 -0.3294  0.2263  0.2926
  905TIP3    H124130   6.690   6.167  14.069  0.4484  1.1942  3.4146
  905TIP3    H224131   6.839   6.191  14.060  0.6327 -0.6457  0.0743
  906TIP3   OH224132   2.070   6.355  15.088 -0.1399 -0.1921  0.0370
  906TIP3    H124133   1.979   6.333  15.069  0.0169 -0.3154 -0.5762
  906TIP3    H224134   2.076   6.449  15.071  0.0027 -0.3042 -0.5542
  907TIP3   OH224135   5.657   3.366  14.724  0.7100 -0.3067  0.2006
  907TIP3    H124136   5.573   3.406  14.745  0.0162 -1.0388 -1.1169
  907TIP3    H224137   5.713   3.387  14.799 -0.3948  0.8872  0.7157
  908TIP3   OH224138   2.806   4.660  15.541 -0.2482 -0.1654 -0.2938
  908TIP3    H124139   2.749   4.646  15.617 -1.9857  4.1592 -0.4849
  908TIP3    H224140   2.752   4.640  15.466  0.1920 -0.8036 -0.4455
  909TIP3   OH224141   4.561   0.635  17.074  0.5172 -0.2740 -0.0840
  909TIP3    H124142   4.635   0.685  17.106  0.9469 -1.2535  0.5054
  909TIP3    H224143   4.595   0.546  17.063 -0.5038 -0.6950  0.0054
  910TIP3   OH224144   2.347   4.374   1.176  0.2078  0.6341 -0.4978
  910TIP3    H124145   2.346   4.392   1.082  0.2357 -0.1157 -0.6474
  910TIP3    H224146   2.435   4.399   1.204  0.3144  0.5292 -0.7366
  911TIP3   OH224147   1.487   2.982  14.424 -0.0702  0.4568 -0.2292
  911TIP3    H124148   1.542   3.031  14.486  0.7005 -0.3067 -0.2867
  911TIP3    H224149   1.398   2.997  14.454  0.2064  1.1693  0.2782
  912TIP3   OH224150   5.753   4.828  13.416  0.4653 -0.0233 -0.4488
  912TIP3    H124151   5.721   4.747  13.457 -3.1043  2.1162  1.5067
  912TIP3    H224152   5.820   4.861  13.475  1.8870 -1.3990 -1.2181
  913TIP3   OH224153   3.171   1.787   5.160 -0.6383  0.7251  0.6774
  913TIP3    H124154   3.178   1.757   5.250 -1.6020  2.9588  1.5749
  913TIP3    H224155   3.078   1.800   5.145 -0.9203 -2.8709 -1.8905
  914TIP3   OH224156   0.652   4.457  15.046 -0.2737 -0.5504 -0.0197
  914TIP3    H124157   0.697   4.439  14.963 -0.5659 -2.6547  0.2268
  914TIP3    H224158   0.561   4.474  15.021  0.0132  0.7273 -0.2617
  915TIP3   OH224159   3.864   2.708   5.972  0.1774 -0.0229  0.1130
  915TIP3    H124160   3.858   2.626   5.924 -0.0420 -0.1990  0.4401
  915TIP3    H224161   3.785   2.756   5.947  0.5414  0.3002 -0.4566
  916TIP3   OH224162   3.430   4.204   5.103 -0.6799  0.1610  0.5077
  916TIP3    H124163   3.406   4.191   5.012  0.7635 -1.7135  0.3153
  916TIP3    H224164   3.524   4.221   5.101 -0.3112 -1.4507  1.6878
  917TIP3   OH224165   3.586   3.042  11.646 -0.3155  0.3230 -0.4717
  917TIP3    H124166   3.528   3.117  11.655 -1.5705 -0.6251 -0.4328
  917TIP3    H224167   3.674   3.078  11.658 -0.8151  1.9284 -1.3170
  918TIP3   OH224168   1.787   1.735   4.079  0.3744  0.1212  0.7241
  918TIP3    H124169   1.879   1.736   4.104  0.2447  0.2106  1.2033
  918TIP3    H224170   1.787   1.762   3.987  0.8351 -0.0167  0.6824
  919TIP3   OH224171   0.857   1.835   1.164 -0.4070 -0.2919 -0.5364
  919TIP3    H124172   0.939   1.826   1.213  2.0202  3.7464 -3.1897
  919TIP3    H224173   0.793   1.865   1.228  1.3370  0.3118  1.0041
  920TIP3   OH224174   5.161   0.044   4.460 -0.7588 -0.2580 -0.3407
  920TIP3    H124175   5.133   0.023   4.550 -0.1351  0.7643  0.1136
  920TIP3    H224176   5.227  -0.022   4.439 -1.0526 -0.6241 -0.1183
  921TIP3   OH224177   3.235   1.104   3.063 -0.7815 -0.7720  0.1849
  921TIP3    H124178   3.265   1.138   3.148 -0.2263 -0.4513 -0.1360
  921TIP3    H224179   3.274   1.162   2.998  0.5363 -2.2556 -0.4052
  922TIP3   OH224180   3.937   0.893   6.339  0.1582  0.2567 -0.0914
  922TIP3    H124181   3.997   0.955   6.380 -0.5056  1.3057 -0.6518
  922TIP3    H224182   3.940   0.915   6.246  1.2765 -1.7677 -0.5724
  923TIP3   OH224183   6.728   4.171   3.221  0.5693 -0.3700  0.0347
  923TIP3    H124184   6.793   4.106   3.194  0.2656 -0.9549  0.6799
  923TIP3    H224185   6.769   4.215   3.296  0.6562 -0.0088 -0.2227
  924TIP3   OH224186   2.335   6.202   2.824  0.0178  0.2525 -0.6269
  924TIP3    H124187   2.320   6.286   2.868  1.6089  0.3981 -0.3084
  924TIP3    H224188   2.358   6.226   2.734 -0.4503  0.1023 -0.7875
  925TIP3   OH224189   3.836   2.107   5.937 -0.0108 -0.1806 -0.3418
  925TIP3    H124190   3.884   2.138   5.860  0.8875 -2.5355 -0.8076
  925TIP3    H224191   3.886   2.141   6.011 -1.1705  2.5521 -0.6744
  926TIP3   OH224192   4.037   3.802   0.790  0.0250 -0.0672  0.5165
  926TIP3    H124193   4.073   3.873   0.843 -0.0568 -0.0157  0.5030
  926TIP3    H224194   4.037   3.836   0.701 -0.9664  0.3019  0.6405
  927TIP3   OH224195   2.123   0.280  16.017  0.2470  0.3733 -0.6673
  927TIP3    H124196   2.194   0.332  15.979  1.1534  1.1742  1.9693
  927TIP3    H224197   2.047   0.300  15.962  1.6543  0.7380 -2.5872
  928TIP3   OH224198   0.221   6.057  14.756  0.2347 -0.1807  0.3112
  928TIP3    H124199   0.220   5.981  14.815 -0.8984  0.4640  1.1398
  928TIP3    H224200   0.266   6.125  14.806  1.4646 -0.3359 -0.5230
  929TIP3   OH224201   0.351   0.275   3.492 -0.0201  0.2738 -0.8035
  929TIP3    H124202   0.326   0.289   3.401 -0.5777  3.7702 -0.2789
  929TIP3    H224203   0.274   0.235   3.533  0.1842 -1.1845 -1.7853
  930TIP3   OH224204   1.960   4.906   1.120 -0.1266 -0.8720 -0.3499
  930TIP3    H124205   2.012   4.898   1.040  0.4259 -1.6269  0.0660
  930TIP3    H224206   1.920   4.993   1.115  2.0626  0.2094 -0.1546
  931TIP3   OH224207   4.306   4.332  11.116 -0.4123  0.6270 -0.3399
  931TIP3    H124208   4.300   4.252  11.065 -2.7663  0.6477 -0.2365
  931TIP3    H224209   4.393   4.330  11.156  1.0873  0.0499 -3.3489
  932TIP3   OH224210   6.422   1.831   0.788  0.2765  0.7548 -0.3312
  932TIP3    H124211   6.481   1.853   0.716  1.2256  0.6821  0.3906
  932TIP3    H224212   6.363   1.765   0.753  1.7009 -0.4098 -0.6199
  933TIP3   OH224213   6.780   4.445  15.523  0.0639 -0.1393  0.2869
  933TIP3    H124214   6.796   4.529  15.566 -0.1522 -0.4156  0.9143
  933TIP3    H224215   6.858   4.393  15.542  0.3797  0.0473 -0.4441
  934TIP3   OH224216   1.428   5.073   4.006  0.3163  0.1924 -0.0225
  934TIP3    H124217   1.434   5.168   4.017 -0.7054  0.6014 -2.3474
  934TIP3    H224218   1.414   5.039   4.094  0.9231  2.1652  0.8959
  935TIP3   OH224219   1.213   3.827   3.471 -0.4928  0.1373  0.0165
  935TIP3    H124220   1.217   3.915   3.434  1.2380  0.3237  0.5592
  935TIP3    H224221   1.295   3.817   3.518 -1.7464 -0.8474  2.1179
  936TIP3   OH224222   2.399   4.331   4.754 -0.0648 -0.7758  0.2940
  936TIP3    H124223   2.319   4.358   4.709  0.0047 -1.0287  0.0120
  936TIP3    H224224   2.380   4.343   4.847 -0.6738 -1.4936  0.2713
  937TIP3   OH224225   3.209   3.544  14.228  0.2736 -0.0248  0.5339
  937TIP3    H124226   3.283   3.503  14.273  0.4223 -1.0996 -0.6337
  937TIP3    H224227   3.133   3.493  14.256  0.2028  0.0804  0.5307
  938TIP3   OH224228   5.696   2.214   4.523 -0.4545 -0.4545  0.2464
  938TIP3    H124229   5.704   2.208   4.428 -0.4419 -0.9117  0.2751
  938TIP3    H224230   5.714   2.126   4.555 -0.7006 -0.3610  0.6584
  939TIP3   OH224231   5.426   2.546   2.093  0.2892  0.3549 -0.0326
  939TIP3    H124232   5.385   2.491   2.160  0.5584  0.7225  0.4395
  939TIP3    H224233   5.520   2.525   2.099  0.4169  0.9861  0.2749
  940TIP3   OH224234   2.849   1.121   4.530 -0.3784 -0.4183 -0.2187
  940TIP3    H124235   2.866   1.062   4.457  0.1707  0.9642 -1.2488
  940TIP3    H224236   2.917   1.188   4.524 -1.8976  1.2141 -0.0562
  941TIP3   OH224237   6.196   6.093   5.545  0.3533  0.1037  0.1620
  941TIP3    H124238   6.238   6.033   5.608  1.7461 -0.1205 -0.9256
  941TIP3    H224239   6.146   6.035   5.487  0.5197  0.1251 -0.0051
  942TIP3   OH224240   6.354   4.707  12.804 -0.4610 -0.0176  0.0237
  942TIP3    H124241   6.357   4.643  12.732  0.6655  1.4770 -1.3398
  942TIP3    H224242   6.296   4.776  12.772  2.3141  2.1138 -0.8410
  943TIP3   OH224243   5.550   0.990   2.713 -0.3398 -0.1055 -0.1202
  943TIP3    H124244   5.626   0.964   2.661  0.2443 -1.3058  1.2601
  943TIP3    H224245   5.553   1.086   2.714  0.5645 -0.1188 -0.9275
  944TIP3   OH224246   3.560   0.002  13.208  0.0081  0.1063 -0.1890
  944TIP3    H124247   3.482  -0.049  13.187 -1.2968  1.4354  1.1624
  944TIP3    H224248   3.620  -0.061  13.249 -0.8561 -0.6959 -0.1441
  945TIP3   OH224249   5.949   2.257  15.830  0.2077 -0.7355  0.1075
  945TIP3    H124250   5.995   2.176  15.807  4.1565  1.3876 -0.3270
  945TIP3    H224251   5.945   2.306  15.748 -2.5848 -0.5887  0.2556
  946TIP3   OH224252   3.736   5.948  12.711  0.0175 -0.2840  0.2660
  946TIP3    H124253   3.805   5.888  12.740  0.1606 -0.2293  0.0369
  946TIP3    H224254   3.736   6.018  12.777  0.7526  0.1527 -0.1880
  947TIP3   OH224255   1.059   4.714   2.723  0.8305  0.4835  0.2946
  947TIP3    H124256   1.006   4.794   2.728  3.2594  2.1665  1.0944
  947TIP3    H224257   1.118   4.720   2.798  0.0906 -2.9185  1.3084
  948TIP3   OH224258   2.884   2.183  12.807 -0.3541 -0.3006  0.8106
  948TIP3    H124259   2.956   2.244  12.793 -0.4307 -0.7523 -2.0492
  948TIP3    H224260   2.925   2.098  12.819 -0.3747 -0.2889  0.9730
  949TIP3   OH224261   4.926   2.004  13.480  0.4870 -0.2389  0.7604
  949TIP3    H124262   4.899   1.945  13.410 -0.2654 -1.7137  2.2311
  949TIP3    H224263   4.845   2.045  13.509  0.7427  0.1074  0.9916
  950TIP3   OH224264   5.191   4.896  15.150 -0.3904 -0.1713 -0.5901
  950TIP3    H124265   5.108   4.944  15.151  0.2315  0.9607  1.4071
  950TIP3    H224266   5.168   4.807  15.176 -0.9950  0.0855 -0.2311
  951TIP3   OH224267   0.995   4.960  12.084  0.1648 -0.0899  0.2416
  951TIP3    H124268   0.999   5.025  12.014 -1.2796 -2.0961 -1.8827
  951TIP3    H224269   1.063   4.896  12.061  0.2412 -0.3576  1.1691
  952TIP3   OH224270   0.714   5.731   5.949 -0.1014  0.5758  0.1247
  952TIP3    H124271   0.734   5.661   6.011  0.3587 -0.1648 -0.8510
  952TIP3    H224272   0.738   5.811   5.996  0.7901 -0.0027  0.6879
  953TIP3   OH224273   5.955   3.629   4.184 -0.1619  0.3640 -0.3980
  953TIP3    H124274   5.865   3.598   4.175  0.7237 -2.8072  0.5620
  953TIP3    H224275   5.998   3.604   4.103  0.5817 -1.0688  0.4032
  954TIP3   OH224276   6.292   6.117  14.667 -0.3047 -0.2974  0.0159
  954TIP3    H124277   6.353   6.059  14.711  0.1202  0.0528 -0.0997
  954TIP3    H224278   6.345   6.162  14.601 -0.8828 -0.6495 -0.7049
  955TIP3   OH224279   6.167   2.979   1.025 -0.2861  0.2106  0.1053
  955TIP3    H124280   6.232   2.986   1.095  1.0296  1.2886 -1.1763
  955TIP3    H224281   6.139   3.069   1.010 -0.4549  0.0068 -0.8428
  956TIP3   OH224282   6.596   0.590   2.179 -0.6441 -0.1749 -0.5172
  956TIP3    H124283   6.604   0.544   2.262 -0.3676  1.7432  0.5904
  956TIP3    H224284   6.681   0.580   2.137  0.2019  1.1416  0.7597
  957TIP3   OH224285   2.609   4.142  14.864  0.6740  0.2646 -0.4998
  957TIP3    H124286   2.602   4.112  14.773  0.4374 -1.8112  0.1653
  957TIP3    H224287   2.519   4.164  14.889  0.3913 -1.1890 -0.1459
  958TIP3   OH224288   1.389   4.601   5.137 -0.4805  0.6632  0.3000
  958TIP3    H124289   1.419   4.523   5.090 -0.7307 -0.1850  1.5031
  958TIP3    H224290   1.331   4.567   5.205  2.2260  1.4729  3.2432
  959TIP3   OH224291   0.366   4.272   1.546  0.5531  0.1766  0.4792
  959TIP3    H124292   0.318   4.333   1.601  2.2220  0.2944  1.8892
  959TIP3    H224293   0.365   4.189   1.594 -0.1663 -0.4626 -0.5763
  960TIP3   OH224294   6.565   1.248  12.026  0.0966  0.0841  0.5493
  960TIP3    H124295   6.507   1.324  12.026  1.0962  1.0462 -3.0985
  960TIP3    H224296   6.628   1.265  12.096  0.2155  2.6157 -0.0779
  961TIP3   OH224297   1.057   3.639  16.345  0.1994 -0.1476 -0.1626
  961TIP3    H124298   1.003   3.673  16.274 -0.1058 -0.6245 -0.1651
  961TIP3    H224299   1.109   3.569  16.304 -1.5235 -1.9195  0.5062
  962TIP3   OH224300   4.048   5.050   5.052 -0.1322 -0.1737 -0.5706
  962TIP3    H124301   3.954   5.058   5.040 -0.5876 -2.5648  0.6483
  962TIP3    H224302   4.066   5.095   5.134 -0.0225  1.0110 -1.2183
  963TIP3   OH224303   6.624   5.578   4.286 -0.6080  0.4318 -0.7911
  963TIP3    H124304   6.613   5.532   4.369 -1.4972 -0.9490 -1.6281
  963TIP3    H224305   6.624   5.671   4.309 -0.8675  0.0774  0.7361
  964TIP3   OH224306   1.904   0.635   3.995  0.1019 -0.4892 -0.1086
  964TIP3    H124307   1.997   0.626   4.014 -0.2484 -1.9268  1.1747
  964TIP3    H224308   1.865   0.659   4.079 -0.8025 -0.9531 -0.3838
  965TIP3   OH224309   5.267   5.056  17.020  0.0691  1.3003  0.4278
  965TIP3    H124310   5.313   5.030  17.099 -2.8756 -0.5528  1.7262
  965TIP3    H224311   5.291   4.990  16.955 -1.3016 -0.2035  1.3702
  966TIP3   OH224312   4.531   2.667   0.207 -0.4859  0.0513  0.4899
  966TIP3    H124313   4.539   2.676   0.302  0.7826  0.4102  0.3753
  966TIP3    H224314   4.573   2.746   0.173 -0.1713 -0.4797 -0.3749
  967TIP3   OH224315   6.566   2.199  13.453 -0.2979 -0.2390  0.2014
  967TIP3    H124316   6.546   2.237  13.538 -1.0804 -0.1607 -0.0087
  967TIP3    H224317   6.547   2.106  13.464 -1.4613 -0.0658 -0.1851
  968TIP3   OH224318   1.570   1.631   2.503 -0.2319 -0.7964 -0.2978
  968TIP3    H124319   1.620   1.669   2.431  0.4409 -0.6797  0.2137
  968TIP3    H224320   1.510   1.569   2.462 -0.7620  0.2016 -1.0701
  969TIP3   OH224321   4.398   0.318  14.405 -0.0514  0.5162 -0.1757
  969TIP3    H124322   4.406   0.412  14.386 -0.4575  0.9445  1.6095
  969TIP3    H224323   4.458   0.303  14.477  0.9196 -0.8954 -1.2259
  970TIP3   OH224324   4.866   2.220   6.943  0.0684 -0.1776 -0.3706
  970TIP3    H124325   4.937   2.159   6.924 -1.5878 -1.6456 -2.3500
  970TIP3    H224326   4.786   2.168   6.934 -1.3044  1.3087  2.1206
  971TIP3   OH224327   0.358   5.643   0.969 -0.2922  0.2530 -0.3784
  971TIP3    H124328   0.270   5.606   0.971 -1.2962  2.5087  2.4637
  971TIP3    H224329   0.350   5.722   0.916 -0.6041  1.6718  1.6823
  972TIP3   OH224330   4.016   3.532  14.957  0.2603 -0.2972  0.1419
  972TIP3    H124331   4.094   3.522  14.903 -0.9988  1.9634 -2.3092
  972TIP3    H224332   4.029   3.615  15.003 -0.6757  0.1279 -0.3363
  973TIP3   OH224333   1.857   4.077  11.340 -0.3344  0.0501 -0.5174
  973TIP3    H124334   1.807   4.028  11.275 -0.9229 -2.7404  1.8240
  973TIP3    H224335   1.922   4.014  11.372 -0.1522  1.2415  1.6537
  974TIP3   OH224336   4.475   6.398   4.179  0.5019 -0.3007 -0.3147
  974TIP3    H124337   4.536   6.436   4.116  1.0173  0.4324  0.6015
  974TIP3    H224338   4.411   6.351   4.125  0.4365  1.0149 -1.4422
  975TIP3   OH224339   3.998   2.662  15.524 -0.1678  0.5728 -0.2863
  975TIP3    H124340   4.009   2.728  15.455  0.7014  1.5754  0.7793
  975TIP3    H224341   4.078   2.610  15.520  0.0801  0.9119  0.2558
  976TIP3   OH224342   2.199   5.399   3.111  0.5823  0.3181 -0.3008
  976TIP3    H124343   2.152   5.316   3.118  0.9364  0.1902  0.7511
  976TIP3    H224344   2.235   5.399   3.023 -0.7643  0.0823 -0.8794
  977TIP3   OH224345   1.016   5.930   6.258  0.2278 -0.3465  0.2054
  977TIP3    H124346   0.946   5.929   6.192  0.4753 -1.0341 -0.0503
  977TIP3    H224347   1.006   5.847   6.305  0.2573 -0.0035  0.8267
  978TIP3   OH224348   4.764   1.707   6.626  0.9080 -0.1996 -0.3694
  978TIP3    H124349   4.725   1.717   6.539 -1.3986 -0.7099  0.5348
  978TIP3    H224350   4.698   1.659   6.677  1.7348  0.9578  1.9476
  979TIP3   OH224351   3.631   5.810   5.472  0.1141  0.2564 -0.1154
  979TIP3    H124352   3.660   5.807   5.563 -0.4666 -0.9806  0.0388
  979TIP3    H224353   3.558   5.872   5.473 -0.8668 -0.8796  0.5643
  980TIP3   OH224354   2.645   2.450   2.276  0.2284 -0.2170  0.1061
  980TIP3    H124355   2.637   2.527   2.331  0.0928 -1.1657  1.4789
  980TIP3    H224356   2.711   2.396   2.320 -1.1649 -1.8066  0.3461
  981TIP3   OH224357   4.597   3.371   4.676  0.1065  0.3761  0.5609
  981TIP3    H124358   4.595   3.309   4.749  0.3779  0.4114  0.6018
  981TIP3    H224359   4.650   3.444   4.708  0.8182  0.0844  0.0937
  982TIP3   OH224360   6.400   0.256  13.076  0.2744  0.2337  0.1890
  982TIP3    H124361   6.379   0.333  13.023 -4.1694 -1.2577 -0.6680
  982TIP3    H224362   6.450   0.200  13.018 -0.5365  0.5616 -0.8590
  983TIP3   OH224363   2.580   2.716  14.560 -0.5068  0.5925  0.5303
  983TIP3    H124364   2.637   2.789  14.585 -0.4837  1.2905 -1.4189
  983TIP3    H224365   2.496   2.757  14.540 -0.7551 -0.0361  0.2566
  984TIP3   OH224366   1.422   1.384   2.371 -0.6108  0.0448 -0.2482
  984TIP3    H124367   1.326   1.381   2.364 -0.6042 -3.6961 -0.6289
  984TIP3    H224368   1.450   1.420   2.287 -1.6477  0.8551 -0.2749
  985TIP3   OH224369   3.490   6.351   4.602  0.3691  0.0858 -0.9203
  985TIP3    H124370   3.506   6.258   4.621  1.2292  0.3958 -0.0339
  985TIP3    H224371   3.578   6.387   4.587  0.2323  1.1500  0.6722
  986TIP3   OH224372   3.924   5.237  12.557 -0.4273  0.2700 -0.8010
  986TIP3    H124373   3.830   5.258  12.555 -0.5476  0.3892  2.2938
  986TIP3    H224374   3.929   5.147  12.525 -1.9003 -0.5233  1.0563
  987TIP3   OH224375   5.092   1.630  14.094  0.6576 -0.4146 -0.6293
  987TIP3    H124376   5.081   1.600  14.184 -0.9158  1.2331 -0.2152
  987TIP3    H224377   5.085   1.551  14.041 -0.5147 -1.1615  0.5719
  988TIP3   OH224378   4.638   6.227   2.119 -0.2673 -0.0768  0.0698
  988TIP3    H124379   4.673   6.284   2.050  2.6151 -0.5050  1.0152
  988TIP3    H224380   4.569   6.177   2.076 -3.0562  4.0283 -0.7888
  989TIP3   OH224381   0.630   6.599   6.655  0.5124 -0.1078  0.9272
  989TIP3    H124382   0.672   6.540   6.594  1.1968  0.6133  0.6862
  989TIP3    H224383   0.553   6.632   6.608  0.6492 -0.0898  0.7167
  990TIP3   OH224384   3.233   4.418  10.596  0.3137 -0.1349 -0.2913
  990TIP3    H124385   3.240   4.504  10.557 -0.6853 -0.0693 -0.3492
  990TIP3    H224386   3.148   4.419  10.641  0.1989 -1.1543 -0.4687
  991TIP3   OH224387   5.298   5.097   0.931  0.1041  0.0415 -0.3459
  991TIP3    H124388   5.278   5.183   0.967  1.0266 -0.1043  0.5794
  991TIP3    H224389   5.390   5.103   0.903  0.5201 -0.9517  0.7338
  992TIP3   OH224390   3.180   1.185   3.991 -0.1089  0.3097  0.3883
  992TIP3    H124391   3.112   1.154   4.051  0.0904  1.1989  1.0977
  992TIP3    H224392   3.244   1.227   4.048  0.7764 -0.0372 -0.3279
  993TIP3   OH224393   3.931   5.497   2.965 -0.1495  0.3195 -0.2127
  993TIP3    H124394   3.883   5.512   3.046 -1.7970  0.0607 -1.1059
  993TIP3    H224395   4.019   5.474   2.994 -0.8574 -0.3798  1.5310
  994TIP3   OH224396   6.383   3.539   1.823  0.2914  0.1840 -0.0193
  994TIP3    H124397   6.388   3.635   1.820 -1.6640  0.2954 -2.0370
  994TIP3    H224398   6.298   3.521   1.862  0.5980 -0.7528  0.2371
  995TIP3   OH224399   0.288   4.429  16.624  0.1895  0.0723 -0.6791
  995TIP3    H124400   0.255   4.448  16.712  0.7608  0.5770 -0.5694
  995TIP3    H224401   0.382   4.440  16.631  0.5044 -2.0351 -0.7983
  996TIP3   OH224402   0.592   2.137  12.586 -0.6672 -0.9678  0.4816
  996TIP3    H124403   0.587   2.045  12.613  2.1167 -0.8979  1.5090
  996TIP3    H224404   0.608   2.133  12.492 -2.8622 -1.4152  0.0749
  997TIP3   OH224405   4.104   4.030   0.948  0.0742  0.1208  0.1641
  997TIP3    H124406   4.054   4.092   0.895  2.5133  0.2109 -2.2013
  997TIP3    H224407   4.133   4.082   1.023  0.2149  1.2319 -0.6295
  998TIP3   OH224408   6.142   2.855  12.805 -0.3316 -0.1406  0.8181
  998TIP3    H124409   6.227   2.825  12.774 -0.6733 -0.3692  0.0642
  998TIP3    H224410   6.099   2.775  12.836 -0.0716  0.0560  1.7187
  999TIP3   OH224411   5.637   6.388   2.616 -0.0937  1.1307  0.3349
  999TIP3    H124412   5.559   6.347   2.578  0.4230  1.1517 -0.7834
  999TIP3    H224413   5.710   6.350   2.567  0.5330  1.8802  0.6649
 1000TIP3   OH224414   5.708   2.261  13.068  0.1584 -0.4709 -0.4154
 1000TIP3    H124415   5.779   2.269  13.005  1.8359 -1.1921  1.2943
 1000TIP3    H224416   5.724   2.331  13.131 -1.2773  0.0026 -0.5371
 1001TIP3   OH224417   2.148   6.468  11.049  0.0502  0.1409  0.6079
 1001TIP3    H124418   2.096   6.414  10.990  1.5489 -0.5770 -0.1057
 1001TIP3    H224419   2.102   6.552  11.053 -1.2389 -0.5208  0.1615
 1002TIP3   OH224420   5.158   0.167  16.223 -0.4543  0.1262 -0.0184
 1002TIP3    H124421   5.179   0.097  16.284 -0.5103 -0.6978 -0.9139
 1002TIP3    H224422   5.066   0.187  16.240 -0.4950 -0.1602  0.0957
 1003TIP3   OH224423   2.196   0.401   5.464 -0.0925  0.1640 -0.0479
 1003TIP3    H124424   2.206   0.365   5.376 -1.4409  0.3507 -0.2919
 1003TIP3    H224425   2.176   0.326   5.519  1.1670 -0.0180  0.2107
 1004TIP3   OH224426   6.788   5.048   4.133 -0.1872 -0.3737  0.9512
 1004TIP3    H124427   6.787   4.973   4.074 -0.9875 -1.6611  2.5434
 1004TIP3    H224428   6.825   5.015   4.214 -0.2498  1.0511  1.5941
 1005TIP3   OH224429   0.112   3.861   0.195 -0.6164 -0.3693 -0.0062
 1005TIP3    H124430   0.156   3.785   0.233 -1.0504 -0.9140 -0.5549
 1005TIP3    H224431   0.170   3.888   0.123 -1.3438 -1.3340 -0.9842
 1006TIP3   OH224432   3.222   5.686   2.271 -0.2231  0.1530  1.2781
 1006TIP3    H124433   3.297   5.630   2.256 -1.4277 -0.9707 -1.0278
 1006TIP3    H224434   3.246   5.770   2.232 -0.7328 -0.7084 -1.0181
 1007TIP3   OH224435   1.592   5.273  13.934 -0.4950 -0.2906  0.5653
 1007TIP3    H124436   1.613   5.366  13.941 -0.2191  0.0889 -3.2433
 1007TIP3    H224437   1.674   5.228  13.956  0.3176  0.5607 -0.6082
 1008TIP3   OH224438   5.558   5.116   4.555  0.7365  0.3608 -0.1448
 1008TIP3    H124439   5.508   5.046   4.597  0.6403  0.9293  0.6999
 1008TIP3    H224440   5.506   5.195   4.569  0.9838  0.6534 -0.8419
 1009TIP3   OH224441   5.030   1.921   5.239  0.5024  0.1624 -0.4614
 1009TIP3    H124442   5.031   1.841   5.186  0.4529  0.7470 -1.3547
 1009TIP3    H224443   4.948   1.964   5.218  1.4854  1.5577 -1.6952
 1010TIP3   OH224444   1.643   6.576  13.325  0.0292  0.5059 -0.1746
 1010TIP3    H124445   1.710   6.592  13.392 -2.0399  1.1878  1.8404
 1010TIP3    H224446   1.585   6.510  13.363 -1.1153  0.7757 -1.3654
 1011TIP3   OH224447   0.787   3.248  16.966  0.3255  0.0243  0.1930
 1011TIP3    H124448   0.858   3.184  16.968 -1.0004 -1.5119  1.0934
 1011TIP3    H224449   0.793   3.288  16.879  1.2998 -1.2329 -0.3538
 1012TIP3   OH224450   0.608   4.651   3.336  0.6240 -0.1881 -0.0241
 1012TIP3    H124451   0.619   4.679   3.427  3.2862 -1.5587  0.1851
 1012TIP3    H224452   0.694   4.666   3.296 -0.0079 -1.1813 -1.8690
 1013TIP3   OH224453   1.470   4.387   0.387  0.2834  0.1769  0.0265
 1013TIP3    H124454   1.515   4.373   0.471 -0.9117  2.1414  1.0827
 1013TIP3    H224455   1.385   4.345   0.399  0.7509 -1.1284 -0.9428
 1014TIP3   OH224456   0.641   5.448  11.911  0.0704 -0.0310 -0.1528
 1014TIP3    H124457   0.572   5.514  11.908 -0.3485 -0.4402  0.2550
 1014TIP3    H224458   0.723   5.497  11.905 -0.2235  0.5651  0.6625
 1015TIP3   OH224459   2.696   4.352   0.305 -1.0362  0.5212  0.1949
 1015TIP3    H124460   2.721   4.378   0.216 -1.3661  1.3944  0.3438
 1015TIP3    H224461   2.772   4.372   0.359 -1.1878  0.9484  0.2613
 1016TIP3   OH224462   3.035   6.447  15.522 -0.3811 -0.0749  0.3868
 1016TIP3    H124463   3.066   6.358  15.537  0.9210  0.6407  2.1721
 1016TIP3    H224464   2.942   6.443  15.545 -0.6816 -1.2396 -0.8576
 1017TIP3   OH224465   1.944   5.313  15.486  0.0867  0.5212 -0.3428
 1017TIP3    H124466   2.021   5.354  15.525  1.0508 -0.0110 -1.6458
 1017TIP3    H224467   1.951   5.331  15.393 -2.3047  1.9690 -0.3412
 1018TIP3   OH224468   2.799   2.094   4.552  0.0410 -0.0913  0.3307
 1018TIP3    H124469   2.791   2.036   4.628 -0.9740 -0.8475 -0.3269
 1018TIP3    H224470   2.711   2.128   4.538  0.4548  0.9715  0.1875
 1019TIP3   OH224471   5.153   6.025  11.541 -0.0696 -0.3407 -0.2788
 1019TIP3    H124472   5.173   6.116  11.562 -0.0347 -0.2019 -0.8991
 1019TIP3    H224473   5.081   6.003  11.601  0.0955  0.0065  0.0564
 1020TIP3   OH224474   6.416   6.542  14.165 -0.7522 -0.3641  0.8474
 1020TIP3    H124475   6.383   6.526  14.254 -1.9305 -1.0909  0.2975
 1020TIP3    H224476   6.341   6.528  14.108 -0.0288  0.1636 -0.2794
 1021TIP3   OH224477   1.029   1.783   0.314 -0.1345  0.5825  0.1494
 1021TIP3    H124478   1.090   1.733   0.260 -1.2078  0.4396 -0.9964
 1021TIP3    H224479   1.036   1.744   0.401 -1.3835 -2.0930 -0.8224
 1022TIP3   OH224480   2.998   6.283   5.574 -0.0686  0.2091 -0.0492
 1022TIP3    H124481   3.033   6.243   5.653  1.4538  2.9543  0.7891
 1022TIP3    H224482   2.915   6.238   5.559 -0.7111 -0.0321  3.4688
 1023TIP3   OH224483   0.728   4.355   1.183  0.0332 -0.2320 -0.3998
 1023TIP3    H124484   0.786   4.398   1.246 -0.0814 -2.7388  1.5556
 1023TIP3    H224485   0.658   4.318   1.237 -0.6143 -1.6356 -2.1247
 1024TIP3   OH224486   4.685   4.118  11.045  0.2056  0.2342 -0.3410
 1024TIP3    H124487   4.623   4.059  11.088  1.2678  0.3346  1.4274
 1024TIP3    H224488   4.638   4.200  11.034 -0.6190 -0.3028 -0.9459
 1025TIP3   OH224489   3.914   6.761   2.137 -0.1693  0.0569  0.2865
 1025TIP3    H124490   3.955   6.757   2.050 -0.9109  2.3932 -0.2543
 1025TIP3    H224491   3.839   6.701   2.131 -0.7111  0.8232 -1.0077
 1026TIP3   OH224492   4.066   5.901   5.369 -0.1019  0.1061  0.1285
 1026TIP3    H124493   4.072   5.873   5.278 -0.8193 -2.1453  0.7150
 1026TIP3    H224494   4.007   5.976   5.368  0.2536  0.3964 -1.2885
 1027TIP3   OH224495   3.730   0.023   6.200 -0.8527 -0.0659 -0.2896
 1027TIP3    H124496   3.668  -0.033   6.246 -1.1800  0.3212 -0.2528
 1027TIP3    H224497   3.745   0.096   6.260  1.3991 -1.2516  0.7071
 1028TIP3   OH224498   6.338   3.838   3.326  0.0718  0.2294  0.3769
 1028TIP3    H124499   6.258   3.857   3.277  1.0562  0.5035 -1.2131
 1028TIP3    H224500   6.379   3.766   3.278  0.1022 -0.8934  2.0007
 1029TIP3   OH224501   0.361   5.516  13.656  0.3796  0.2456  0.3452
 1029TIP3    H124502   0.435   5.458  13.674 -0.0041 -0.2285  0.3802
 1029TIP3    H224503   0.308   5.470  13.591  0.7883  1.1497 -0.6773
 1030TIP3   OH224504   6.428   4.040   3.779 -0.0937  0.4651  0.0431
 1030TIP3    H124505   6.460   3.966   3.830 -1.0201 -0.8589 -1.2029
 1030TIP3    H224506   6.344   4.010   3.744 -0.6160  2.2185 -0.2779
 1031TIP3   OH224507   0.329   3.089   5.297 -0.6517  0.1143 -0.2272
 1031TIP3    H124508   0.239   3.094   5.330 -0.5780 -3.2907  0.8487
 1031TIP3    H224509   0.322   3.033   5.220  0.5778 -0.4780  0.0751
 1032TIP3   OH224510   4.640   6.229  17.125  0.4234  0.3266 -0.0334
 1032TIP3    H124511   4.634   6.177  17.205 -0.1677  0.2355 -0.1308
 1032TIP3    H224512   4.705   6.183  17.071 -0.0118 -0.2526 -0.0725
 1033TIP3   OH224513   3.336   5.329   2.439 -0.1178  0.3271  0.5153
 1033TIP3    H124514   3.271   5.343   2.371 -1.6318 -0.7351  1.6885
 1033TIP3    H224515   3.336   5.410   2.489 -0.0183  0.5841  0.1070
 1034TIP3   OH224516   2.789   6.469   4.011  0.4657  0.2453  0.4315
 1034TIP3    H124517   2.763   6.524   4.085  0.3274 -1.2104  1.5147
 1034TIP3    H224518   2.714   6.470   3.952  0.2994  0.8610  0.6552
 1035TIP3   OH224519   0.819   1.637  10.897  0.0103 -0.1496  0.1955
 1035TIP3    H124520   0.908   1.663  10.872 -0.2460  0.3615 -0.2264
 1035TIP3    H224521   0.763   1.695  10.845 -0.6089 -1.7953 -1.0748
 1036TIP3   OH224522   0.132   4.286  15.001 -0.5117 -0.2762  0.6058
 1036TIP3    H124523   0.041   4.305  15.025 -0.3779  1.3820 -0.0544
 1036TIP3    H224524   0.176   4.370  15.006  1.1884 -1.1760  1.6378
 1037TIP3   OH224525   3.663   4.264  12.665 -0.0259  0.1656 -0.1323
 1037TIP3    H124526   3.707   4.179  12.661 -0.4748 -0.0573 -0.6095
 1037TIP3    H224527   3.660   4.292  12.573 -1.9705 -0.4165 -0.2942
 1038TIP3   OH224528   0.771   5.494  16.563  0.6604 -0.5554  0.2158
 1038TIP3    H124529   0.846   5.472  16.618  0.3584  0.1708  0.9405
 1038TIP3    H224530   0.732   5.571  16.605 -0.0137 -0.4332 -0.6052
 1039TIP3   OH224531   4.790   0.416  16.414  0.2320 -0.1961 -0.4914
 1039TIP3    H124532   4.808   0.488  16.353 -0.6630 -0.1460 -0.6987
 1039TIP3    H224533   4.793   0.337  16.360  0.7885 -0.2838 -0.3412
 1040TIP3   OH224534   6.456   4.245   0.376  0.6612  0.3346  0.4374
 1040TIP3    H124535   6.445   4.339   0.358  1.2236  0.3069 -0.0629
 1040TIP3    H224536   6.399   4.202   0.311  1.0140  0.3080  0.1406
 1041TIP3   OH224537   0.713   6.556  11.403  0.1737 -0.1503 -0.3853
 1041TIP3    H124538   0.769   6.580  11.329 -1.6453 -0.3561 -1.9303
 1041TIP3    H224539   0.649   6.627  11.408 -1.2199 -1.3374 -0.6552
 1042TIP3   OH224540   1.242   2.341   3.274 -0.1851  0.3676  0.8057
 1042TIP3    H124541   1.324   2.381   3.247  0.5265 -0.9047  1.0232
 1042TIP3    H224542   1.238   2.355   3.369 -0.8986  1.6102  0.6139
 1043TIP3   OH224543   3.078   5.695  15.244 -0.3734 -0.1464 -0.6071
 1043TIP3    H124544   3.096   5.602  15.261 -1.7315 -0.4756 -0.8102
 1043TIP3    H224545   3.091   5.705  15.150  1.9784  0.4418 -0.2967
 1044TIP3   OH224546   6.560   5.204  16.882 -0.1661  0.0140  0.2678
 1044TIP3    H124547   6.628   5.244  16.828 -0.6584 -0.6906 -0.9022
 1044TIP3    H224548   6.594   5.116  16.901 -0.3934 -0.0492  0.3786
 1045TIP3   OH224549   5.059   5.881   6.529  0.3886 -0.6428  0.2456
 1045TIP3    H124550   5.012   5.870   6.611 -0.0090 -0.5853  0.0266
 1045TIP3    H224551   5.146   5.913   6.555 -0.4964  1.6907  0.5140
 1046TIP3   OH224552   2.510   1.588  13.468 -0.2969  0.4630  0.1150
 1046TIP3    H124553   2.546   1.675  13.482 -0.0461  0.7322 -1.8868
 1046TIP3    H224554   2.551   1.534  13.536 -0.0287  1.7578  1.0308
 1047TIP3   OH224555   4.346   2.870   4.123  0.2913  0.2694 -0.0485
 1047TIP3    H124556   4.351   2.829   4.209  2.3660 -1.9506 -1.1109
 1047TIP3    H224557   4.348   2.964   4.140  2.2108 -0.1196  2.2902
 1048TIP3   OH224558   0.186   4.584   4.851  0.5766 -0.3921  0.1374
 1048TIP3    H124559   0.111   4.589   4.910 -0.0302  0.3471 -0.6590
 1048TIP3    H224560   0.187   4.670   4.807  2.0819 -0.2667  0.3615
 1049TIP3   OH224561   1.818   6.460   1.131 -0.3301  0.9269 -0.2704
 1049TIP3    H124562   1.751   6.430   1.069 -0.0312  1.2576 -0.7622
 1049TIP3    H224563   1.857   6.537   1.089  1.7798 -0.4460 -0.9654
 1050TIP3   OH224564   2.213   4.089  12.060 -0.0320  0.2275  1.0236
 1050TIP3    H124565   2.152   4.105  12.132 -1.2847 -0.5948  0.1777
 1050TIP3    H224566   2.216   4.172  12.012  0.5243  0.6627  1.7836
 1051TIP3   OH224567   6.432   1.172  14.346  0.2568 -0.6889 -0.8409
 1051TIP3    H124568   6.367   1.140  14.409  0.7660 -0.0760  0.0140
 1051TIP3    H224569   6.506   1.112  14.354  0.5134 -0.3299 -0.5039
 1052TIP3   OH224570   6.041   5.554  13.691 -0.2315 -0.3769 -0.0479
 1052TIP3    H124571   6.068   5.645  13.702  0.7454 -0.7094  0.4869
 1052TIP3    H224572   6.054   5.536  13.598 -0.2672 -0.0251 -0.1227
 1053TIP3   OH224573   2.918   4.715  13.599  0.0470  0.3220  0.0226
 1053TIP3    H124574   2.828   4.699  13.570  0.2674 -0.9061 -0.0473
 1053TIP3    H224575   2.915   4.800  13.643 -0.7064  1.3076 -1.8364
 1054TIP3   OH224576   6.652   3.193  16.274  0.3684 -0.5620 -0.6336
 1054TIP3    H124577   6.745   3.196  16.250  0.4319 -1.6063 -0.5706
 1054TIP3    H224578   6.639   3.104  16.309 -0.9052 -0.8080 -1.6646
 1055TIP3   OH224579   4.154   0.620  15.274 -0.1260  0.1382 -0.3580
 1055TIP3    H124580   4.220   0.607  15.206 -0.1840 -0.6273 -0.2737
 1055TIP3    H224581   4.159   0.542  15.328 -0.1418  0.7089  0.4819
 1056TIP3   OH224582   1.946   4.501  13.787  0.5209 -0.2664 -0.7215
 1056TIP3    H124583   1.981   4.502  13.699  0.3369 -1.7056 -0.8455
 1056TIP3    H224584   1.910   4.588  13.800  1.3751  0.2545 -1.7165
 1057TIP3   OH224585   4.669   1.644   0.210  0.3415  0.7369 -0.0248
 1057TIP3    H124586   4.706   1.557   0.225  2.2166  1.4933  0.0332
 1057TIP3    H224587   4.615   1.633   0.132 -0.2310 -0.6805  0.5376
 1058TIP3   OH224588   4.752   6.647  15.617  0.1859 -0.3796 -0.2842
 1058TIP3    H124589   4.826   6.591  15.639 -0.5891 -1.9906 -1.5637
 1058TIP3    H224590   4.700   6.649  15.698  0.7729 -0.6339  0.1067
 1059TIP3   OH224591   1.692   4.321  17.173  0.2930 -0.2476  0.3666
 1059TIP3    H124592   1.754   4.323  17.246  0.5449 -0.6769  0.1691
 1059TIP3    H224593   1.729   4.382  17.108 -0.1502  0.4571  0.7651
 1060TIP3   OH224594   3.333   1.069  16.700 -0.5662  0.0274  0.0760
 1060TIP3    H124595   3.405   1.006  16.702  0.2519  0.8664 -1.3641
 1060TIP3    H224596   3.274   1.040  16.770 -0.7175 -2.8825 -1.1087
 1061TIP3   OH224597   5.990   2.823   1.199 -0.3057 -0.6106  0.2510
 1061TIP3    H124598   5.896   2.830   1.185 -0.4043 -3.2247 -0.9049
 1061TIP3    H224599   6.028   2.874   1.127 -0.8415 -0.4002  0.1099
 1062TIP3   OH224600   4.849   2.917  11.285  0.1817 -0.5599 -0.0769
 1062TIP3    H124601   4.792   2.890  11.213 -0.0645  0.2511 -0.2019
 1062TIP3    H224602   4.876   2.835  11.327 -0.0308 -1.0168 -0.8148
 1063TIP3   OH224603   5.298   4.602  15.711  0.5969  0.2364 -0.5845
 1063TIP3    H124604   5.212   4.643  15.710  0.6662  0.4585  0.6847
 1063TIP3    H224605   5.296   4.544  15.787  1.0592 -0.9229 -1.4185
 1064TIP3   OH224606   0.253   4.862   3.282  0.2170 -0.2827 -0.2166
 1064TIP3    H124607   0.232   4.944   3.238 -0.4345  0.2283  0.9880
 1064TIP3    H224608   0.331   4.882   3.335  0.1434 -0.4782 -0.0325
 1065TIP3   OH224609   3.197   4.238   3.940 -0.0798  0.3583 -0.0140
 1065TIP3    H124610   3.257   4.283   3.999  1.4732 -0.9070 -0.5743
 1065TIP3    H224611   3.151   4.309   3.895  1.8576  1.4134 -0.4412
 1066TIP3   OH224612   0.889   4.077  11.934 -0.3745 -0.3813  0.4901
 1066TIP3    H124613   0.970   4.025  11.938 -1.5474 -2.2462  1.3612
 1066TIP3    H224614   0.819   4.012  11.938 -1.9511  1.1483 -0.7236
 1067TIP3   OH224615   4.889   0.454  15.925  0.1320 -0.6616 -0.5887
 1067TIP3    H124616   4.873   0.449  15.831 -0.5132 -0.8188 -0.4715
 1067TIP3    H224617   4.859   0.370  15.959 -0.5447 -0.2358 -0.1115
 1068TIP3   OH224618   2.359   0.681  12.786  0.2737 -0.8036 -0.1236
 1068TIP3    H124619   2.380   0.593  12.816  0.8263 -0.6603 -0.0895
 1068TIP3    H224620   2.416   0.738  12.837 -0.3880 -0.3857  0.1679
 1069TIP3   OH224621   2.955   2.530   3.780 -0.6285  0.2959  0.3787
 1069TIP3    H124622   2.892   2.461   3.802 -0.4282  0.5084  1.7492
 1069TIP3    H224623   2.996   2.552   3.864  0.6480  0.7758 -0.3423
 1070TIP3   OH224624   3.603   2.813   2.884 -0.2864 -0.2780 -0.3395
 1070TIP3    H124625   3.510   2.834   2.887 -0.3755 -0.6326 -0.5642
 1070TIP3    H224626   3.638   2.847   2.966 -1.4399 -4.0780  1.9735
 1071TIP3   OH224627   6.732   2.271   3.467  0.4524 -0.2441 -0.2234
 1071TIP3    H124628   6.651   2.319   3.484  0.0733 -1.1845  0.6879
 1071TIP3    H224629   6.705   2.199   3.409  0.5043 -0.9029  0.5494
 1072TIP3   OH224630   0.763   5.965  15.535 -0.3999 -0.0661  0.1771
 1072TIP3    H124631   0.777   6.043  15.588 -1.8303  1.8457 -2.0995
 1072TIP3    H224632   0.687   5.922  15.575 -0.2279  0.2453  0.8490
 1073TIP3   OH224633   2.617   2.236  16.479  0.1563 -0.4756  0.1531
 1073TIP3    H124634   2.626   2.312  16.421  3.0387 -0.0384  0.9691
 1073TIP3    H224635   2.565   2.268  16.553  0.7844  0.5365  0.1781
 1074TIP3   OH224636   6.652   6.156  15.085  0.5006 -0.4959  0.1569
 1074TIP3    H124637   6.720   6.194  15.141  0.3467 -0.5002  0.3475
 1074TIP3    H224638   6.579   6.218  15.091  0.3002 -0.7512  0.3556
 1075TIP3   OH224639   3.205   6.580  15.857  0.3361 -0.0068  0.9473
 1075TIP3    H124640   3.117   6.543  15.855  1.1247 -1.9738  0.7554
 1075TIP3    H224641   3.203   6.645  15.927 -1.1814 -0.2011  1.1061
 1076TIP3   OH224642   2.376   0.480   3.658 -1.2561 -0.3673 -0.0319
 1076TIP3    H124643   2.291   0.476   3.702 -0.9196 -2.1012  0.5171
 1076TIP3    H224644   2.396   0.574   3.654 -1.7925 -0.0614  2.6073
 1077TIP3   OH224645   2.529   2.309   0.349 -0.7614  0.0775 -0.2323
 1077TIP3    H124646   2.536   2.400   0.322  0.7710  0.1153  0.2213
 1077TIP3    H224647   2.605   2.266   0.310 -0.2485 -0.5265  1.3634
 1078TIP3   OH224648   5.139   5.266  17.123  0.0021  0.0706 -0.5712
 1078TIP3    H124649   5.186   5.204  17.067  0.3335 -0.2847  0.0841
 1078TIP3    H224650   5.057   5.223  17.143  0.8848 -0.9197  1.2039
 1079TIP3   OH224651   3.812   4.086   3.319  0.2154 -0.1258  0.5171
 1079TIP3    H124652   3.782   4.004   3.357  1.2193  0.2047  2.1142
 1079TIP3    H224653   3.761   4.153   3.364  0.2445  0.2045  0.0691
 1080TIP3   OH224654   2.696   1.121   3.112  1.1409  0.0049 -0.3001
 1080TIP3    H124655   2.699   1.207   3.153  0.8797  1.2228 -2.6747
 1080TIP3    H224656   2.607   1.090   3.129  1.1192  0.3714  0.2602
 1081TIP3   OH224657   2.033   0.399  14.896  0.1061  0.2013 -0.2978
 1081TIP3    H124658   2.058   0.307  14.908  1.1378  0.3966 -0.8436
 1081TIP3    H224659   1.950   0.407  14.943  0.0602 -0.9789 -0.1362
 1082TIP3   OH224660   0.836   1.963  10.871 -0.3812  0.1221 -0.3701
 1082TIP3    H124661   0.796   2.019  10.805 -0.1509  1.3916  0.5455
 1082TIP3    H224662   0.884   1.897  10.820  0.5966  1.6402 -1.4948
 1083TIP3   OH224663   2.173   6.025   4.062 -0.2929  0.3744 -0.7684
 1083TIP3    H124664   2.258   6.067   4.071 -0.5911  1.0886 -1.1514
 1083TIP3    H224665   2.181   5.971   3.983 -0.5851  1.4707 -1.5750
 1084TIP3   OH224666   2.670   4.052  14.230 -0.4529 -0.2206 -0.8257
 1084TIP3    H124667   2.654   3.970  14.182 -1.5239 -0.0283 -0.8190
 1084TIP3    H224668   2.598   4.109  14.205  0.0493  0.5772 -0.4891
 1085TIP3   OH224669   0.416   3.884  13.531 -0.6690 -0.2888 -1.0438
 1085TIP3    H124670   0.445   3.815  13.471  0.0708 -0.6489 -0.2824
 1085TIP3    H224671   0.496   3.912  13.576 -1.5749 -2.1631  2.0310
 1086TIP3   OH224672   0.782   3.717  11.310 -0.5967 -0.6217  0.2887
 1086TIP3    H124673   0.787   3.812  11.296 -0.9745 -0.8409 -1.5866
 1086TIP3    H224674   0.705   3.706  11.366 -1.2255  0.1086 -0.4015
 1087TIP3   OH224675   5.194   2.393  14.041 -0.2878  0.3763 -0.1627
 1087TIP3    H124676   5.175   2.302  14.021  0.8344  0.0303  0.2815
 1087TIP3    H224677   5.191   2.437  13.956 -0.2988 -0.1747 -0.4502
 1088TIP3   OH224678   5.189   2.541   4.208 -0.0931 -0.0965 -0.3068
 1088TIP3    H124679   5.099   2.562   4.184 -0.9270  0.2520  2.7877
 1088TIP3    H224680   5.236   2.624   4.201 -0.6950  0.3481  0.7857
 1089TIP3   OH224681   4.897   0.161  13.364 -0.6124  0.4166  0.2941
 1089TIP3    H124682   4.938   0.161  13.277  0.1175  0.0287  0.6217
 1089TIP3    H224683   4.840   0.084  13.364 -1.0076  0.7107 -0.0198
 1090TIP3   OH224684   2.462   5.738  11.493  0.1074  0.0718 -0.2169
 1090TIP3    H124685   2.419   5.662  11.455 -0.7063  0.8122 -0.8109
 1090TIP3    H224686   2.494   5.788  11.417 -2.1475  1.9265 -0.0605
 1091TIP3   OH224687   0.511   5.386  15.216 -0.1887  0.0915 -0.5895
 1091TIP3    H124688   0.584   5.398  15.276 -1.5234 -0.6835  1.2723
 1091TIP3    H224689   0.437   5.361  15.272 -1.1647 -2.0967 -2.6500
 1092TIP3   OH224690   4.374   0.003   4.227 -0.1519 -0.5187 -0.0831
 1092TIP3    H124691   4.326  -0.003   4.145 -0.4793 -1.0942  0.1388
 1092TIP3    H224692   4.466  -0.010   4.202 -0.4093 -2.5656 -0.1798
 1093TIP3   OH224693   1.831   3.119   1.123 -0.1123 -0.5381  0.2800
 1093TIP3    H124694   1.862   3.104   1.212 -1.8050  0.0974  1.0053
 1093TIP3    H224695   1.839   3.214   1.110  0.3326 -0.6508 -0.3421
 1094TIP3   OH224696   2.948   1.314   5.221 -0.2104  0.4300 -0.0299
 1094TIP3    H124697   3.028   1.353   5.186 -0.3901  2.1599  1.3642
 1094TIP3    H224698   2.880   1.379   5.204 -1.1415 -0.5690 -0.2540
 1095TIP3   OH224699   2.590   5.724   0.310  0.5187  0.1871  0.3805
 1095TIP3    H124700   2.589   5.682   0.396 -2.1896  0.3878  0.5294
 1095TIP3    H224701   2.536   5.667   0.255  0.4663  1.1600 -0.6201
 1096TIP3   OH224702   2.723   5.324  13.184  0.3359 -0.6826  0.5739
 1096TIP3    H124703   2.660   5.252  13.195  1.3044 -1.2788  2.7928
 1096TIP3    H224704   2.688   5.395  13.237 -0.0581  0.1525 -0.7518
 1097TIP3   OH224705   6.745   0.914   2.070  0.2880 -0.7051  0.3612
 1097TIP3    H124706   6.812   0.949   2.012  0.8741  0.2657  1.5685
 1097TIP3    H224707   6.663   0.947   2.035  0.5625 -0.6809 -0.2770
 1098TIP3   OH224708   4.461   6.201   2.388 -0.4387  0.3103  0.3838
 1098TIP3    H124709   4.545   6.163   2.363 -1.2863 -1.4916  0.0923
 1098TIP3    H224710   4.468   6.217   2.482 -0.3979 -1.6451  0.7482
 1099TIP3   OH224711   4.198   2.685  11.742  0.4400 -0.5603  0.2297
 1099TIP3    H124712   4.128   2.750  11.734  0.2786 -0.3367  2.6226
 1099TIP3    H224713   4.278   2.734  11.721 -0.0066 -0.6723 -1.9509
 1100TIP3   OH224714   3.073   3.075  15.302 -0.2039  0.5618 -0.6512
 1100TIP3    H124715   3.060   3.096  15.395  0.4073 -1.1888 -0.1229
 1100TIP3    H224716   3.137   3.139  15.272  0.2064  0.6582  0.3674
 1101TIP3   OH224717   4.793   5.736  15.177  0.2670  0.1108  0.2006
 1101TIP3    H124718   4.733   5.792  15.226 -1.4459 -1.4878  0.0667
 1101TIP3    H224719   4.773   5.755  15.085  0.9385  0.5450  0.1435
 1102TIP3   OH224720   1.796   0.951  16.347 -0.7770 -0.4399  0.5390
 1102TIP3    H124721   1.791   1.043  16.322 -0.5551 -0.5788 -0.0358
 1102TIP3    H224722   1.806   0.952  16.442 -2.0916  0.0951  0.6970
 1103TIP3   OH224723   6.289   3.958   1.864  0.4062  0.4858 -0.4285
 1103TIP3    H124724   6.269   3.951   1.957 -0.2648 -1.6710 -0.6700
 1103TIP3    H224725   6.216   4.008   1.827  0.0337  0.2763  0.0176
 1104TIP3   OH224726   3.578   1.034  14.659  0.4508 -0.0638  0.8225
 1104TIP3    H124727   3.482   1.024  14.664  0.5202 -1.7442 -0.3937
 1104TIP3    H224728   3.592   1.103  14.594  0.0489 -1.5362 -0.9065
 1105TIP3   OH224729   1.800   4.176  13.195  0.1425 -0.2724 -0.1859
 1105TIP3    H124730   1.883   4.193  13.240  0.7749 -0.2827 -1.3177
 1105TIP3    H224731   1.813   4.212  13.107 -0.4741 -1.7161 -0.8920
 1106TIP3   OH224732   5.298   1.129   6.076  0.0236  0.0172  0.0105
 1106TIP3    H124733   5.390   1.104   6.086  0.1289 -1.3163 -3.2326
 1106TIP3    H224734   5.297   1.186   5.999 -1.5050  2.9161  1.9799
 1107TIP3   OH224735   3.400   3.800   1.509  0.4519  0.0196  0.2140
 1107TIP3    H124736   3.436   3.888   1.499  0.3021  0.2717  1.6464
 1107TIP3    H224737   3.477   3.742   1.507  0.7396  0.3571  1.0674
 1108TIP3   OH224738   4.679   5.647  13.623 -0.1507  0.1697  1.0002
 1108TIP3    H124739   4.691   5.660  13.718  0.4156  1.9529  0.7254
 1108TIP3    H224740   4.592   5.609  13.615 -0.1314 -0.1927  2.2505
 1109TIP3   OH224741   2.445   0.279  16.367 -0.0485 -0.5944  0.2185
 1109TIP3    H124742   2.360   0.299  16.405 -0.6514  0.6289 -1.6411
 1109TIP3    H224743   2.492   0.362  16.367  1.2605 -1.2826  1.3730
 1110TIP3   OH224744   3.419   4.951   0.640 -0.2113 -0.2463 -0.0423
 1110TIP3    H124745   3.359   4.894   0.591  0.6329 -0.5992 -0.6813
 1110TIP3    H224746   3.382   4.953   0.728 -0.9644 -0.7529 -0.3296
 1111TIP3   OH224747   2.296   2.876  11.076  0.2473  0.5698  0.3498
 1111TIP3    H124748   2.330   2.848  10.991 -0.6193  0.4478  0.0398
 1111TIP3    H224749   2.346   2.824  11.140 -0.2912 -0.6194 -0.1565
 1112TIP3   OH224750   3.688   2.282   1.355 -0.0740 -0.4164 -0.2282
 1112TIP3    H124751   3.773   2.255   1.390  0.6270  1.0293 -0.7597
 1112TIP3    H224752   3.624   2.242   1.415  1.0400  1.2234  2.2240
 1113TIP3   OH224753   1.015   1.470  12.627 -0.3405 -0.0109  0.3556
 1113TIP3    H124754   0.992   1.511  12.544 -1.8192  0.2386  0.8669
 1113TIP3    H224755   0.943   1.411  12.647  0.1428 -0.3084  1.3048
 1114TIP3   OH224756   6.532   1.672  14.712 -0.2299  0.0983 -0.2461
 1114TIP3    H124757   6.476   1.642  14.640 -4.1959  2.4548  1.5284
 1114TIP3    H224758   6.593   1.733  14.670 -1.2044  0.0014 -1.9062
 1115TIP3   OH224759   0.093   5.515  12.800 -0.4112  0.1111 -0.0204
 1115TIP3    H124760   0.010   5.507  12.847 -0.7203  2.6110  0.0115
 1115TIP3    H224761   0.067   5.544  12.712  0.3899  0.1936 -0.2357
 1116TIP3   OH224762   1.972   6.591  13.163  0.2493  0.3271  0.2094
 1116TIP3    H124763   2.023   6.583  13.244 -1.1622  2.8262  1.4610
 1116TIP3    H224764   2.004   6.671  13.122 -1.2142  0.8062 -0.0476
 1117TIP3   OH224765   0.332   6.668  11.966 -0.0657  0.0821  0.2005
 1117TIP3    H124766   0.398   6.599  11.973  0.5808  0.2900 -2.6276
 1117TIP3    H224767   0.249   6.623  11.985  0.3119 -1.6168 -1.7120
 1118TIP3   OH224768   2.521   4.405  11.313 -0.3716 -0.0070  0.6300
 1118TIP3    H124769   2.504   4.337  11.248  1.3963 -0.1449  0.2692
 1118TIP3    H224770   2.485   4.370  11.395 -5.6233  1.4638 -0.6128
 1119TIP3   OH224771   2.240   3.173   1.320  0.1869 -0.8322 -0.0185
 1119TIP3    H124772   2.151   3.138   1.322 -0.1416 -0.1859 -1.6252
 1119TIP3    H224773   2.262   3.188   1.411 -1.4660 -0.7435  0.4001
 1120TIP3   OH224774   5.913   0.162  10.637  0.3189  0.5910  0.5833
 1120TIP3    H124775   6.004   0.135  10.646 -0.3239 -1.2663  1.8183
 1120TIP3    H224776   5.918   0.254  10.611  2.5307  0.8741  1.8201
 1121TIP3   OH224777   3.409   6.359  14.302  0.1467  0.1446 -0.3296
 1121TIP3    H124778   3.447   6.271  14.297 -0.7241 -0.4464  1.9090
 1121TIP3    H224779   3.334   6.356  14.242  0.4462 -0.4606 -0.6840
 1122TIP3   OH224780   1.337   6.652   6.140  0.8892  0.2374 -0.1386
 1122TIP3    H124781   1.319   6.639   6.047  2.1657 -0.6375 -0.2880
 1122TIP3    H224782   1.261   6.615   6.185 -0.4538  2.0221 -0.8298
 1123TIP3   OH224783   1.107   3.133   1.524  0.3022 -0.1199  0.8099
 1123TIP3    H124784   1.175   3.119   1.458 -0.1725  0.9849  0.0497
 1123TIP3    H224785   1.131   3.215   1.567  0.3228 -0.5689  1.6658
 1124TIP3   OH224786   3.189   2.078   3.260 -0.5525 -0.1256 -0.2185
 1124TIP3    H124787   3.133   2.097   3.335  1.5385 -1.2150  1.7565
 1124TIP3    H224788   3.143   2.114   3.185 -2.3408  1.8183  1.7023
 1125TIP3   OH224789   5.980   4.257   3.483 -0.0734 -0.2439  0.2705
 1125TIP3    H124790   5.987   4.177   3.535 -0.9905 -0.5002  0.0252
 1125TIP3    H224791   5.937   4.230   3.402 -0.4072  0.4959  0.1894
 1126TIP3   OH224792   0.166   0.987   3.600 -0.1547 -0.6074 -0.3079
 1126TIP3    H124793   0.242   0.979   3.543  0.1009  0.2380 -0.0958
 1126TIP3    H224794   0.186   0.930   3.675  2.0028  2.3923  1.5909
 1127TIP3   OH224795   6.110   6.422   2.514  0.0013 -0.3108  0.5024
 1127TIP3    H124796   6.149   6.412   2.601  1.0185 -0.7227  0.0216
 1127TIP3    H224797   6.180   6.459   2.461 -0.7102  0.2379 -0.0746
 1128TIP3   OH224798   0.795   5.099  11.877 -0.0031 -0.1826  0.3735
 1128TIP3    H124799   0.786   5.171  11.815  0.9895 -0.7240 -0.4409
 1128TIP3    H224800   0.879   5.059  11.855  0.4175 -0.3533  2.1347
 1129TIP3   OH224801   3.195   6.231   5.988 -0.5165 -0.5584  0.4048
 1129TIP3    H124802   3.151   6.149   6.011  0.1344 -1.1155 -0.2847
 1129TIP3    H224803   3.124   6.295   5.979 -1.2755 -1.5629 -1.2814
 1130TIP3   OH224804   3.499   6.199  11.041 -0.6957 -0.2321  0.3715
 1130TIP3    H124805   3.542   6.188  10.957 -0.5291  1.6129  0.1774
 1130TIP3    H224806   3.570   6.211  11.104 -0.8573 -0.5381  0.6214
 1131TIP3   OH224807   1.901   3.122   3.944  0.1400 -0.6064  0.3483
 1131TIP3    H124808   1.954   3.124   4.024 -0.1922 -0.3286  0.5641
 1131TIP3    H224809   1.949   3.176   3.882  0.3242 -0.7002  0.4080
 1132TIP3   OH224810   1.999   4.082  15.767 -0.3596  0.3049  0.3411
 1132TIP3    H124811   2.042   4.158  15.806  1.9530  0.0674 -1.5584
 1132TIP3    H224812   1.914   4.077  15.812 -0.1855  3.3686  1.2171
 1133TIP3   OH224813   1.211   2.407   2.530  0.1896  0.3429  0.3773
 1133TIP3    H124814   1.306   2.411   2.541  0.0579 -0.6926  2.4987
 1133TIP3    H224815   1.196   2.337   2.466  0.8494 -1.0411  1.6615
 1134TIP3   OH224816   3.310   2.327   3.458 -0.2032  1.0617 -0.1125
 1134TIP3    H124817   3.242   2.394   3.451  0.5580  1.9352  0.6537
 1134TIP3    H224818   3.359   2.350   3.537  2.5334  1.9408 -1.9108
 1135TIP3   OH224819   3.851   0.383   0.288 -0.4802  0.0885 -0.1783
 1135TIP3    H124820   3.777   0.323   0.288 -1.1693  0.9114 -1.1546
 1135TIP3    H224821   3.830   0.448   0.220  0.9580  0.5442 -0.2240
 1136TIP3   OH224822   5.132   3.490   3.452  0.0017  0.0119 -0.3394
 1136TIP3    H124823   5.208   3.439   3.479 -0.4385 -1.3327 -1.5421
 1136TIP3    H224824   5.069   3.425   3.420 -1.1176  1.2058 -0.6466
 1137TIP3   OH224825   0.349   2.718   3.363 -0.7239 -0.4481  0.5522
 1137TIP3    H124826   0.371   2.779   3.293  1.2884 -1.5717  0.1411
 1137TIP3    H224827   0.328   2.774   3.438  2.3906  0.8551  0.6135
 1138TIP3   OH224828   1.612   6.279   5.412  0.8904  0.0750  0.2358
 1138TIP3    H124829   1.615   6.329   5.493 -1.2763  0.2122  0.2913
 1138TIP3    H224830   1.534   6.311   5.366 -0.3076 -2.7977  0.0134
 1139TIP3   OH224831   4.295   6.731  13.814  0.1970  0.3229  0.2900
 1139TIP3    H124832   4.340   6.778  13.885  0.3167 -1.2414  1.2913
 1139TIP3    H224833   4.310   6.785  13.736  3.9655 -0.1672  0.5143
 1140TIP3   OH224834   5.693   2.510   2.069 -0.3349  0.9885  0.0139
 1140TIP3    H124835   5.732   2.502   2.156  0.4294  0.9015 -0.3294
 1140TIP3    H224836   5.766   2.535   2.012  0.0460 -2.6041 -1.3226
 1141TIP3   OH224837   2.907   3.574   4.254  0.0756  0.0358 -0.0018
 1141TIP3    H124838   2.980   3.563   4.192 -0.7027 -0.4764 -0.8633
 1141TIP3    H224839   2.864   3.488   4.254 -0.0018  0.0678  1.1816
 1142TIP3   OH224840   0.780   2.287   0.372 -0.6487 -0.5845 -0.0516
 1142TIP3    H124841   0.870   2.318   0.367 -0.7703  0.3398  2.3357
 1142TIP3    H224842   0.788   2.196   0.403 -0.5349 -0.0382  1.6119
 1143TIP3   OH224843   3.552   1.433   1.334 -0.2590 -0.0093 -0.1250
 1143TIP3    H124844   3.589   1.437   1.422 -0.7375 -0.5554  0.1067
 1143TIP3    H224845   3.497   1.355   1.335  0.0844 -0.2709 -1.0458
 1144TIP3   OH224846   1.413   5.184  17.038 -0.0915 -0.4552  0.9838
 1144TIP3    H124847   1.375   5.180  17.125 -1.4889  0.2738  0.4457
 1144TIP3    H224848   1.464   5.103  17.030 -1.3209 -1.3610  1.8778
 1145TIP3   OH224849   3.992   1.430   4.594  0.1122 -0.0434 -0.3379
 1145TIP3    H124850   3.916   1.382   4.626 -0.3991  0.9684  0.0188
 1145TIP3    H224851   4.034   1.370   4.532 -1.7909 -0.0874 -1.6532
 1146TIP3   OH224852   5.864   2.914  10.813 -0.1440 -0.1017  0.2627
 1146TIP3    H124853   5.912   2.996  10.804 -0.5378  0.1703  0.6042
 1146TIP3    H224854   5.780   2.940  10.851 -0.9706 -0.4268 -1.2483
 1147TIP3   OH224855   2.983   1.574  15.737  0.3398  0.0394 -0.3389
 1147TIP3    H124856   3.077   1.591  15.749  0.3270 -0.5112  0.7017
 1147TIP3    H224857   2.961   1.513  15.808 -0.7604 -0.0091 -0.7070
 1148TIP3   OH224858   1.680   5.306  14.514  0.1762  1.0503  0.6855
 1148TIP3    H124859   1.676   5.212  14.496  2.2126  0.8853  0.8890
 1148TIP3    H224860   1.642   5.347  14.436 -0.9892  0.0802  0.7103
 1149TIP3   OH224861   1.008   5.166   0.519 -0.1381 -0.1160  0.1049
 1149TIP3    H124862   0.944   5.146   0.450 -0.2991  0.2419  0.1459
 1149TIP3    H224863   0.978   5.115   0.594 -0.4788  0.1758  0.1742
 1150TIP3   OH224864   1.748   6.423   4.716 -0.3158 -0.6703 -0.2271
 1150TIP3    H124865   1.826   6.433   4.771 -0.0218 -1.8199 -0.4250
 1150TIP3    H224866   1.764   6.344   4.665 -2.0194 -1.4784  0.4066
 1151TIP3   OH224867   3.828   3.347  16.500 -0.6198  0.3170  0.2022
 1151TIP3    H124868   3.784   3.427  16.472  0.1099  0.1594 -1.5176
 1151TIP3    H224869   3.758   3.283  16.509 -1.2547  1.1715  1.8929
 1152TIP3   OH224870   1.396   4.272  12.735 -0.0502 -0.4522 -0.1899
 1152TIP3    H124871   1.393   4.179  12.759 -0.0406 -0.9663 -2.0787
 1152TIP3    H224872   1.336   4.314  12.797  1.3570 -1.3788  1.9346
 1153TIP3   OH224873   0.192   0.761   4.123 -0.1560 -0.3035 -0.3388
 1153TIP3    H124874   0.098   0.765   4.141 -0.2481  0.1808 -0.8736
 1153TIP3    H224875   0.227   0.703   4.190 -0.5410  1.0682  1.1265
 1154TIP3   OH224876   1.875   5.177   0.124 -0.3094  0.1110 -0.1013
 1154TIP3    H124877   1.933   5.113   0.082  0.9193 -0.2366  2.0016
 1154TIP3    H224878   1.853   5.238   0.054 -0.3305 -1.7540 -1.8322
 1155TIP3   OH224879   1.091   2.604  14.794 -0.0348  0.5713  0.2749
 1155TIP3    H124880   1.179   2.632  14.819  0.2924 -0.1535 -0.0454
 1155TIP3    H224881   1.052   2.571  14.874  0.2961  0.0908  0.2377
 1156TIP3   OH224882   6.715   4.468  17.105 -0.0098 -0.7285 -0.0195
 1156TIP3    H124883   6.743   4.514  17.025 -2.5184  1.1338  0.0101
 1156TIP3    H224884   6.760   4.513  17.176 -2.0080  1.5648 -0.0428
 1157TIP3   OH224885   0.771   6.752  16.110  0.4472 -0.9119  0.1939
 1157TIP3    H124886   0.807   6.769  16.197  0.0692  0.3739  0.1283
 1157TIP3    H224887   0.708   6.823  16.096 -2.9643 -3.6033  0.7250
 1158TIP3   OH224888   0.539   0.639  14.098 -0.4299  0.2510  0.0584
 1158TIP3    H124889   0.487   0.717  14.078 -0.3057 -0.1829 -2.2030
 1158TIP3    H224890   0.626   0.672  14.119 -0.5034  0.7372 -0.4081
 1159TIP3   OH224891   6.555   6.476   4.008  0.0884 -0.2512  0.2133
 1159TIP3    H124892   6.475   6.483   4.060  0.1955  1.0904  0.2285
 1159TIP3    H224893   6.541   6.535   3.934  1.0518 -0.0172  0.1994
 1160TIP3   OH224894   1.172   3.751   3.203 -0.1209  0.5137 -0.2664
 1160TIP3    H124895   1.122   3.781   3.279  1.7335  0.9306  0.8369
 1160TIP3    H224896   1.262   3.745   3.234  0.9921  2.2146 -2.8182
 1161TIP3   OH224897   0.030   1.594  12.900 -0.0040 -0.2254 -0.2595
 1161TIP3    H124898   0.097   1.541  12.943  0.2780  0.1335 -0.2584
 1161TIP3    H224899  -0.050   1.574  12.948 -0.0347 -1.1314 -0.6463
 1162TIP3   OH224900   3.292   4.502  16.313 -0.0305  0.2180  0.4377
 1162TIP3    H124901   3.323   4.579  16.361  4.2143 -0.3140 -1.0994
 1162TIP3    H224902   3.234   4.539  16.246  0.5621  1.9012  0.7942
 1163TIP3   OH224903   3.600   1.668  10.957  0.5221  0.1385  0.1969
 1163TIP3    H124904   3.640   1.750  10.930  1.4482 -0.5054 -0.4486
 1163TIP3    H224905   3.654   1.600  10.916 -0.3619 -0.7887  0.5213
 1164TIP3   OH224906   4.701   2.176   0.711 -0.0076  0.6036  0.2726
 1164TIP3    H124907   4.711   2.121   0.633 -1.1766  0.4117  0.2371
 1164TIP3    H224908   4.767   2.244   0.702 -0.2838  0.7109 -0.9994
 1165TIP3   OH224909   0.268   2.632  16.867 -0.4985  0.9062 -0.2505
 1165TIP3    H124910   0.283   2.622  16.961  1.5515  0.6753 -0.5531
 1165TIP3    H224911   0.343   2.682  16.836 -0.4130 -0.1954 -1.9641
 1166TIP3   OH224912   1.135   6.459  12.233  0.3727  0.0675 -0.3526
 1166TIP3    H124913   1.080   6.400  12.182  0.4903  0.3743 -0.8356
 1166TIP3    H224914   1.074   6.519  12.276  0.3295  0.4545 -0.9461
 1167TIP3   OH224915   6.532   2.340  12.049 -0.1502  0.1502  0.2572
 1167TIP3    H124916   6.516   2.344  12.143 -0.1572  1.4288  0.2188
 1167TIP3    H224917   6.446   2.325  12.011 -0.0902 -0.7645  0.4710
 1168TIP3   OH224918   4.178   3.915   4.719  0.0310  0.2434  0.5802
 1168TIP3    H124919   4.105   3.975   4.733  1.1869  2.0837 -0.8270
 1168TIP3    H224920   4.250   3.950   4.772  0.4100 -0.5399  0.6045
 1169TIP3   OH224921   4.919   0.604   1.058  0.4068 -0.2998 -0.6284
 1169TIP3    H124922   4.886   0.518   1.032 -0.7951 -0.0520  0.0045
 1169TIP3    H224923   4.895   0.612   1.150  2.3245 -0.1148 -0.0827
 1170TIP3   OH224924   0.234   0.726   3.427  0.2506  0.0529 -0.4615
 1170TIP3    H124925   0.196   0.646   3.392  0.0794 -0.1041  0.0759
 1170TIP3    H224926   0.288   0.697   3.501  0.2070  0.4263 -0.2785
 1171TIP3   OH224927   5.736   6.587  11.209 -0.5643 -0.5516  0.2640
 1171TIP3    H124928   5.810   6.641  11.237  0.6248 -1.8634 -0.1872
 1171TIP3    H224929   5.748   6.504  11.257 -3.7133  0.3147  2.8543
 1172TIP3   OH224930   0.652   1.357   3.233  0.6549  0.2109  0.2191
 1172TIP3    H124931   0.599   1.332   3.309  0.7057 -1.1198 -0.1561
 1172TIP3    H224932   0.728   1.402   3.270  0.7522 -0.5519  0.9759
 1173TIP3   OH224933   2.464   0.558  15.689  0.2719 -0.2989 -0.5699
 1173TIP3    H124934   2.546   0.605  15.673  0.1717  0.5644  1.1455
 1173TIP3    H224935   2.399   0.605  15.636  0.5002  0.4482 -0.2099
 1174TIP3   OH224936   2.392   4.791   0.875 -0.6150 -0.0550 -0.2159
 1174TIP3    H124937   2.441   4.724   0.922  0.1489 -0.9060 -2.1066
 1174TIP3    H224938   2.425   4.874   0.908  0.0409 -0.6253  0.5751
 1175TIP3   OH224939   5.161   2.396   3.133 -0.3374  0.0299  0.4053
 1175TIP3    H124940   5.153   2.489   3.111 -1.4070  0.0988  1.0162
 1175TIP3    H224941   5.247   2.371   3.101 -0.8302  0.7326 -1.6167
 1176TIP3   OH224942   3.344   6.523   0.710  0.2802 -0.0061 -0.2732
 1176TIP3    H124943   3.426   6.486   0.743  0.3914  0.5008  0.0254
 1176TIP3    H224944   3.338   6.609   0.752 -0.8387 -0.3884  0.3900
 1177TIP3   OH224945   3.859   6.214  13.914  0.0298  0.3573 -0.2356
 1177TIP3    H124946   3.903   6.298  13.901  0.0927  0.2533 -0.7459
 1177TIP3    H224947   3.771   6.227  13.879 -0.4224  0.6272  0.9751
 1178TIP3   OH224948   0.194   5.443  15.668 -0.2237  0.1528 -0.0426
 1178TIP3    H124949   0.192   5.428  15.763  0.4684  1.1282  0.1413
 1178TIP3    H224950   0.107   5.420  15.638 -0.3632 -0.4623  0.7839
 1179TIP3   OH224951   1.353   0.634   4.986  0.1000  0.2082 -0.2546
 1179TIP3    H124952   1.278   0.688   5.012 -0.0637 -0.8215  1.5471
 1179TIP3    H224953   1.371   0.578   5.061  1.5256 -0.8820 -1.3251
 1180TIP3   OH224954   5.338   5.198  15.084 -0.3740 -0.0660 -0.4408
 1180TIP3    H124955   5.365   5.131  15.148  2.5923  2.9913  1.8807
 1180TIP3    H224956   5.273   5.251  15.130  1.8504  2.2244  0.3158
 1181TIP3   OH224957   5.159   4.122  13.049  0.1947 -0.1349  0.3310
 1181TIP3    H124958   5.167   4.199  12.993 -0.1237 -0.2585  0.1153
 1181TIP3    H224959   5.113   4.058  12.996 -2.2687  0.5509  1.5064
 1182TIP3   OH224960   0.416   0.073   4.648  0.0491  0.3709 -0.1441
 1182TIP3    H124961   0.472   0.098   4.721 -0.1115 -0.9527  0.4537
 1182TIP3    H224962   0.327   0.087   4.680 -0.0152  0.0546 -0.1806
 1183TIP3   OH224963   5.984   2.313  13.161 -0.2706 -0.6345 -0.3724
 1183TIP3    H124964   5.970   2.323  13.255 -0.5314 -0.4300 -0.4320
 1183TIP3    H224965   6.004   2.401  13.131  2.1310 -1.0365 -0.1372
 1184TIP3   OH224966   3.376   5.792  13.894  0.3379  0.0390 -0.2669
 1184TIP3    H124967   3.293   5.839  13.885  0.2865  0.0190  0.0674
 1184TIP3    H224968   3.362   5.734  13.969 -0.1414 -1.6646 -1.6073
 1185TIP3   OH224969   3.372   5.654   3.278  0.2082  0.2182 -0.1965
 1185TIP3    H124970   3.313   5.587   3.312 -0.4130  0.5614 -0.5767
 1185TIP3    H224971   3.460   5.617   3.289 -0.0624 -0.2216  0.5457
 1186TIP3   OH224972   5.617   2.748   3.686  0.3623 -0.2749 -0.5789
 1186TIP3    H124973   5.672   2.725   3.761 -0.5968  0.9057  0.5317
 1186TIP3    H224974   5.538   2.785   3.725 -0.3735 -0.0875 -2.1800
 1187TIP3   OH224975   5.502   6.251   3.753  0.0317 -0.2814 -0.2287
 1187TIP3    H124976   5.583   6.205   3.730 -0.4414 -1.1986 -0.0904
 1187TIP3    H224977   5.513   6.274   3.845 -0.0408 -0.7978 -0.0867
 1188TIP3   OH224978   2.779   1.263   2.157  0.2821 -0.3704  0.2424
 1188TIP3    H124979   2.723   1.308   2.094 -1.1473 -1.0015  1.0113
 1188TIP3    H224980   2.829   1.201   2.104 -0.2579 -0.2757 -0.3921
 1189TIP3   OH224981   6.141   3.891   6.094 -0.1316  0.4396 -0.1629
 1189TIP3    H124982   6.210   3.956   6.110 -0.1330  0.2358  0.7348
 1189TIP3    H224983   6.182   3.807   6.119 -0.4003  0.2008 -0.5220
 1190TIP3   OH224984   1.366   2.956  13.493  0.0842 -0.3156 -0.4536
 1190TIP3    H124985   1.293   2.899  13.519 -0.4825  1.2332  1.7107
 1190TIP3    H224986   1.444   2.907  13.517 -0.2609 -1.3299 -1.3035
 1191TIP3   OH224987   3.804   4.513  12.116 -0.0226  0.5748  0.3311
 1191TIP3    H124988   3.745   4.476  12.050 -0.7754 -2.8815  2.6443
 1191TIP3    H224989   3.747   4.567  12.171 -0.0768  0.8736 -0.0192
 1192TIP3   OH224990   2.065   2.440  12.986  0.3750  0.0650 -0.4080
 1192TIP3    H124991   2.040   2.415  13.075  0.5149  0.5555 -0.2245
 1192TIP3    H224992   2.073   2.357  12.939 -0.0006 -0.1826 -0.0464
 1193TIP3   OH224993   5.210   3.403  12.903 -0.0256 -0.8992  0.0060
 1193TIP3    H124994   5.280   3.395  12.968 -0.9297 -2.0822  0.8745
 1193TIP3    H224995   5.130   3.408  12.955 -0.5949  0.8966 -0.9522
 1194TIP3   OH224996   4.276   0.047  11.330 -0.0223  0.3358  0.6727
 1194TIP3    H124997   4.205   0.005  11.283  0.3184  0.4324  0.0630
 1194TIP3    H224998   4.237   0.125  11.369 -0.4561 -0.0922  1.1013
 1195TIP3   OH224999   5.831   5.922  16.607  0.0703  0.3864  0.0817
 1195TIP3    H125000   5.770   5.860  16.646  0.0639 -0.0680 -0.6276
 1195TIP3    H225001   5.917   5.878  16.613  0.1332  0.4944 -0.0273
 1196TIP3   OH225002   4.823   0.827  15.776  0.4996 -0.4113 -0.3145
 1196TIP3    H125003   4.909   0.812  15.737 -0.0252 -1.6426 -1.0562
 1196TIP3    H225004   4.832   0.796  15.866 -0.1560 -4.3789 -1.4039
 1197TIP3   OH225005   1.886   2.161  13.250 -0.1696 -0.0428 -0.3491
 1197TIP3    H125006   1.846   2.094  13.195  2.2047 -0.4610 -1.7139
 1197TIP3    H225007   1.950   2.114  13.303  0.2197  0.8726  0.0258
 1198TIP3   OH225008   5.747   4.437   3.828  1.0893  0.9267 -0.3357
 1198TIP3    H125009   5.705   4.474   3.751  1.9394 -1.3354 -2.0052
 1198TIP3    H225010   5.795   4.361   3.795  0.6349 -0.7827  2.5593
 1199TIP3   OH225011   1.274   2.476  14.249  0.2174 -0.0849 -0.3135
 1199TIP3    H125012   1.271   2.538  14.176  1.6453 -0.4666 -0.7259
 1199TIP3    H225013   1.296   2.530  14.325  0.9584 -0.0039 -0.5809
 1200TIP3   OH225014   3.953   4.563   4.180 -0.1248  0.0294  0.3018
 1200TIP3    H125015   3.963   4.658   4.184 -1.6824  0.3067 -1.4434
 1200TIP3    H225016   3.985   4.539   4.093  1.0362 -1.1946  1.0222
 1201TIP3   OH225017   3.354   6.642  11.913  0.0877  0.2696 -0.0128
 1201TIP3    H125018   3.370   6.657  11.820 -0.0795  0.5839  0.0098
 1201TIP3    H225019   3.427   6.586  11.941 -0.0704 -0.1458 -0.4172
 1202TIP3   OH225020   1.556   4.552  11.665  0.1575  0.4941  0.2503
 1202TIP3    H125021   1.550   4.560  11.569  0.1052 -1.7183  0.0045
 1202TIP3    H225022   1.628   4.609  11.689  0.6042  0.6079 -1.2188
 1203TIP3   OH225023   2.915   4.298  15.309 -0.3183  1.0565 -0.2579
 1203TIP3    H125024   2.873   4.317  15.393  1.3437  1.3071  0.5551
 1203TIP3    H225025   2.842   4.280  15.250 -1.6952  3.5240  0.5458
 1204TIP3   OH225026   4.687   4.604  15.651 -0.5334  0.0063 -0.0539
 1204TIP3    H125027   4.628   4.585  15.723 -1.6688  1.3265 -0.5791
 1204TIP3    H225028   4.659   4.689  15.619  2.4672  1.3286  0.4513
 1205TIP3   OH225029   5.518   6.219   0.113  0.6610 -0.3219 -0.4858
 1205TIP3    H125030   5.425   6.235   0.096  0.3449 -0.6717  0.8327
 1205TIP3    H225031   5.525   6.124   0.124  0.6497 -0.0733  2.1739
 1206TIP3   OH225032   4.783   3.448   0.781  0.6272 -0.4922 -0.2524
 1206TIP3    H125033   4.736   3.530   0.762  2.1502 -0.1248 -3.0260
 1206TIP3    H225034   4.786   3.444   0.876 -1.1935  1.6851 -0.0105
 1207TIP3   OH225035   2.164   2.844   2.045  0.1090 -0.0539 -0.1710
 1207TIP3    H125036   2.246   2.890   2.025  0.1907 -0.1442 -0.0491
 1207TIP3    H225037   2.095   2.905   2.021  0.1953 -0.2950 -1.0712
 1208TIP3   OH225038   3.045   3.341   1.354  0.0386  0.1718 -0.0501
 1208TIP3    H125039   3.128   3.385   1.371 -0.4870  1.3886 -0.4952
 1208TIP3    H225040   3.010   3.385   1.276  0.5967 -2.6463 -2.0271
 1209TIP3   OH225041   4.749   6.586   5.545 -0.0747 -0.5664 -0.2130
 1209TIP3    H125042   4.706   6.509   5.508  0.4607 -0.5675 -0.8462
 1209TIP3    H225043   4.678   6.647   5.563 -0.4662 -1.0561 -0.0571
 1210TIP3   OH225044   4.712   4.470   2.853 -0.3323 -0.2197 -0.6742
 1210TIP3    H125045   4.703   4.540   2.788  1.7557  1.8072  1.0376
 1210TIP3    H225046   4.777   4.411   2.816  2.6982  2.1824  0.3618
 1211TIP3   OH225047   0.305   4.333   0.909  0.1187 -0.4316 -0.0894
 1211TIP3    H125048   0.380   4.341   0.968 -0.8838  0.5161  1.1049
 1211TIP3    H225049   0.317   4.404   0.846  2.0036 -2.3547 -2.0864
 1212TIP3   OH225050   2.868   5.141   5.435 -0.5433  0.8641 -0.1428
 1212TIP3    H125051   2.922   5.099   5.367 -0.4711  1.2366 -0.3189
 1212TIP3    H225052   2.931   5.175   5.498 -0.5905  0.9284 -0.1304
 1213TIP3   OH225053   0.867   1.656   5.530 -0.3042  0.4293  0.0360
 1213TIP3    H125054   0.944   1.626   5.578 -0.7310 -1.2542 -0.2889
 1213TIP3    H225055   0.821   1.576   5.505 -1.2717  1.3418 -1.2421
 1214TIP3   OH225056   1.469   2.832   4.715 -0.3634  0.2907 -0.3397
 1214TIP3    H125057   1.490   2.739   4.722 -0.3070  0.3385  0.1570
 1214TIP3    H225058   1.462   2.848   4.621 -0.1437 -0.1648 -0.4362
 1215TIP3   OH225059   5.277   6.741  15.045  0.0422  0.6080  0.1778
 1215TIP3    H125060   5.277   6.672  15.112 -0.1319  1.3270  0.9333
 1215TIP3    H225061   5.365   6.739  15.008  0.6158  1.1891  1.4710
 1216TIP3   OH225062   3.574   3.876  16.347  0.1923 -0.1311  0.1219
 1216TIP3    H125063   3.556   3.842  16.260 -0.8275  0.3976  0.1107
 1216TIP3    H225064   3.575   3.799  16.404 -0.2345 -0.3693 -0.1894
 1217TIP3   OH225065   1.436   2.255   4.885  0.1824  0.0826  0.2819
 1217TIP3    H125066   1.371   2.245   4.955  0.0926  0.2764  0.2254
 1217TIP3    H225067   1.389   2.297   4.814 -0.1944 -1.6781 -0.5682
 1218TIP3   OH225068   5.412   2.895   4.013 -0.1217  0.2522  0.2322
 1218TIP3    H125069   5.461   2.824   4.054  2.8294  1.1770 -1.4249
 1218TIP3    H225070   5.349   2.852   3.956 -0.6868 -0.9759  1.7068
 1219TIP3   OH225071   0.429   0.399   3.959 -0.2120 -0.2550  0.3082
 1219TIP3    H125072   0.419   0.305   3.949  2.7279 -0.6124 -0.3009
 1219TIP3    H225073   0.491   0.424   3.890 -2.4006  2.5190 -0.8584
 1220TIP3   OH225074   1.461   4.233  10.357  0.4884 -0.1747 -0.4394
 1220TIP3    H125075   1.519   4.296  10.401 -0.2931 -1.1589  2.1556
 1220TIP3    H225076   1.377   4.279  10.350  0.5071 -0.1623 -0.5985
 1221TIP3   OH225077   1.504   2.607  15.504 -0.3500 -0.1224  0.2750
 1221TIP3    H125078   1.527   2.684  15.556  1.5081 -0.7207  0.4384
 1221TIP3    H225079   1.420   2.628  15.465 -1.2366  0.8650  2.5201
 1222TIP3   OH225080   4.022   0.689   4.177 -0.3066 -0.0788 -0.2135
 1222TIP3    H125081   4.074   0.747   4.231 -1.4322 -0.4982  1.3845
 1222TIP3    H225082   3.933   0.725   4.180 -0.7047 -0.9840 -0.4865
 1223TIP3   OH225083   3.121   4.673  16.149 -0.0515  0.0739  0.3298
 1223TIP3    H125084   3.088   4.735  16.214 -1.3651 -0.4498  0.1827
 1223TIP3    H225085   3.198   4.717  16.113 -0.3992  1.2073  0.8928
 1224TIP3   OH225086   1.757   6.261  13.589  0.8194  0.1556 -0.8965
 1224TIP3    H125087   1.819   6.299  13.527  0.8848  2.2670  0.3598
 1224TIP3    H225088   1.766   6.315  13.668  0.9347 -2.5452  1.0877
 1225TIP3   OH225089   4.418   6.693  16.501 -0.2057  0.2074  0.5199
 1225TIP3    H125090   4.358   6.618  16.499  1.3185 -1.0937 -1.4277
 1225TIP3    H225091   4.429   6.713  16.594 -3.5088  0.4850  0.9523
 1226TIP3   OH225092   3.962   3.856  11.190  0.0106 -0.1028  0.1107
 1226TIP3    H125093   3.867   3.852  11.205  0.1237  1.5940  1.6469
 1226TIP3    H225094   3.971   3.861  11.095 -1.1749 -4.1813 -0.4174
 1227TIP3   OH225095   2.843   2.460  13.439 -0.6271 -0.2536  0.7557
 1227TIP3    H125096   2.812   2.504  13.360  0.3735 -0.1455  0.4135
 1227TIP3    H225097   2.905   2.395  13.407  0.0890  0.0631  1.4885
 1228TIP3   OH225098   0.918   0.069  15.894 -0.0532  0.3040 -0.4283
 1228TIP3    H125099   0.850   0.105  15.837  0.7291  0.5299 -1.2305
 1228TIP3    H225100   0.869   0.024  15.963 -1.0228  0.9012 -0.7033
 1229TIP3   OH225101   5.548   1.600  16.818  0.0329 -0.4452  0.3468
 1229TIP3    H125102   5.536   1.515  16.777 -0.8048 -0.4769  0.6352
 1229TIP3    H225103   5.517   1.587  16.908  0.1597  0.0886  0.4695
 1230TIP3   OH225104   4.487   5.347  15.638  0.0629  0.0383  0.3984
 1230TIP3    H125105   4.473   5.253  15.647  1.8859 -0.1174  2.4883
 1230TIP3    H225106   4.400   5.386  15.650 -0.6232 -1.3388  0.0283
 1231TIP3   OH225107   2.110   5.279   0.345  0.1283 -0.1706 -0.5155
 1231TIP3    H125108   2.104   5.372   0.326  1.0179  0.2303  1.0119
 1231TIP3    H225109   2.021   5.246   0.330 -0.3663  1.0572 -0.4277
 1232TIP3   OH225110   3.848   5.554   0.939 -0.0445  0.3275 -0.1135
 1232TIP3    H125111   3.903   5.632   0.940  1.2266 -0.5224 -1.2540
 1232TIP3    H225112   3.812   5.551   0.851 -0.8167  0.0970  0.1989
 1233TIP3   OH225113   2.212   0.566   2.770 -0.1131 -0.5731  0.5363
 1233TIP3    H125114   2.197   0.572   2.676  1.3542  2.5299  0.4018
 1233TIP3    H225115   2.159   0.491   2.798 -0.4610 -1.6899 -2.7393
 1234TIP3   OH225116   3.410   3.072  16.462 -0.0969 -0.2270 -0.2837
 1234TIP3    H125117   3.339   3.011  16.483  0.6601 -0.9337  0.3170
 1234TIP3    H225118   3.447   3.038  16.380  1.3717 -1.6057  0.8754
 1235TIP3   OH225119   2.454   6.453  12.389  0.0750  0.1759  0.0500
 1235TIP3    H125120   2.376   6.478  12.338 -0.1366 -0.1267  0.2215
 1235TIP3    H225121   2.433   6.476  12.479  0.1199 -0.0462  0.1198
 1236TIP3   OH225122   6.423   4.628  14.982  0.7032 -0.1408  0.1001
 1236TIP3    H125123   6.340   4.672  14.964  0.4486 -0.9585 -0.8526
 1236TIP3    H225124   6.405   4.573  15.059  0.2923 -0.4576 -0.2159
 1237TIP3   OH225125   5.307   3.292   2.979 -0.6540 -0.0609  0.2687
 1237TIP3    H125126   5.336   3.225   3.042  0.5835 -0.0578 -0.2796
 1237TIP3    H225127   5.266   3.242   2.908 -0.7157 -0.1591  0.3727
 1238TIP3   OH225128   1.333   5.505   0.792  0.2192 -0.3198 -0.0543
 1238TIP3    H125129   1.375   5.589   0.814 -0.2496 -0.8744  3.7528
 1238TIP3    H225130   1.406   5.446   0.775  0.6557  0.3353 -0.5024
 1239TIP3   OH225131   6.130   5.964  11.744  0.2945 -0.1747  0.7414
 1239TIP3    H125132   6.083   5.896  11.793 -1.1611  0.4259  0.2351
 1239TIP3    H225133   6.063   6.029  11.723  1.7978  2.0079  2.1607
 1240TIP3   OH225134   2.069   5.206   4.660  0.1032 -0.7560  0.0221
 1240TIP3    H125135   1.987   5.256   4.657 -0.0031 -0.7046  2.1775
 1240TIP3    H225136   2.123   5.244   4.590 -0.4241  1.6056  0.8081
 1241TIP3   OH225137   0.875   5.189   1.566 -0.4312  0.0370  0.7707
 1241TIP3    H125138   0.880   5.152   1.478 -1.2243 -0.8498  1.0740
 1241TIP3    H225139   0.782   5.211   1.577 -0.5381 -0.7746  1.7206
 1242TIP3   OH225140   5.960   1.773   2.999  0.3674 -0.4217 -0.1948
 1242TIP3    H125141   6.039   1.825   2.984  0.3499 -0.5651 -0.8302
 1242TIP3    H225142   5.892   1.838   3.018 -0.2723  0.0927 -3.5414
 1243TIP3   OH225143   4.351   6.794   1.945  0.4533  0.1002 -0.8149
 1243TIP3    H125144   4.291   6.725   1.916  0.6522 -0.1271 -0.6956
 1243TIP3    H225145   4.426   6.746   1.981 -0.4726  0.3507  1.6062
 1244TIP3   OH225146   6.518   0.799   1.733  0.4958  0.0902  0.3741
 1244TIP3    H125147   6.608   0.826   1.750  0.5025  0.1728  0.2099
 1244TIP3    H225148   6.474   0.808   1.818  0.6920 -0.1582  0.5046
 1245TIP3   OH225149   6.139   6.738  12.913  0.0426 -0.4411 -0.1565
 1245TIP3    H125150   6.165   6.791  12.838  1.3509  0.4198  0.8583
 1245TIP3    H225151   6.161   6.791  12.989 -0.1965 -1.7587  0.8790
 1246TIP3   OH225152   3.404   5.350  15.364  0.5332  0.4486 -0.4288
 1246TIP3    H125153   3.492   5.377  15.340 -0.8810  3.1040 -3.4556
 1246TIP3    H225154   3.370   5.421  15.418 -0.2347  0.1741 -0.5368
 1247TIP3   OH225155   0.918   1.593  12.971 -0.2161 -0.1078 -0.2430
 1247TIP3    H125156   0.938   1.686  12.960  2.6464 -0.3790  1.5054
 1247TIP3    H225157   1.002   1.548  12.961 -1.2896 -2.4000  0.1752
 1248TIP3   OH225158   5.951   4.767   0.783  0.0565  0.1467 -0.2374
 1248TIP3    H125159   5.899   4.694   0.816  0.0580  1.0633  1.9616
 1248TIP3    H225160   5.905   4.795   0.704 -1.9679 -0.0229  0.8040
 1249TIP3   OH225161   1.209   4.124   5.781 -0.3365 -0.3310 -0.2968
 1249TIP3    H125162   1.292   4.097   5.822 -0.9509 -1.0561  0.5037
 1249TIP3    H225163   1.146   4.057   5.807 -1.6344  1.2149  0.7248
 1250TIP3   OH225164   0.974   3.954   4.222  0.3045 -0.4809 -0.2231
 1250TIP3    H125165   1.062   3.989   4.208  0.6926 -0.8159  1.2124
 1250TIP3    H225166   0.980   3.907   4.305 -1.3108 -0.2293  0.0757
 1251TIP3   OH225167   3.175   6.001   0.577 -0.0911 -0.0206 -0.1117
 1251TIP3    H125168   3.140   5.925   0.623  2.1172 -1.4083 -0.5462
 1251TIP3    H225169   3.202   6.061   0.647  1.5866 -1.3264  0.4359
 1252TIP3   OH225170   6.788   2.878   1.597  0.5791  0.2950  0.4104
 1252TIP3    H125171   6.818   2.832   1.519  0.8806  0.7635  0.2453
 1252TIP3    H225172   6.865   2.881   1.654  0.7859  1.2392  0.1081
 1253TIP3   OH225173   6.352   3.259   3.558  0.1743  0.3157 -0.0323
 1253TIP3    H125174   6.406   3.338   3.553 -1.3285  1.4055  0.3121
 1253TIP3    H225175   6.410   3.188   3.530  1.5240  1.5507 -0.4646
 1254TIP3   OH225176   2.319   5.868  17.194 -0.1021  0.3262  0.1408
 1254TIP3    H125177   2.304   5.774  17.200 -3.4496  0.8086  1.6937
 1254TIP3    H225178   2.409   5.880  17.226 -0.1364 -2.1998  1.4498
 1255TIP3   OH225179   4.307   4.744  16.138  0.0530 -0.3406 -0.1098
 1255TIP3    H125180   4.393   4.783  16.152  0.2464 -0.0049 -1.9563
 1255TIP3    H225181   4.246   4.809  16.174  0.4622  0.8980 -1.5178
 1256TIP3   OH225182   4.015   5.931   1.234 -0.0318  0.0070 -0.0894
 1256TIP3    H125183   3.999   6.003   1.295 -0.1124 -0.8921  0.9962
 1256TIP3    H225184   4.070   5.870   1.284  1.5283  0.1223 -1.5925
 1257TIP3   OH225185   0.849   6.673  14.848 -0.3032 -0.2716 -0.5932
 1257TIP3    H125186   0.801   6.710  14.923 -0.3304 -1.2190 -0.1195
 1257TIP3    H225187   0.936   6.654  14.883 -0.0364  0.1046 -1.0556
 1258TIP3   OH225188   1.844   0.257  11.767  0.1221 -0.2567 -0.1517
 1258TIP3    H125189   1.771   0.316  11.753  1.1978  1.0065 -0.6506
 1258TIP3    H225190   1.919   0.302  11.728  1.5189 -0.7270  1.8504
 1259TIP3   OH225191   0.482   6.188   1.486  0.3939  0.0338 -0.2974
 1259TIP3    H125192   0.481   6.097   1.515  1.6433  0.4492  1.1667
 1259TIP3    H225193   0.573   6.204   1.461  1.1101  1.8632  2.9683
 1260TIP3   OH225194   0.755   4.855   5.104  0.5163  0.7041  0.1985
 1260TIP3    H125195   0.723   4.886   5.189 -3.1291  3.8772 -2.0240
 1260TIP3    H225196   0.847   4.881   5.102  0.5780  1.0062  2.9077
 1261TIP3   OH225197   1.860   5.260  11.891  0.2435  0.3928 -0.3757
 1261TIP3    H125198   1.868   5.181  11.837 -0.1520 -0.9383  1.4028
 1261TIP3    H225199   1.805   5.233  11.964  1.2965  1.9141  1.0414
 1262TIP3   OH225200   6.741   0.737   5.476  0.4358 -0.4899  0.3559
 1262TIP3    H125201   6.714   0.796   5.406  0.7248  0.4474  1.0126
 1262TIP3    H225202   6.836   0.747   5.480  0.4094 -0.4444  0.9570
 1263TIP3   OH225203   2.016   6.028  15.844 -0.2873  0.5608  0.7524
 1263TIP3    H125204   1.971   6.034  15.928  0.1750  2.1808  0.9022
 1263TIP3    H225205   1.971   6.091  15.788 -0.1437 -0.0065 -0.0153
 1264TIP3   OH225206   0.248   1.338   5.241 -0.3117 -0.3951 -0.1294
 1264TIP3    H125207   0.218   1.426   5.264 -0.0535 -0.7274  1.5877
 1264TIP3    H225208   0.310   1.351   5.170 -0.3835  0.7875  0.0157
 1265TIP3   OH225209   2.978   3.560   6.559  0.3729 -0.7695 -0.1448
 1265TIP3    H125210   2.933   3.637   6.523 -2.0356 -2.2865 -0.5271
 1265TIP3    H225211   2.989   3.581   6.652 -1.6684 -0.5410  0.0956
 1266TIP3   OH225212   2.949   0.992  15.846 -0.2076 -0.2700  0.4956
 1266TIP3    H125213   2.878   1.023  15.902 -1.8184 -0.5969 -1.2418
 1266TIP3    H225214   2.907   0.976  15.761  1.8472 -1.0295 -0.4492
 1267TIP3   OH225215   6.133   3.116   5.242 -0.0418 -0.4945  0.3760
 1267TIP3    H125216   6.195   3.125   5.169 -0.9399 -0.4504 -0.4095
 1267TIP3    H225217   6.182   3.146   5.319  0.9214 -0.5106 -0.2104
 1268TIP3   OH225218   0.928   2.529   3.554  0.0395 -0.3444  0.3763
 1268TIP3    H125219   0.993   2.531   3.624  0.3006 -0.8317  0.1526
 1268TIP3    H225220   0.844   2.528   3.600  0.2158 -1.2860  0.7143
 1269TIP3   OH225221   5.245   1.532  15.879  0.2162  0.3266  0.7344
 1269TIP3    H125222   5.324   1.578  15.908 -0.6497  1.9473  0.6795
 1269TIP3    H225223   5.277   1.451  15.839  2.0891  2.0963 -1.6453
 1270TIP3   OH225224   4.950   3.433   5.280 -0.2388 -0.0109  0.1398
 1270TIP3    H125225   4.956   3.369   5.351 -1.6446 -1.4540 -0.9906
 1270TIP3    H225226   4.947   3.518   5.325 -1.1720 -0.8892  1.8266
 1271TIP3   OH225227   2.002   3.874   2.550 -0.0028  0.3052 -0.6548
 1271TIP3    H125228   1.958   3.904   2.629  0.7630  0.3002 -0.2265
 1271TIP3    H225229   2.061   3.805   2.579 -0.1043 -0.0648 -1.3061
 1272TIP3   OH225230   4.773   1.323  13.298 -0.1000  0.2960  0.1092
 1272TIP3    H125231   4.849   1.347  13.245 -0.7682  0.0073 -1.0024
 1272TIP3    H225232   4.716   1.275  13.238 -1.4645  1.0855  0.7410
 1273TIP3   OH225233   4.205   3.908   3.604  0.4164  0.5496  0.2715
 1273TIP3    H125234   4.172   3.832   3.556 -1.4438  0.1916  1.9695
 1273TIP3    H225235   4.254   3.872   3.677 -1.9728  0.8054  2.1286
 1274TIP3   OH225236   4.975   5.923  16.280 -0.5004  0.6200 -0.2159
 1274TIP3    H125237   4.889   5.934  16.240 -0.6025 -1.9735 -0.8699
 1274TIP3    H225238   4.961   5.945  16.373 -2.0571 -0.3811 -0.1766
 1275TIP3   OH225239   1.829   6.673  16.264 -0.5786 -0.0562  0.2340
 1275TIP3    H125240   1.821   6.590  16.217 -1.3911 -0.1048  0.4439
 1275TIP3    H225241   1.918   6.672  16.300 -0.5706 -0.8189  0.2090
 1276TIP3   OH225242   3.485   6.141  15.697  0.3953 -0.4105 -0.0292
 1276TIP3    H125243   3.495   6.067  15.757  0.2698 -0.6490 -0.2943
 1276TIP3    H225244   3.481   6.100  15.610 -3.8294 -0.5721 -0.0010
 1277TIP3   OH225245   0.437   5.979   1.134  0.4034  0.1193 -0.4374
 1277TIP3    H125246   0.398   5.907   1.183  1.4876  1.0745  1.9894
 1277TIP3    H225247   0.366   6.043   1.125  0.2811  0.0857  0.2285
 1278TIP3   OH225248   3.126   4.403  11.338  0.3362  0.4264 -0.3354
 1278TIP3    H125249   3.190   4.432  11.273 -1.3107  1.8364 -1.4320
 1278TIP3    H225250   3.089   4.485  11.373 -0.7536 -0.3255  0.3485
 1279TIP3   OH225251   6.732   0.219   0.948 -0.7170  0.2486  0.1682
 1279TIP3    H125252   6.736   0.238   0.854 -0.5740 -2.8380 -0.5663
 1279TIP3    H225253   6.801   0.153   0.961 -1.4182 -0.1324  2.2471
 1280TIP3   OH225254   5.069   5.932  17.220  0.0922 -0.3777  0.3729
 1280TIP3    H125255   5.104   5.996  17.159  0.2297  0.2168  1.0653
 1280TIP3    H225256   5.020   5.983  17.284 -1.3327 -1.1110 -0.0662
 1281TIP3   OH225257   0.603   3.108  15.376 -0.1238 -0.3429  0.2249
 1281TIP3    H125258   0.566   3.141  15.294  1.4104  0.5008 -0.1612
 1281TIP3    H225259   0.694   3.089  15.356 -0.3361 -2.5681  1.1021
 1282TIP3   OH225260   3.900   0.024  13.936  0.2980 -0.7509 -0.3701
 1282TIP3    H125261   3.970   0.063  13.885 -0.2155 -0.2571 -0.7157
 1282TIP3    H225262   3.868   0.097  13.991  1.0456 -1.3372  0.8953
 1283TIP3   OH225263   0.032   1.027   6.238 -0.7685 -0.0290 -0.1480
 1283TIP3    H125264   0.061   0.951   6.187 -2.5668  0.1669 -1.5649
 1283TIP3    H225265   0.072   1.101   6.193 -3.4143  0.2614 -2.2468
 1284TIP3   OH225266   1.951   6.693   2.131  0.4016 -0.1451  0.0198
 1284TIP3    H125267   1.869   6.670   2.087 -0.4799 -0.0338  1.5090
 1284TIP3    H225268   2.016   6.696   2.061 -1.1530  1.3424 -1.4664
 1285TIP3   OH225269   1.841   6.363  16.893  0.1859  0.0196 -0.2319
 1285TIP3    H125270   1.873   6.307  16.964 -1.4511 -0.4114  0.1984
 1285TIP3    H225271   1.870   6.451  16.917  2.3946 -0.4988 -0.6848
 1286TIP3   OH225272   3.398   6.041   4.207 -0.5107  0.1678  0.5115
 1286TIP3    H125273   3.484   6.077   4.184  0.0193 -0.0183  2.1018
 1286TIP3    H225274   3.344   6.119   4.225 -0.3948  0.2564  0.4771
 1287TIP3   OH225275   5.793   4.872   5.033  0.8392  0.3614 -0.0689
 1287TIP3    H125276   5.886   4.896   5.031  1.3757 -1.5584 -1.7660
 1287TIP3    H225277   5.781   4.816   4.956 -1.4271 -0.5197  0.8345
 1288TIP3   OH225278   2.075   3.830  15.331  0.1264  0.1159 -0.4541
 1288TIP3    H125279   2.079   3.911  15.382  0.1825 -0.1582 -0.0105
 1288TIP3    H225280   2.007   3.846  15.266 -1.6056 -0.3194  1.1386
 1289TIP3   OH225281   4.961   5.406   3.188  0.8574 -0.1099 -0.2185
 1289TIP3    H125282   5.010   5.480   3.151 -1.2910  1.3194 -0.4057
 1289TIP3    H225283   4.879   5.445   3.218  0.2265 -2.2173  1.0021
 1290TIP3   OH225284   4.481   3.694  12.967 -0.4422  0.7559 -0.2432
 1290TIP3    H125285   4.547   3.760  12.947  0.4750 -0.6111 -2.1053
 1290TIP3    H225286   4.400   3.743  12.978  0.7868  2.4817  1.9276
 1291TIP3   OH225287   0.679   5.518   5.414  0.4674  0.3515  0.0050
 1291TIP3    H125288   0.585   5.520   5.426  0.7086  2.6601  2.3817
 1291TIP3    H225289   0.701   5.425   5.411 -1.7294 -0.2556  0.9303
 1292TIP3   OH225290   0.327   6.074   3.525  0.3422  0.0522 -0.2545
 1292TIP3    H125291   0.260   6.070   3.456  0.2914  0.6212 -0.2418
 1292TIP3    H225292   0.377   6.154   3.505  1.1292 -0.4559 -0.3665
 1293TIP3   OH225293   4.447   2.574   1.558  0.6885  0.3405  0.1266
 1293TIP3    H125294   4.443   2.665   1.528  1.0873  0.3841  0.2022
 1293TIP3    H225295   4.357   2.553   1.585  0.4785  0.5313 -0.4213
 1294TIP3   OH225296   5.016   2.497  14.373 -0.5959  0.0844 -0.1756
 1294TIP3    H125297   4.929   2.494  14.413 -0.2087  0.8494  0.7690
 1294TIP3    H225298   5.061   2.420  14.406 -0.4580  0.4308  0.4663
 1295TIP3   OH225299   3.267   3.599   3.581 -0.1873 -0.0069  0.0152
 1295TIP3    H125300   3.310   3.517   3.605 -0.9272 -0.1414  0.9319
 1295TIP3    H225301   3.173   3.580   3.585 -0.4852 -0.3865 -4.2618
 1296TIP3   OH225302   5.290   0.083  11.893  0.5711  0.0460  0.1020
 1296TIP3    H125303   5.332   0.164  11.923  0.6446  0.3444 -0.7713
 1296TIP3    H225304   5.200   0.108  11.874  0.5650 -0.0957 -0.0644
 1297TIP3   OH225305   0.930   4.684  12.786  0.2284  0.3613  0.2916
 1297TIP3    H125306   0.857   4.682  12.848 -0.6700  2.4626 -0.5883
 1297TIP3    H225307   0.942   4.593  12.761 -2.7213 -0.0135 -0.1539
 1298TIP3   OH225308   4.824   5.323   4.375 -0.1038 -0.8141 -0.1620
 1298TIP3    H125309   4.866   5.381   4.438 -3.8476  3.1209 -0.8165
 1298TIP3    H225310   4.766   5.268   4.428 -3.4550  2.6729  0.2116
 1299TIP3   OH225311   6.347   2.046   6.127  0.0564  0.2757 -0.3349
 1299TIP3    H125312   6.428   2.013   6.087  0.9284  0.1851  1.4082
 1299TIP3    H225313   6.371   2.131   6.163 -0.3645 -0.1153  0.9300
 1300TIP3   OH225314   4.578   4.160   5.578 -0.0255  0.2321  0.1706
 1300TIP3    H125315   4.485   4.169   5.598  0.2956  0.4640  1.6626
 1300TIP3    H225316   4.596   4.230   5.515 -0.3680  1.8344  1.7455
 1301TIP3   OH225317   0.841   4.054   2.173  0.4451  0.1965  0.4248
 1301TIP3    H125318   0.823   4.004   2.093 -0.6909  1.4445 -0.1473
 1301TIP3    H225319   0.886   4.132   2.142  1.7142 -0.1775  1.2458
 1302TIP3   OH225320   0.678   1.764   3.114  0.3106  0.0279 -0.4719
 1302TIP3    H125321   0.603   1.706   3.103 -1.7864  2.0460  1.9247
 1302TIP3    H225322   0.718   1.736   3.197 -0.1127  1.2627  0.1788
 1303TIP3   OH225323   5.777   2.956   2.021  0.3119  0.1122 -0.5934
 1303TIP3    H125324   5.857   2.995   1.985  1.1232 -1.9423 -1.1231
 1303TIP3    H225325   5.728   3.031   2.055  2.4656  1.4417 -0.1996
 1304TIP3   OH225326   2.801   5.983   2.324  0.3422  0.3322  0.0470
 1304TIP3    H125327   2.895   5.983   2.341  0.4890 -1.2606 -0.5831
 1304TIP3    H225328   2.792   6.025   2.239  0.1517  3.1379  1.3485
 1305TIP3   OH225329   4.615   4.153  13.848  0.2300  0.8352  0.1786
 1305TIP3    H125330   4.557   4.184  13.918  0.5322  0.1507  0.7551
 1305TIP3    H225331   4.643   4.066  13.878  1.6868  1.2307 -0.0052
 1306TIP3   OH225332   4.475   4.460   0.231 -0.1855  0.3554  0.0369
 1306TIP3    H125333   4.547   4.405   0.261 -1.5687 -0.9108  1.1533
 1306TIP3    H225334   4.481   4.458   0.136 -0.1139 -1.6349  0.0527
 1307TIP3   OH225335   2.724   3.269   4.009 -0.0848  0.5326 -0.3136
 1307TIP3    H125336   2.716   3.309   4.096  1.1651  1.3713 -0.5634
 1307TIP3    H225337   2.814   3.236   4.006 -1.4339 -3.9080  0.5105
 1308TIP3   OH225338   6.073   2.848  15.135 -0.3247 -0.4125 -0.2563
 1308TIP3    H125339   6.165   2.852  15.163 -0.4715  0.1259  0.1599
 1308TIP3    H225340   6.078   2.827  15.042  0.2309 -0.2394 -0.2697
 1309TIP3   OH225341   1.417   1.782  12.808 -0.6820  0.1876  0.3857
 1309TIP3    H125342   1.392   1.698  12.769 -0.6279 -0.6481  2.0912
 1309TIP3    H225343   1.371   1.847  12.755 -2.3503 -1.0144  0.2694
 1310TIP3   OH225344   2.548   4.203   4.054 -0.2973  0.0564 -0.0729
 1310TIP3    H125345   2.530   4.297   4.047 -0.3365  0.2157  1.7982
 1310TIP3    H225346   2.604   4.184   3.979 -0.7249  1.4524 -0.7886
 1311TIP3   OH225347   5.186   4.789   2.968  0.3009  0.2285 -0.0158
 1311TIP3    H125348   5.205   4.876   2.934  2.4396 -0.9119 -2.1103
 1311TIP3    H225349   5.107   4.761   2.922  2.3459 -0.7161 -3.3343
 1312TIP3   OH225350   2.318   5.054   2.702  0.0015 -0.0185 -0.0499
 1312TIP3    H125351   2.261   4.978   2.713 -1.5060  0.9352 -0.9750
 1312TIP3    H225352   2.370   5.057   2.782 -0.6310 -1.4271  0.4441
 1313TIP3   OH225353   4.590   6.016   3.292  0.1980  0.2987 -0.7386
 1313TIP3    H125354   4.666   5.999   3.348  0.8830  0.2210 -1.6650
 1313TIP3    H225355   4.541   6.084   3.338  1.1088  0.7227 -0.3736
 1314TIP3   OH225356   1.940   6.089  13.199  0.1880 -0.4283  0.0111
 1314TIP3    H125357   1.983   6.166  13.162 -0.7955  0.6799  1.0846
 1314TIP3    H225358   1.990   6.069  13.278 -0.7860  0.4442  0.8868
 1315TIP3   OH225359   6.736   6.230   5.255 -0.5734 -0.6856 -0.0763
 1315TIP3    H125360   6.735   6.134   5.248  0.4299 -0.7558  0.5173
 1315TIP3    H225361   6.820   6.255   5.217 -0.9265 -0.0164 -0.4188
 1316TIP3   OH225362   5.879   4.264   2.438 -0.6607 -0.0633 -0.0585
 1316TIP3    H125363   5.876   4.276   2.343 -0.6011  0.6631  0.0285
 1316TIP3    H225364   5.865   4.351   2.474 -1.7705 -0.5028  0.6187
 1317TIP3   OH225365   5.771   1.332  14.150  0.1778  0.3670  0.1078
 1317TIP3    H125366   5.787   1.396  14.219  1.5978  0.4689 -0.2778
 1317TIP3    H225367   5.702   1.372  14.096 -0.1938  0.7583  0.8509
 1318TIP3   OH225368   0.472   3.896   4.932  0.2890 -0.2071 -0.1174
 1318TIP3    H125369   0.455   3.904   5.026  1.4363 -0.9438  0.1792
 1318TIP3    H225370   0.511   3.979   4.907  1.7320 -0.6496  0.4996
 1319TIP3   OH225371   2.518   3.755  14.788  0.4045 -0.4158  0.1742
 1319TIP3    H125372   2.529   3.838  14.740  0.4948  0.3502  1.4668
 1319TIP3    H225373   2.456   3.776  14.857  1.2320 -1.1551  1.1710
 1320TIP3   OH225374   2.494   0.044   2.501 -0.5163 -0.1906 -0.3591
 1320TIP3    H125375   2.532   0.129   2.479  0.5445 -0.4613  0.3610
 1320TIP3    H225376   2.526   0.025   2.589  0.8064 -2.1507 -1.1835
 1321TIP3   OH225377   0.475   0.410   5.110 -0.7507  0.1976  0.7015
 1321TIP3    H125378   0.505   0.349   5.178 -1.9484  0.7628  1.7758
 1321TIP3    H225379   0.528   0.388   5.033 -0.3484 -1.4166  1.3975
 1322TIP3   OH225380   3.523   0.557  15.141 -0.0646  0.2917  0.5299
 1322TIP3    H125381   3.548   0.627  15.081  1.3842  0.2252  1.0148
 1322TIP3    H225382   3.481   0.602  15.214 -1.3054  0.4221 -0.2303
 1323TIP3   OH225383   1.254   4.146   0.042  0.0327  0.5394 -0.0471
 1323TIP3    H125384   1.343   4.174   0.063  0.4818  0.8481 -2.1418
 1323TIP3    H225385   1.215   4.222  -0.001 -1.1377  0.2839  0.5476
 1324TIP3   OH225386   1.065   0.638  11.823 -0.0326  0.0779 -0.2139
 1324TIP3    H125387   1.098   0.548  11.822  1.3370  0.5528  0.1731
 1324TIP3    H225388   0.994   0.636  11.888 -0.3185 -0.8175 -0.5439
 1325TIP3   OH225389   0.395   2.142   2.069  0.0121  0.1029 -0.0349
 1325TIP3    H125390   0.384   2.076   2.138  0.0851 -1.4193 -1.4331
 1325TIP3    H225391   0.349   2.105   1.993  1.5672  0.8342 -1.3822
 1326TIP3   OH225392   6.520   3.704  14.190 -0.3192  0.0363  0.0335
 1326TIP3    H125393   6.454   3.733  14.127 -0.5582 -0.6720 -0.0449
 1326TIP3    H225394   6.538   3.783  14.242  1.2812  1.1740 -2.0931
 1327TIP3   OH225395   1.722   2.439   0.287 -0.6920 -0.1152 -0.6470
 1327TIP3    H125396   1.771   2.359   0.303 -2.1571 -0.7812  0.8242
 1327TIP3    H225397   1.653   2.412   0.225 -1.1898 -0.0004 -0.1472
 1328TIP3   OH225398   0.207   4.038   1.658 -0.3173  0.7171 -0.1214
 1328TIP3    H125399   0.209   4.040   1.754  2.4791  2.6712 -0.1060
 1328TIP3    H225400   0.133   4.094   1.634 -0.8281  0.4916  0.8758
 1329TIP3   OH225401   0.530   5.499   3.962  0.4385  0.6213 -0.4694
 1329TIP3    H125402   0.436   5.486   3.976  0.5813  0.1799  0.1669
 1329TIP3    H225403   0.567   5.411   3.968  0.8335  0.7291 -1.2488
 1330TIP3   OH225404   5.223   6.397  14.859 -0.6468  0.6349 -0.2502
 1330TIP3    H125405   5.189   6.399  14.949  0.2442  0.0430  0.1128
 1330TIP3    H225406   5.317   6.383  14.870 -0.5236  0.6358 -1.2820
 1331TIP3   OH225407   2.672   1.270  12.598  0.1952 -0.0623  0.1506
 1331TIP3    H125408   2.757   1.240  12.630  1.1484 -0.6842 -2.6067
 1331TIP3    H225409   2.685   1.362  12.576  0.8917 -0.6304 -2.1507
 1332TIP3   OH225410   3.314   4.568   2.952  0.2487 -0.1340  0.4540
 1332TIP3    H125411   3.231   4.531   2.922  0.0091  0.8162 -0.0997
 1332TIP3    H225412   3.372   4.492   2.961 -1.2189 -1.0928  2.7804
 1333TIP3   OH225413   0.328   2.133   2.555 -0.4748 -0.3030  0.4437
 1333TIP3    H125414   0.352   2.098   2.641 -2.7347 -2.3395  0.3539
 1333TIP3    H225415   0.343   2.227   2.562  3.0345 -0.8030  1.7437
 1334TIP3   OH225416   1.298   6.623   2.591 -0.3488 -0.3475  0.0874
 1334TIP3    H125417   1.258   6.541   2.619  0.2222 -0.9278 -0.7383
 1334TIP3    H225418   1.233   6.690   2.612 -1.3472 -1.1581 -0.3440
 1335TIP3   OH225419   3.212   0.118  11.630 -0.7071 -0.2574  0.2912
 1335TIP3    H125420   3.211   0.124  11.726 -0.7889 -0.5907  0.3117
 1335TIP3    H225421   3.295   0.157  11.605  0.2289 -1.9396  0.6283
 1336TIP3   OH225422   2.063   3.901  11.367  0.8447  0.1673  0.1697
 1336TIP3    H125423   2.123   3.903  11.292  0.3380 -1.0124 -0.2795
 1336TIP3    H225424   2.119   3.879  11.441  1.4419  1.8281  0.2688
 1337TIP3   OH225425   0.763   0.814  14.474 -0.1276  0.2328  0.0798
 1337TIP3    H125426   0.852   0.780  14.480  0.8448  2.1794 -2.0038
 1337TIP3    H225427   0.707   0.738  14.486  1.7837 -1.0254  1.5556
 1338TIP3   OH225428   5.698   3.188   4.098  0.1478 -0.0062  0.1155
 1338TIP3    H125429   5.724   3.128   4.168 -0.1765 -0.3657 -0.0692
 1338TIP3    H225430   5.753   3.163   4.024  0.5038  0.3864  0.2451
 1339TIP3   OH225431   3.461   3.527   4.184  0.1280 -0.5183 -0.1386
 1339TIP3    H125432   3.519   3.453   4.200  1.4289  0.5300  0.1231
 1339TIP3    H225433   3.414   3.504   4.104  0.8102 -1.4519 -0.2830
 1340TIP3   OH225434   5.077   2.196  17.081  0.4857 -0.3131  0.0199
 1340TIP3    H125435   5.158   2.245  17.097  0.0296  0.8181 -0.9591
 1340TIP3    H225436   5.072   2.189  16.985 -0.6317 -0.2454  0.0601
 1341TIP3   OH225437   1.656   4.013   0.579 -0.1619 -0.5890  0.1925
 1341TIP3    H125438   1.726   4.045   0.636  1.0711  0.1669 -1.6649
 1341TIP3    H225439   1.689   3.931   0.543 -0.7363 -0.8191  0.1690
 1342TIP3   OH225440   0.405   0.689  10.455  0.1167  0.0086  0.7627
 1342TIP3    H125441   0.416   0.743  10.533  1.4174  0.4606  0.3057
 1342TIP3    H225442   0.372   0.605  10.487  1.2083 -0.0199  1.8823
 1343TIP3   OH225443   6.396   2.017   0.439 -0.5202  0.4416  0.2874
 1343TIP3    H125444   6.324   2.063   0.482 -1.2777 -0.9303  0.5554
 1343TIP3    H225445   6.389   2.043   0.347 -2.1742 -0.6044  0.0594
 1344TIP3   OH225446   2.496   3.415   6.423 -0.2711  0.1580  0.2254
 1344TIP3    H125447   2.404   3.420   6.396  0.2670  2.0047 -1.5743
 1344TIP3    H225448   2.522   3.325   6.404 -1.4651 -0.1287 -0.1374
 1345TIP3   OH225449   6.735   4.424   1.034  0.1327 -0.3530  0.4870
 1345TIP3    H125450   6.818   4.469   1.020 -1.1373  1.3692 -2.6477
 1345TIP3    H225451   6.694   4.471   1.106 -0.0940  2.0774 -1.1105
 1346TIP3   OH225452   4.577   5.419  16.533  0.6028  0.3959 -0.1065
 1346TIP3    H125453   4.545   5.499  16.492  0.2615 -0.5167 -1.6932
 1346TIP3    H225454   4.503   5.386  16.583  0.9914  1.4658  1.2516
 1347TIP3   OH225455   0.455   3.037   1.987 -0.4226  0.3390 -0.0921
 1347TIP3    H125456   0.486   3.074   1.904  0.1025 -1.0973 -0.5678
 1347TIP3    H225457   0.533   3.033   2.042 -0.6493  0.7371  0.2577
 1348TIP3   OH225458   2.572   2.981  14.279 -0.0055 -0.2472 -0.3331
 1348TIP3    H125459   2.667   2.971  14.281  0.2925  1.0228 -3.3489
 1348TIP3    H225460   2.548   2.998  14.370  2.6617 -0.3169  0.4732
 1349TIP3   OH225461   1.990   4.732   3.818 -0.0355 -0.3309 -0.2035
 1349TIP3    H125462   1.983   4.711   3.912  0.3662 -0.2627 -0.1568
 1349TIP3    H225463   2.084   4.742   3.803 -0.2011  1.3934 -0.2383
 1350TIP3   OH225464   0.670   1.690   4.237  0.2993 -0.0572 -0.0999
 1350TIP3    H125465   0.719   1.616   4.272  1.9353  1.3413  0.7209
 1350TIP3    H225466   0.736   1.758   4.224 -1.3640  1.7947  0.7076
 1351TIP3   OH225467   4.017   2.473  15.747 -0.1981 -0.2152 -0.3251
 1351TIP3    H125468   4.019   2.527  15.668  1.0737 -0.8518 -0.7509
 1351TIP3    H225469   4.015   2.537  15.819 -0.7400  0.3692 -0.8468
 1352TIP3   OH225470   5.495   1.736  12.811  0.3059  0.8642 -0.0057
 1352TIP3    H125471   5.426   1.779  12.862 -0.4302  1.1813 -1.2253
 1352TIP3    H225472   5.528   1.668  12.869 -0.4059  1.2992  0.9487
 1353TIP3   OH225473   1.279   0.011  16.576  0.0766  0.6151  0.1418
 1353TIP3    H125474   1.302  -0.005  16.668  1.3926 -4.6165 -0.7993
 1353TIP3    H225475   1.351   0.066  16.544  1.0929  0.2017  1.5965
 1354TIP3   OH225476   0.730   1.016   4.784 -0.1360 -0.2662 -0.5461
 1354TIP3    H125477   0.647   0.992   4.743  0.8548 -0.4531 -2.5832
 1354TIP3    H225478   0.730   1.112   4.783  0.1402 -0.2577 -1.6623
 1355TIP3   OH225479   0.360   3.691  17.226 -0.2404  0.3381 -0.2395
 1355TIP3    H125480   0.303   3.627  17.269 -0.9840  1.7813  0.9865
 1355TIP3    H225481   0.316   3.710  17.143 -0.8493  0.4355  0.0973
 1356TIP3   OH225482   4.646   3.681   0.020  0.1497  0.1729  0.3071
 1356TIP3    H125483   4.707   3.608   0.011 -0.7800 -0.4849 -0.9295
 1356TIP3    H225484   4.600   3.664   0.102  2.6984  1.5581  2.1608
 1357TIP3   OH225485   6.318   6.697   5.383  0.3571 -0.3927 -0.0042
 1357TIP3    H125486   6.365   6.758   5.327  1.1091 -0.3457  0.6602
 1357TIP3    H225487   6.366   6.614   5.376  1.1983 -0.0645  1.4891
 1358TIP3   OH225488   5.736   4.045  10.582  0.5155  0.2069  0.9129
 1358TIP3    H125489   5.820   4.046  10.536 -1.1202 -2.5971 -2.6303
 1358TIP3    H225490   5.678   4.097  10.526 -0.5100  0.9113  2.5597
 1359TIP3   OH225491   6.503   6.601  13.783  0.0376  0.4336  1.0257
 1359TIP3    H125492   6.523   6.639  13.869  0.6962  1.7005  0.3388
 1359TIP3    H225493   6.583   6.614  13.731 -1.4119  2.7518 -0.8090
 1360TIP3   OH225494   0.697   3.782   4.231 -0.1011 -0.2973  0.0193
 1360TIP3    H125495   0.665   3.823   4.151  1.3741 -0.6605 -0.7940
 1360TIP3    H225496   0.691   3.688   4.214  2.1864 -0.4011 -0.5623
 1361TIP3   OH225497   1.946   0.521   1.255 -0.4029 -0.5901  0.4212
 1361TIP3    H125498   1.969   0.563   1.338 -3.2597  0.2117  0.9191
 1361TIP3    H225499   1.907   0.590   1.203 -0.4378 -1.5176 -0.8348
 1362TIP3   OH225500   1.609   6.784   4.533 -0.3031 -0.6444  0.0590
 1362TIP3    H125501   1.555   6.811   4.459  0.2461 -0.8027 -0.4008
 1362TIP3    H225502   1.655   6.706   4.503  1.4171  0.4088 -0.1413
 1363TIP3   OH225503   1.548   4.940   1.878  0.4441 -0.9361  0.5812
 1363TIP3    H125504   1.530   4.957   1.786 -1.3763  0.7246  1.1583
 1363TIP3    H225505   1.643   4.941   1.885  0.7436  3.5687 -0.6479
 1364TIP3   OH225506   5.959   0.209  11.293 -0.6158 -0.0663  0.3583
 1364TIP3    H125507   6.040   0.226  11.244 -0.1187 -1.1178  0.7964
 1364TIP3    H225508   5.929   0.296  11.319 -0.7479  0.5235 -1.5517
 1365TIP3   OH225509   6.604   2.788  14.445 -0.2900  0.0628  0.2292
 1365TIP3    H125510   6.637   2.850  14.381 -1.4836  1.5872  1.0236
 1365TIP3    H225511   6.563   2.842  14.513 -0.1671 -1.5399  1.6568
 1366TIP3   OH225512   1.028   6.264   5.859  0.0201  0.1505 -0.1779
 1366TIP3    H125513   0.974   6.331   5.901 -0.7731 -1.6421  1.8370
 1366TIP3    H225514   1.105   6.257   5.914 -0.2663 -1.0962  0.0987
 1367TIP3   OH225515   3.772   4.113  14.745 -0.1438 -0.2321  0.1642
 1367TIP3    H125516   3.832   4.103  14.819  0.8672 -0.3927 -0.6593
 1367TIP3    H225517   3.684   4.108  14.785  0.3368  1.9791  1.6478
 1368TIP3   OH225518   2.573   4.492  13.778  0.5134 -0.4114  0.0960
 1368TIP3    H125519   2.500   4.430  13.777  1.5849 -1.8953  3.1352
 1368TIP3    H225520   2.651   4.438  13.781  1.8555  1.1534 -2.3673
 1369TIP3   OH225521   2.175   4.692  16.468  0.1161 -0.0418  0.5907
 1369TIP3    H125522   2.163   4.756  16.538 -0.1698 -0.6825  1.1366
 1369TIP3    H225523   2.107   4.713  16.404 -0.0287  0.1423  0.8046
 1370TIP3   OH225524   1.863   5.313   3.073  0.2587 -0.1029  0.2064
 1370TIP3    H125525   1.823   5.251   3.011 -0.4135  0.3758  0.1444
 1370TIP3    H225526   1.830   5.285   3.159 -1.5633  1.2401  0.0134
 1371TIP3   OH225527   6.440   3.936  16.420 -0.0666  0.2980  0.1197
 1371TIP3    H125528   6.445   4.010  16.481  0.4113  0.9649 -0.7017
 1371TIP3    H225529   6.531   3.915  16.400 -0.1904 -0.7867  0.6527
 1372TIP3   OH225530   2.597   5.176  16.303 -0.0065  0.4031  0.3975
 1372TIP3    H125531   2.662   5.134  16.359  2.9131  3.2709 -0.5763
 1372TIP3    H225532   2.565   5.105  16.247  0.9373 -1.4340  2.0449
 1373TIP3   OH225533   6.478   0.269  12.739  0.4956  0.0295 -0.6150
 1373TIP3    H125534   6.467   0.184  12.698  0.0157  0.7311 -2.0073
 1373TIP3    H225535   6.568   0.295  12.717  0.3588  0.2488 -0.9206
 1374TIP3   OH225536   5.180   6.431  16.199  0.4383 -0.2883  0.3396
 1374TIP3    H125537   5.215   6.473  16.120 -0.8579  3.1908  1.4589
 1374TIP3    H225538   5.256   6.417  16.255  0.9090  0.6839 -0.0409
 1375TIP3   OH225539   1.875   5.964   1.749 -0.0750 -0.4744 -0.4813
 1375TIP3    H125540   1.802   6.027   1.746  1.3816  1.3003 -0.1024
 1375TIP3    H225541   1.891   5.951   1.843 -0.6557 -1.8150 -0.5464
 1376TIP3   OH225542   0.901   1.632  15.606  0.7820  0.3161  0.3526
 1376TIP3    H125543   0.846   1.584  15.668 -0.4577 -0.4905 -1.2692
 1376TIP3    H225544   0.897   1.722  15.635 -1.4755  0.2861  0.3287
 1377TIP3   OH225545   1.696   1.951   3.215 -0.5767 -0.0131 -0.6017
 1377TIP3    H125546   1.643   2.007   3.273  0.2080  1.5865 -1.3517
 1377TIP3    H225547   1.644   1.945   3.135 -0.8724 -0.7760 -0.3577
 1378TIP3   OH225548   3.443   4.009  16.570 -0.4482 -0.1799 -0.0737
 1378TIP3    H125549   3.530   4.020  16.608 -0.8932 -3.5440  2.4285
 1378TIP3    H225550   3.459   3.986  16.479  1.3333 -0.8273  0.3563
 1379TIP3   OH225551   4.680   2.183   5.514  0.1461  0.0775 -0.0258
 1379TIP3    H125552   4.774   2.172   5.499  0.0461  0.5535 -1.0898
 1379TIP3    H225553   4.642   2.190   5.426 -1.0337 -1.1627  0.3546
 1380TIP3   OH225554   0.612   4.219  11.077 -0.0554 -0.2148 -0.0885
 1380TIP3    H125555   0.591   4.307  11.109 -0.5631 -0.5296  0.4814
 1380TIP3    H225556   0.527   4.178  11.061  0.1890 -0.3686 -1.0138
 1381TIP3   OH225557   4.731   5.938  11.216 -0.1337 -0.3539 -0.0515
 1381TIP3    H125558   4.816   5.914  11.178  0.6873  0.0750  1.4133
 1381TIP3    H225559   4.695   6.002  11.155  1.1839  0.3974 -0.0971
 1382TIP3   OH225560   2.123   5.134   3.032  0.1586 -0.2757  0.1250
 1382TIP3    H125561   2.080   5.140   3.117 -0.5324  0.0635 -0.2405
 1382TIP3    H225562   2.188   5.065   3.043 -0.3974 -0.7150  0.7252
 1383TIP3   OH225563   3.856   2.749  12.726 -0.2139 -0.0390  0.2302
 1383TIP3    H125564   3.793   2.705  12.783  0.2599  0.0172  0.7918
 1383TIP3    H225565   3.941   2.717  12.754  0.1160  0.9873  0.4350
 1384TIP3   OH225566   2.439   6.275  15.268 -0.1126 -0.5551  0.1748
 1384TIP3    H125567   2.398   6.361  15.277  0.8043 -0.2482  1.8672
 1384TIP3    H225568   2.471   6.255  15.356  0.9200 -2.0012 -0.4965
 1385TIP3   OH225569   6.595   3.555   4.354 -0.2047 -0.1902  0.2829
 1385TIP3    H125570   6.533   3.577   4.285  0.4912  0.8497 -0.0345
 1385TIP3    H225571   6.600   3.633   4.408 -1.3315 -1.2545  2.0065
 1386TIP3   OH225572   2.640   4.083   0.337  0.0607 -1.1043  0.4068
 1386TIP3    H125573   2.593   4.106   0.417  0.2759 -0.9350  0.4823
 1386TIP3    H225574   2.676   4.165   0.305 -1.4983 -0.8387 -0.8289
 1387TIP3   OH225575   3.603   1.919  14.449  0.3826 -0.3263 -0.1611
 1387TIP3    H125576   3.656   1.852  14.406  2.0104  0.3537  0.6844
 1387TIP3    H225577   3.643   1.930  14.535 -0.2171  1.2940 -0.0478
 1388TIP3   OH225578   1.374   1.417  12.738 -0.1683 -0.3016  0.6470
 1388TIP3    H125579   1.449   1.458  12.782  0.1835  2.4381 -2.1352
 1388TIP3    H225580   1.331   1.489  12.692 -1.5661 -2.5796 -1.9068
 1389TIP3   OH225581   5.583   1.267  12.062 -0.0061 -0.1906 -0.3529
 1389TIP3    H125582   5.600   1.224  11.979 -1.0210 -3.9862  1.1980
 1389TIP3    H225583   5.670   1.283  12.099  0.4647 -2.3168 -0.4197
 1390TIP3   OH225584   3.546   5.953   3.576  0.2832 -0.2343 -0.4683
 1390TIP3    H125585   3.601   5.878   3.599 -2.2876 -1.6266  1.8457
 1390TIP3    H225586   3.591   5.995   3.504  2.7687 -3.0026 -0.7177
 1391TIP3   OH225587   6.745   1.354  14.185 -0.0554  0.1547  0.2043
 1391TIP3    H125588   6.701   1.284  14.234 -0.4109 -0.6275 -1.1864
 1391TIP3    H225589   6.814   1.384  14.245 -0.9787 -0.2066  1.4926
 1392TIP3   OH225590   2.469   0.837  16.947 -0.6124 -0.0155  0.6125
 1392TIP3    H125591   2.412   0.821  17.023 -0.3338 -0.2250  0.7807
 1392TIP3    H225592   2.409   0.841  16.872 -0.7368 -1.7487  0.5739
 1393TIP3   OH225593   5.594   4.376   1.903  0.0458  0.3051 -0.0240
 1393TIP3    H125594   5.594   4.470   1.915 -0.8781  0.5370 -1.6078
 1393TIP3    H225595   5.523   4.359   1.842 -0.4245 -1.5303  0.9449
 1394TIP3   OH225596   0.755   3.196  14.653  0.4678 -0.3586  0.1220
 1394TIP3    H125597   0.788   3.108  14.634  1.6711  0.0677  0.2019
 1394TIP3    H225598   0.823   3.237  14.706 -0.7046  0.1468  1.2887
 1395TIP3   OH225599   0.887   4.608   1.703 -0.3733  0.6649 -0.3242
 1395TIP3    H125600   0.836   4.688   1.690 -1.7483 -0.2342 -0.6851
 1395TIP3    H225601   0.964   4.620   1.648  0.6700  2.7365  1.4493
 1396TIP3   OH225602   2.977   0.050   1.954 -0.2632 -0.3678 -0.4635
 1396TIP3    H125603   2.937   0.135   1.938  0.4512 -0.0784 -0.7772
 1396TIP3    H225604   2.946   0.024   2.040 -1.4905 -0.3735 -0.8910
 1397TIP3   OH225605   6.559   3.786   4.492  0.3155 -0.2367 -0.4653
 1397TIP3    H125606   6.602   3.858   4.446  0.3630  0.2842  0.3873
 1397TIP3    H225607   6.489   3.828   4.543  0.1004 -0.8369 -0.2545
 1398TIP3   OH225608   2.198   2.851   3.260  0.3313 -0.2101 -0.3148
 1398TIP3    H125609   2.265   2.900   3.308  1.3601 -1.8075 -0.0575
 1398TIP3    H225610   2.124   2.845   3.322 -0.2096  1.7402 -0.6775
 1399TIP3   OH225611   1.569   6.661  16.341 -0.1579 -0.2232  0.4569
 1399TIP3    H125612   1.569   6.736  16.401 -0.3723  0.0998  0.0574
 1399TIP3    H225613   1.654   6.664  16.298  0.3925 -1.0272  1.4405
 1400TIP3   OH225614   3.838   4.723  11.453  1.0296 -0.9215  0.2950
 1400TIP3    H125615   3.820   4.808  11.412  0.7485 -0.2524  1.7314
 1400TIP3    H225616   3.768   4.666  11.420 -0.3505  0.1101  1.2824
 1401TIP3   OH225617   1.336   0.332  16.938  0.3661  0.1562 -0.5499
 1401TIP3    H125618   1.431   0.331  16.924  0.9467 -0.5650  2.6274
 1401TIP3    H225619   1.326   0.319  17.032 -2.9731 -2.1024 -1.0515
 1402TIP3   OH225620   6.005   2.221   3.115 -0.4449  0.8236  0.1462
 1402TIP3    H125621   5.936   2.183   3.062 -0.8031  0.0469  1.1286
 1402TIP3    H225622   6.086   2.185   3.079 -0.4347  2.3737 -1.5325
 1403TIP3   OH225623   2.615   5.325   0.894 -0.6320  0.2267 -0.1640
 1403TIP3    H125624   2.600   5.380   0.971 -2.0278  0.2789 -0.4515
 1403TIP3    H225625   2.629   5.237   0.930  0.2464  0.5130  0.2210
 1404TIP3   OH225626   4.682   0.696   1.789  0.2090  0.1797  0.3534
 1404TIP3    H125627   4.678   0.733   1.700  0.3714 -1.1386 -0.2171
 1404TIP3    H225628   4.771   0.663   1.797 -0.2765 -1.1990  0.3686
 1405TIP3   OH225629   1.761   0.844   3.367  0.1487 -0.5095  0.0882
 1405TIP3    H125630   1.773   0.908   3.437  0.3017  0.6459 -0.9559
 1405TIP3    H225631   1.732   0.896   3.292 -0.9887 -1.8465 -0.4435
 1406TIP3   OH225632   5.491   6.385  15.504  0.2342  0.3290 -0.5554
 1406TIP3    H125633   5.546   6.348  15.573  1.4216  0.3036 -1.4789
 1406TIP3    H225634   5.458   6.467  15.541  1.4996  0.7126 -0.2211
 1407TIP3   OH225635   2.802   5.382  12.934 -0.1304 -0.0912  0.2404
 1407TIP3    H125636   2.854   5.459  12.955 -0.6616  0.5742 -0.7715
 1407TIP3    H225637   2.748   5.367  13.012  2.7075 -1.8603  2.0380
 1408TIP3   OH225638   0.768   0.224  15.733 -0.3822 -0.5106 -0.2005
 1408TIP3    H125639   0.674   0.239  15.738 -0.2690  0.2269 -0.1785
 1408TIP3    H225640   0.799   0.283  15.664  0.4644  1.3625  1.6600
 1409TIP3   OH225641   2.554   4.035  16.494 -0.3360  0.0029  0.1912
 1409TIP3    H125642   2.626   4.098  16.493  0.9836 -1.4148 -0.2406
 1409TIP3    H225643   2.484   4.077  16.444 -0.2071  1.8307  1.4591
 1410TIP3   OH225644   4.262   0.832  11.447 -0.2681  0.1857 -0.4267
 1410TIP3    H125645   4.238   0.887  11.522  1.4965  0.0814  0.2553
 1410TIP3    H225646   4.200   0.856  11.378 -0.6889  1.6941  0.4467
 1411TIP3   OH225647   3.168   4.002   2.730 -0.3006 -0.3597  0.5609
 1411TIP3    H125648   3.167   3.912   2.763 -0.6995 -0.4114  0.4045
 1411TIP3    H225649   3.193   4.055   2.807 -1.9349 -0.4034  1.1550
 1412TIP3   OH225650   2.243   0.324   2.407  0.0403 -0.4934  0.2519
 1412TIP3    H125651   2.190   0.331   2.328 -1.3069 -1.5851  1.0210
 1412TIP3    H225652   2.328   0.362   2.382 -1.5505  2.9827 -0.5356
 1413TIP3   OH225653   1.558   4.069  13.970 -0.4097 -0.2262  0.7747
 1413TIP3    H125654   1.535   4.086  14.061 -1.5145  0.4217  0.3882
 1413TIP3    H225655   1.546   3.975  13.959  0.0694 -0.3667  1.3814
 1414TIP3   OH225656   3.702   0.030   3.465 -0.2039  0.3804  0.0206
 1414TIP3    H125657   3.718  -0.060   3.436 -0.1231  0.1999  0.6124
 1414TIP3    H225658   3.746   0.036   3.550  1.6007  1.6028 -0.9384
 1415TIP3   OH225659   3.155   3.192  14.164 -0.1525  0.7206  0.4400
 1415TIP3    H125660   3.099   3.261  14.201  1.0237  0.7539  2.2732
 1415TIP3    H225661   3.212   3.238  14.102 -0.9053  0.9770 -0.0851
 1416TIP3   OH225662   3.427   0.750   0.733 -0.1654 -0.0360 -0.0151
 1416TIP3    H125663   3.462   0.702   0.809 -0.9799 -0.2849  0.2196
 1416TIP3    H225664   3.490   0.819   0.717  1.0902 -1.2308 -0.4046
 1417TIP3   OH225665   4.488   3.014   4.619  0.2113  0.1767 -0.5924
 1417TIP3    H125666   4.553   2.986   4.554  0.2378  0.7154 -0.8018
 1417TIP3    H225667   4.405   2.981   4.586  0.4187 -0.9074 -0.0986
 1418TIP3   OH225668   2.441   5.013   1.863 -0.0983  0.1697 -0.2385
 1418TIP3    H125669   2.518   4.963   1.834  0.8134  1.0407  0.6186
 1418TIP3    H225670   2.473   5.067   1.935 -1.8070 -0.3707  0.9870
 1419TIP3   OH225671   4.005   4.814  15.427  0.0374 -0.0447  0.4260
 1419TIP3    H125672   4.069   4.821  15.499 -0.5769  0.6908  0.9239
 1419TIP3    H225673   4.053   4.842  15.350  0.0132  1.7421  1.0038
 1420TIP3   OH225674   4.459   1.788  14.043  0.5718 -0.1826 -0.2423
 1420TIP3    H125675   4.432   1.762  14.131  1.5118  0.8554  0.3784
 1420TIP3    H225676   4.539   1.838  14.056  0.5843  0.2233 -1.6729
 1421TIP3   OH225677   3.292   4.820   2.672 -0.1211  0.0101  0.1060
 1421TIP3    H125678   3.251   4.901   2.641  1.0660  0.1769 -1.1603
 1421TIP3    H225679   3.259   4.808   2.761 -2.6222  0.2818 -0.7049
 1422TIP3   OH225680   0.075   3.457  16.216 -0.0604 -0.1157 -0.4270
 1422TIP3    H125681   0.168   3.477  16.224 -0.5546  2.0635  0.6169
 1422TIP3    H225682   0.059   3.451  16.122  1.2636 -1.4525 -0.6059
 1423TIP3   OH225683   0.477   1.812   2.171 -0.1055  0.7865  0.1916
 1423TIP3    H125684   0.567   1.786   2.188  0.1390  1.3699 -0.1687
 1423TIP3    H225685   0.465   1.795   2.077 -0.6837 -0.1940  0.4279
 1424TIP3   OH225686   4.082   4.658   5.693  0.0358 -0.1650  0.5346
 1424TIP3    H125687   4.033   4.623   5.767  0.7201 -0.9186  0.6404
 1424TIP3    H225688   4.164   4.691   5.731  0.5276 -0.8396  0.0833
 1425TIP3   OH225689   1.055   3.157  17.108 -0.1719  0.0953 -0.1300
 1425TIP3    H125690   1.024   3.244  17.131 -0.1504 -0.1073  0.7246
 1425TIP3    H225691   1.028   3.102  17.182 -1.6151 -0.9563 -1.3714
 1426TIP3   OH225692   6.519   2.715   0.192 -0.9019  0.1903  0.6819
 1426TIP3    H125693   6.609   2.743   0.175 -1.8498  2.4719 -1.0140
 1426TIP3    H225694   6.476   2.791   0.231 -3.0622  0.5990 -2.1590
 1427TIP3   OH225695   1.461   4.797  14.505 -0.2106  0.5278 -0.7684
 1427TIP3    H125696   1.378   4.762  14.536 -0.9704  2.9668  0.1863
 1427TIP3    H225697   1.526   4.762  14.566 -0.6738 -0.4572 -0.8215
 1428TIP3   OH225698   5.404   1.565   0.412 -0.2911  0.3045 -0.4474
 1428TIP3    H125699   5.348   1.571   0.489  0.3186  0.4213 -0.0089
 1428TIP3    H225700   5.493   1.576   0.446 -0.0015  0.1146 -1.1349
 1429TIP3   OH225701   1.610   5.240   2.575  0.0839 -0.2134 -0.1365
 1429TIP3    H125702   1.622   5.330   2.606  0.9126 -0.7583  1.2446
 1429TIP3    H225703   1.699   5.208   2.559 -0.2637 -0.4106 -1.8303
 1430TIP3   OH225704   4.653   1.861  15.553 -0.0653  0.2758  0.3586
 1430TIP3    H125705   4.706   1.930  15.513 -0.0551 -0.5906 -1.2124
 1430TIP3    H225706   4.711   1.819  15.616  1.1648 -0.6401 -1.3145
 1431TIP3   OH225707   1.069   1.233  12.062  0.3360  0.0959  0.3918
 1431TIP3    H125708   1.020   1.299  12.012 -0.5863  0.4108  1.6791
 1431TIP3    H225709   1.034   1.238  12.150  1.7928 -0.6122  1.0453
 1432TIP3   OH225710   0.501   4.822  14.912  0.1600  0.7678  0.1822
 1432TIP3    H125711   0.468   4.908  14.938  1.4529  0.7786  2.0084
 1432TIP3    H225712   0.596   4.828  14.923  0.1905 -1.2295  1.5660
 1433TIP3   OH225713   5.342   0.865  13.276  0.0169  0.1058  0.2885
 1433TIP3    H125714   5.319   0.921  13.202 -1.0545 -1.1228 -0.3404
 1433TIP3    H225715   5.342   0.776  13.240  0.0901 -0.4594  1.6305
 1434TIP3   OH225716   3.235   0.995  15.853 -0.5113  0.6816 -0.2690
 1434TIP3    H125717   3.141   0.984  15.865  0.0483 -2.2934  2.9518
 1434TIP3    H225718   3.256   1.074  15.905 -0.8936 -0.6109  1.9890
 1435TIP3   OH225719   6.343   3.621  12.378 -0.1945 -0.3603 -0.0268
 1435TIP3    H125720   6.334   3.688  12.310  0.6943 -0.1524  0.0501
 1435TIP3    H225721   6.278   3.646  12.444  0.4888  0.7464  0.2558
 1436TIP3   OH225722   3.621   3.329  13.031 -0.2118 -0.1928  0.1745
 1436TIP3    H125723   3.643   3.236  13.040  2.1537  0.2863 -0.1257
 1436TIP3    H225724   3.672   3.373  13.098 -0.8861  0.9677 -0.0440
 1437TIP3   OH225725   5.662   5.162  13.139 -0.9301 -0.0721  0.3766
 1437TIP3    H125726   5.676   5.137  13.048 -0.9481  0.8112  0.1193
 1437TIP3    H225727   5.636   5.254  13.135 -2.2341 -0.3847  1.1786
 1438TIP3   OH225728   5.601   4.160   2.394 -0.0834  0.0709 -0.6803
 1438TIP3    H125729   5.692   4.177   2.418  0.3838 -0.7791 -1.7437
 1438TIP3    H225730   5.574   4.238   2.345 -0.1728  0.6336  0.2444
 1439TIP3   OH225731   1.752   4.214   3.370 -0.2495  0.2558  0.1881
 1439TIP3    H125732   1.771   4.307   3.380  1.8202 -0.1403  0.5102
 1439TIP3    H225733   1.837   4.175   3.349 -0.9974 -1.6142  0.4408
 1440TIP3   OH225734   5.687   5.782   0.270  0.0031 -0.3705  0.0056
 1440TIP3    H125735   5.765   5.794   0.323 -0.3104 -2.0384  0.9161
 1440TIP3    H225736   5.695   5.847   0.200  1.7534  0.0707  0.5693
 1441TIP3   OH225737   4.536   3.767   3.406  0.6504  0.3148  0.5259
 1441TIP3    H125738   4.529   3.862   3.405 -0.5929  0.2878  2.4752
 1441TIP3    H225739   4.581   3.746   3.488 -0.6586 -0.8266  0.9905
 1442TIP3   OH225740   6.789   1.047   2.509 -0.1918 -0.2205 -0.2487
 1442TIP3    H125741   6.731   1.115   2.542  1.1612  1.4884 -1.1979
 1442TIP3    H225742   6.736   0.998   2.447 -1.0685  0.2429  0.1151
 1443TIP3   OH225743   0.043   3.397   0.711 -0.3693 -0.2056  0.5029
 1443TIP3    H125744   0.106   3.363   0.648 -1.4808 -0.6361 -0.4304
 1443TIP3    H225745   0.089   3.398   0.794  1.7725  2.0797 -0.5712
 1444TIP3   OH225746   4.462   4.404  17.185 -0.3173  0.5515  0.6144
 1444TIP3    H125747   4.452   4.385  17.091 -0.4613 -0.3869  0.8110
 1444TIP3    H225748   4.397   4.348  17.227 -1.6285  2.3730  1.1603
 1445TIP3   OH225749   5.873   0.967   4.626 -0.5078  0.0106  0.2167
 1445TIP3    H125750   5.938   0.901   4.650 -0.3840  0.4626  1.1745
 1445TIP3    H225751   5.799   0.951   4.685 -1.3410 -0.5958 -0.9701
 1446TIP3   OH225752   0.288   2.572  15.613  0.0362  0.9723 -0.2661
 1446TIP3    H125753   0.342   2.533  15.543 -0.1859  0.5419 -0.1987
 1446TIP3    H225754   0.199   2.571  15.578 -0.1415  0.3643  0.1851
 1447TIP3   OH225755   2.677   2.135  13.354 -0.1166 -0.5617  0.2938
 1447TIP3    H125756   2.646   2.139  13.264 -0.9367  0.4768  0.6102
 1447TIP3    H225757   2.598   2.147  13.408  0.4589 -0.4807  1.1423
 1448TIP3   OH225758   2.491   5.968   0.872 -0.4176 -0.0018 -0.3437
 1448TIP3    H125759   2.558   5.990   0.936  0.2199 -0.3219 -0.8818
 1448TIP3    H225760   2.436   6.046   0.866 -1.3031 -0.4206  1.5609
 1449TIP3   OH225761   0.475   4.135   0.364  0.2121 -0.1804 -0.6235
 1449TIP3    H125762   0.485   4.176   0.278  1.8918 -1.4881 -1.0991
 1449TIP3    H225763   0.384   4.106   0.367  0.2566 -0.5218 -2.1638
 1450TIP3   OH225764   4.484   2.533   0.906 -0.7619 -0.3542 -0.0691
 1450TIP3    H125765   4.469   2.456   0.960  1.1942  1.2685  3.0951
 1450TIP3    H225766   4.436   2.603   0.949  0.2234  0.8761 -0.8763
 1451TIP3   OH225767   1.271   4.051  13.808 -0.0182  0.4222 -0.3267
 1451TIP3    H125768   1.352   4.101  13.800  0.1757  0.1616 -0.0499
 1451TIP3    H225769   1.231   4.085  13.888  1.3609 -1.5659  1.3293
 1452TIP3   OH225770   6.714   3.895  16.360 -0.6247  0.1422  0.2708
 1452TIP3    H125771   6.712   3.801  16.378 -2.3415  0.1537  0.3294
 1452TIP3    H225772   6.789   3.928  16.409 -1.6757 -0.7547  2.5902
 1453TIP3   OH225773   2.173   3.372   1.120 -0.3042  0.2297 -0.5527
 1453TIP3    H125774   2.180   3.398   1.212  1.4766 -2.1919  0.0789
 1453TIP3    H225775   2.193   3.279   1.119 -0.2201  0.1839 -3.4356
 1454TIP3   OH225776   1.417   3.688   3.325 -0.6172  0.0264  0.2124
 1454TIP3    H125777   1.341   3.637   3.351 -1.6016  1.8655  1.1579
 1454TIP3    H225778   1.492   3.641   3.362 -1.5220 -0.4844  1.4684
 1455TIP3   OH225779   3.492   4.834  11.564 -0.5432 -0.0559 -0.4161
 1455TIP3    H125780   3.436   4.844  11.641  0.4443  0.6470  0.2228
 1455TIP3    H225781   3.515   4.923  11.539 -0.9421 -0.2632 -1.6199
 1456TIP3   OH225782   1.861   6.453   5.110 -0.1041 -0.3050 -0.1999
 1456TIP3    H125783   1.816   6.517   5.164 -0.4526 -0.9099  0.2372
 1456TIP3    H225784   1.910   6.505   5.046  1.2503  0.4731  1.4036
 1457TIP3   OH225785   1.383   3.477   2.077 -0.6320 -0.1525  0.5069
 1457TIP3    H125786   1.373   3.554   2.022 -0.9300 -0.8817 -0.4961
 1457TIP3    H225787   1.300   3.429   2.068  0.4342 -1.8720 -0.9794
 1458TIP3   OH225788   6.580   2.887  12.200  0.3464 -0.2009 -0.1095
 1458TIP3    H125789   6.548   2.800  12.176 -0.3804 -0.0535  0.2977
 1458TIP3    H225790   6.661   2.870  12.249  0.4872 -0.6134 -0.4737
 1459TIP3   OH225791   2.572   3.665  12.902 -0.5213  0.2578  0.4607
 1459TIP3    H125792   2.621   3.720  12.964 -1.8079  0.7522  1.0786
 1459TIP3    H225793   2.585   3.576  12.934 -1.8210  0.5625  1.9731
 1460TIP3   OH225794   5.851   3.587  16.495  0.3155  0.4595 -0.2004
 1460TIP3    H125795   5.822   3.526  16.427  3.1118 -1.2871  0.0156
 1460TIP3    H225796   5.858   3.672  16.450 -0.0597 -0.1730 -1.4960
 1461TIP3   OH225797   2.335   1.752   2.608 -0.0715  0.8395  0.6323
 1461TIP3    H125798   2.302   1.664   2.593  1.4963  0.1288  1.1537
 1461TIP3    H225799   2.344   1.789   2.520 -0.3520  0.3345  0.3857
 1462TIP3   OH225800   0.139   2.375  16.123  0.1641 -0.1642 -0.0603
 1462TIP3    H125801   0.190   2.326  16.058  0.0612  1.5539 -1.5339
 1462TIP3    H225802   0.204   2.402  16.189  0.7634  0.1075 -0.7441
 1463TIP3   OH225803   4.048   4.832  14.851  0.3379  0.3042  0.2473
 1463TIP3    H125804   4.055   4.778  14.930 -0.2649 -0.2085 -0.0442
 1463TIP3    H225805   4.046   4.769  14.779 -1.9945  0.5927 -0.0150
 1464TIP3   OH225806   2.405   0.227  13.942  0.1700 -0.5901  0.0074
 1464TIP3    H125807   2.327   0.280  13.958 -0.3543 -1.2615 -0.3026
 1464TIP3    H225808   2.439   0.259  13.857 -0.4119 -1.0658 -0.4083
 1465TIP3   OH225809   2.890   3.095   0.335  0.4944 -0.3295 -0.9798
 1465TIP3    H125810   2.985   3.099   0.332  0.5126 -0.8906 -1.3987
 1465TIP3    H225811   2.862   3.186   0.349  1.0690 -0.0410 -1.6402
 1466TIP3   OH225812   0.884   5.179  10.857  0.0836  0.2487 -0.0693
 1466TIP3    H125813   0.946   5.111  10.882 -0.6704 -0.9882 -1.4286
 1466TIP3    H225814   0.841   5.204  10.940  1.3344  0.0858  0.6470
 1467TIP3   OH225815   6.695   2.818  11.927  0.3134  0.3294 -0.3683
 1467TIP3    H125816   6.624   2.773  11.973  0.4985 -1.0609 -1.3708
 1467TIP3    H225817   6.650   2.867  11.858  0.1884  0.9851  0.1671
 1468TIP3   OH225818   4.370   5.514  14.762  0.1642 -0.3026 -0.7181
 1468TIP3    H125819   4.458   5.476  14.772  1.1263  1.5747 -1.6270
 1468TIP3    H225820   4.341   5.532  14.852  0.6663 -1.0040 -0.4055
 1469TIP3   OH225821   1.441   6.026   3.006 -0.1913 -0.0176 -0.2882
 1469TIP3    H125822   1.500   6.014   2.931 -2.3508 -2.4704 -1.7492
 1469TIP3    H225823   1.479   5.971   3.075  0.0284 -0.4621 -0.7522
 1470TIP3   OH225824   6.780   6.507   1.922  0.2852  0.0094 -0.7968
 1470TIP3    H125825   6.727   6.578   1.887  0.1987 -0.6974 -2.1491
 1470TIP3    H225826   6.736   6.427   1.891  0.3064 -0.6569  0.7867
 1471TIP3   OH225827   3.293   5.639   1.439  0.2113 -0.0766 -0.6085
 1471TIP3    H125828   3.364   5.691   1.401 -0.1086  0.0769 -0.9935
 1471TIP3    H225829   3.250   5.598   1.365 -1.1465  1.1414 -0.5334
 1472TIP3   OH225830   4.036   3.913   0.542  0.5782 -0.1765  0.1610
 1472TIP3    H125831   4.116   3.949   0.505  1.4271 -2.6258 -0.5371
 1472TIP3    H225832   3.966   3.961   0.497  1.5944 -1.3759 -2.9500
 1473TIP3   OH225833   4.116   5.585  11.106  0.0833  0.4558  0.2989
 1473TIP3    H125834   4.155   5.650  11.164  0.6939  0.6709 -0.3359
 1473TIP3    H225835   4.047   5.544  11.159  1.2575 -0.0354  1.5210
 1474TIP3   OH225836   1.226   5.220  10.860  0.3340  0.3214 -0.0565
 1474TIP3    H125837   1.216   5.307  10.898  3.1624  0.6147  0.2306
 1474TIP3    H225838   1.142   5.202  10.818 -1.5121  1.7535  2.6808
 1475TIP3   OH225839   2.777   2.304  11.626  0.8145  0.0802 -0.2767
 1475TIP3    H125840   2.694   2.258  11.633  0.9832 -0.4056 -1.3160
 1475TIP3    H225841   2.842   2.240  11.654  1.0575 -0.3876 -1.8007
 1476TIP3   OH225842   4.108   4.196   4.571 -0.3687 -0.5578  0.2633
 1476TIP3    H125843   4.044   4.256   4.534 -0.3168 -0.5956  0.1142
 1476TIP3    H225844   4.055   4.133   4.621 -0.5651 -1.3743 -0.9364
 1477TIP3   OH225845   2.406   5.302   5.489  0.3059 -0.6738 -0.0185
 1477TIP3    H125846   2.395   5.348   5.572 -0.0233 -0.5218 -0.1461
 1477TIP3    H225847   2.469   5.356   5.441  0.7218 -0.9175  0.2451
 1478TIP3   OH225848   1.236   6.211   0.994  0.2002 -0.0820 -0.8117
 1478TIP3    H125849   1.272   6.256   0.918 -1.2652  0.5346 -1.1689
 1478TIP3    H225850   1.148   6.248   1.005 -0.0793 -1.0438  0.4307
 1479TIP3   OH225851   1.253   0.140   1.502 -0.0812  0.4268  0.5253
 1479TIP3    H125852   1.260   0.058   1.453 -4.1093  0.4340 -0.3965
 1479TIP3    H225853   1.344   0.170   1.511  1.2435 -1.9955 -2.7174
 1480TIP3   OH225854   3.997   3.161  16.399 -0.1229 -0.1310  0.0306
 1480TIP3    H125855   4.013   3.095  16.467  2.1098  1.6701  1.4051
 1480TIP3    H225856   3.952   3.232  16.445  0.2943  0.5984 -0.6810
 1481TIP3   OH225857   0.094   0.316   0.302  0.3958  0.6619 -0.4259
 1481TIP3    H125858   0.108   0.273   0.218  0.9357 -1.0482  0.4886
 1481TIP3    H225859   0.125   0.405   0.289 -1.1555  0.9846 -2.5272
 1482TIP3   OH225860   4.028   1.886  16.833 -0.1708  0.3506 -0.0412
 1482TIP3    H125861   3.972   1.868  16.757  0.4132 -1.0586 -0.1715
 1482TIP3    H225862   4.098   1.940  16.798  1.3794 -2.1771 -1.1182
 1483TIP3   OH225863   5.716   2.728  11.117  0.5369  0.1861  0.2319
 1483TIP3    H125864   5.727   2.721  11.212 -2.4872 -1.5591  0.5653
 1483TIP3    H225865   5.700   2.821  11.102 -0.4529  0.2844  1.6804
 1484TIP3   OH225866   0.715   2.554  16.568  0.3935  0.7092 -0.0819
 1484TIP3    H125867   0.672   2.635  16.543 -1.6677 -0.4155 -0.4247
 1484TIP3    H225868   0.796   2.553  16.517 -1.1955  0.9424 -2.8237
 1485TIP3   OH225869   6.545   4.615  12.528 -0.1491 -0.0691 -0.1367
 1485TIP3    H125870   6.567   4.708  12.536  2.0656 -0.6619  1.4765
 1485TIP3    H225871   6.504   4.608  12.442  0.5867  2.2283 -0.7476
 1486TIP3   OH225872   0.536   5.580  16.183 -0.2146  0.4327  0.3519
 1486TIP3    H125873   0.518   5.611  16.272  1.5748  0.0268  0.8998
 1486TIP3    H225874   0.579   5.654  16.141  0.8889 -0.0868  0.5350
 1487TIP3   OH225875   2.296   4.033  10.055  0.4746  0.0614  0.1867
 1487TIP3    H125876   2.240   3.978  10.001  0.8189  0.8959 -1.0880
 1487TIP3    H225877   2.385   4.012  10.026  0.6011  1.3779 -0.4701
 1488TIP3   OH225878   4.414   3.161  15.108 -0.5793  0.0578 -0.5393
 1488TIP3    H125879   4.443   3.090  15.050 -0.8576  0.7508 -1.5614
 1488TIP3    H225880   4.339   3.124  15.154 -1.9113  0.2299 -2.4332
 1489TIP3   OH225881   3.423   1.036  12.640 -0.3669 -0.6245 -0.0144
 1489TIP3    H125882   3.502   1.088  12.660 -0.6522 -0.1895  0.0064
 1489TIP3    H225883   3.438   0.952  12.684  0.2309 -0.6655 -0.2900
 1490TIP3   OH225884   1.988   0.321   3.151 -0.4418  0.0091 -0.5429
 1490TIP3    H125885   1.958   0.403   3.189 -1.1124 -0.0788 -0.8726
 1490TIP3    H225886   2.027   0.274   3.224 -0.5065  0.4091 -0.2473
 1491TIP3   OH225887   4.342   1.253  15.233  0.3521  0.2208 -0.1361
 1491TIP3    H125888   4.387   1.170  15.216  1.6706  0.9206 -0.2553
 1491TIP3    H225889   4.324   1.253  15.327 -0.9031 -0.7745 -0.3542
 1492TIP3   OH225890   2.173   4.307  16.640  0.2035  0.3559  0.1237
 1492TIP3    H125891   2.109   4.377  16.633  0.7431  0.7970 -0.4681
 1492TIP3    H225892   2.243   4.332  16.580  1.6712  0.6779  1.8949
 1493TIP3   OH225893   1.693   3.312  16.219  0.1219  0.2293  0.2709
 1493TIP3    H125894   1.700   3.395  16.267  0.1574 -1.1252  2.7493
 1493TIP3    H225895   1.610   3.275  16.249  0.0548 -0.6195 -0.9035
 1494TIP3   OH225896   1.523   2.576   4.754  0.4896 -0.7567  0.1876
 1494TIP3    H125897   1.476   2.506   4.800  0.8799 -0.1584  1.5489
 1494TIP3    H225898   1.602   2.534   4.720  1.1104 -0.8502  1.6631
 1495TIP3   OH225899   2.401   2.610   2.223  0.3339 -0.1053 -1.1299
 1495TIP3    H125900   2.407   2.554   2.300  2.5203  0.1941 -1.0111
 1495TIP3    H225901   2.312   2.596   2.190 -0.0458 -1.6300  0.3783
 1496TIP3   OH225902   0.739   6.040   5.148 -0.3938 -0.0956  0.3141
 1496TIP3    H125903   0.813   6.101   5.155  0.3026 -1.0011  1.1670
 1496TIP3    H225904   0.748   6.000   5.062 -0.2280  0.1955  0.1931
 1497TIP3   OH225905   3.631   4.703  13.963  0.1626 -0.3120  0.6305
 1497TIP3    H125906   3.722   4.714  13.933 -0.3125  0.0499 -0.7658
 1497TIP3    H225907   3.620   4.608  13.969  0.1719 -0.4214 -0.7765
 1498TIP3   OH225908   2.053   6.282  14.225  0.1800  0.0090  0.0562
 1498TIP3    H125909   2.142   6.249  14.210  0.0610 -0.7549  0.8875
 1498TIP3    H225910   2.050   6.366  14.181  2.0154  1.0449  1.7564
 1499TIP3   OH225911   5.677   4.331   1.096 -0.4485 -0.6831  0.1151
 1499TIP3    H125912   5.745   4.324   1.163 -1.0759  0.7082  0.9505
 1499TIP3    H225913   5.596   4.338   1.146 -0.8586  1.1895 -0.7420
 1500TIP3   OH225914   3.370   0.787  16.875 -0.2918  0.1273  0.5168
 1500TIP3    H125915   3.402   0.697  16.886 -0.6998 -0.1620 -0.5209
 1500TIP3    H225916   3.443   0.834  16.836 -0.7845 -0.3073 -0.9866
 1501TIP3   OH225917   1.762   0.726  13.566  0.3472 -0.4369 -0.2066
 1501TIP3    H125918   1.827   0.786  13.529  0.9238 -1.2582 -0.5543
 1501TIP3    H225919   1.726   0.773  13.641  1.8423 -0.2269  0.4045
 1502TIP3   OH225920   5.025   5.815   1.611 -0.2780 -0.4076 -0.3368
 1502TIP3    H125921   5.107   5.865   1.604 -0.8670  0.5177 -0.7711
 1502TIP3    H225922   5.027   5.779   1.700  0.2557  0.2192 -0.0832
 1503TIP3   OH225923   6.078   1.095  11.276 -0.2193 -0.3442 -0.8048
 1503TIP3    H125924   5.997   1.090  11.227 -0.5744 -3.5794 -0.1030
 1503TIP3    H225925   6.112   1.005  11.277  2.0175  0.4004  1.1394
 1504TIP3   OH225926   1.382   5.890   0.207  0.0571 -0.5509  0.3820
 1504TIP3    H125927   1.398   5.884   0.301 -0.8843  0.4495  0.6184
 1504TIP3    H225928   1.412   5.805   0.173  1.5433 -0.4790  1.3873
 1505TIP3   OH225929   5.526   3.445  14.126 -0.1695 -0.0076 -0.0100
 1505TIP3    H125930   5.453   3.507  14.135 -0.6144 -0.6584  0.9746
 1505TIP3    H225931   5.505   3.396  14.047  0.0695  0.9222 -0.6724
 1506TIP3   OH225932   3.756   1.079   5.209 -0.0722 -0.0222 -0.2484
 1506TIP3    H125933   3.740   1.173   5.198  0.4950  0.4063  1.9751
 1506TIP3    H225934   3.845   1.074   5.242 -0.4129 -1.2576  0.5480
 1507TIP3   OH225935   5.499   2.083   0.269  0.1497  0.2803 -0.6927
 1507TIP3    H125936   5.544   2.026   0.331 -1.8044 -0.0828  0.4709
 1507TIP3    H225937   5.488   2.166   0.315  0.8306  0.8248 -1.4789
 1508TIP3   OH225938   5.123   4.615  15.455  0.1301 -0.0751  0.8861
 1508TIP3    H125939   5.075   4.648  15.531  0.0291  1.2392  0.2854
 1508TIP3    H225940   5.096   4.673  15.384 -0.1356 -1.5590 -0.2688
 1509TIP3   OH225941   5.643   2.785  13.733 -0.6353 -0.2641  0.9539
 1509TIP3    H125942   5.718   2.730  13.755  1.3530  1.3412 -1.3689
 1509TIP3    H225943   5.623   2.762  13.642 -2.3380  0.1036  1.1982
 1510TIP3   OH225944   6.349   5.017  15.937  0.3546  0.3730 -0.0768
 1510TIP3    H125945   6.389   5.083  15.881  1.4633  2.0881  2.5193
 1510TIP3    H225946   6.372   5.045  16.026 -0.7870 -2.4922  1.2262
 1511TIP3   OH225947   5.161   4.968   5.478 -0.4155  0.0188 -0.4142
 1511TIP3    H125948   5.103   4.896   5.455  1.5964 -0.6653 -4.1363
 1511TIP3    H225949   5.126   5.043   5.429  0.5469  0.1509 -0.9147
 1512TIP3   OH225950   2.287   2.820  12.417 -0.4719  0.0091 -0.3175
 1512TIP3    H125951   2.356   2.854  12.474 -0.4130 -0.3428 -0.1766
 1512TIP3    H225952   2.205   2.849  12.458 -0.4132  0.3248 -0.4198
 1513TIP3   OH225953   2.051   0.942   3.316  0.4933  0.1138 -0.0517
 1513TIP3    H125954   2.073   0.853   3.290 -0.5879  0.0045 -0.6335
 1513TIP3    H225955   2.054   0.940   3.412  1.0026 -0.3989 -0.0710
 1514TIP3   OH225956   6.678   4.832   2.109  0.2470  0.3522  0.2532
 1514TIP3    H125957   6.727   4.750   2.101 -1.0101 -0.3728 -0.3157
 1514TIP3    H225958   6.660   4.857   2.018 -0.4431  0.6010  0.4571
 1515TIP3   OH225959   5.843   6.610   5.398  0.6141  0.2474  1.2295
 1515TIP3    H125960   5.778   6.545   5.424  1.4166 -0.2864  1.9394
 1515TIP3    H225961   5.815   6.638   5.311  0.0565 -0.7830  1.0605
 1516TIP3   OH225962   3.216   2.856   5.703 -0.3327 -0.1393 -0.0898
 1516TIP3    H125963   3.219   2.823   5.792 -0.7930  0.9726  0.3570
 1516TIP3    H225964   3.143   2.808   5.662  1.0635 -2.0265 -0.4803
 1517TIP3   OH225965   4.219   5.530  16.258  0.8387 -0.4015 -0.4108
 1517TIP3    H125966   4.268   5.611  16.245 -0.8008  1.2041  2.5220
 1517TIP3    H225967   4.136   5.544  16.212  0.0268  0.1843  1.1758
 1518TIP3   OH225968   0.602   0.376  15.269  0.2883 -0.6314 -0.1316
 1518TIP3    H125969   0.615   0.333  15.184 -0.6562  2.0631 -1.7585
 1518TIP3    H225970   0.685   0.421  15.286  0.3733 -0.9245  0.2281
 1519TIP3   OH225971   2.248   4.556  14.322 -0.4464  0.6064 -0.1655
 1519TIP3    H125972   2.335   4.548  14.361 -0.5238 -3.3876 -0.3734
 1519TIP3    H225973   2.187   4.542  14.395 -0.7639 -0.0907 -0.5462
 1520TIP3   OH225974   1.378   3.954  12.402  0.3293 -0.4918  0.1478
 1520TIP3    H125975   1.345   3.951  12.491 -2.0173  1.1843 -0.5677
 1520TIP3    H225976   1.467   3.986  12.410 -0.0560  0.2358  1.8569
 1521TIP3   OH225977   6.510   0.100   4.973 -0.4917  0.2744 -0.0346
 1521TIP3    H125978   6.419   0.127   4.964 -0.7224 -0.7364 -1.0350
 1521TIP3    H225979   6.553   0.134   4.894 -0.1303  0.2937  0.1705
 1522TIP3   OH225980   1.253   0.401  12.237 -0.4375 -0.0591  0.3225
 1522TIP3    H125981   1.246   0.306  12.242  1.8784 -0.3042 -0.1036
 1522TIP3    H225982   1.334   0.417  12.189 -2.2793  2.1339 -2.4353
 1523TIP3   OH225983   4.484   2.091   2.755  0.1624  0.0317 -0.1569
 1523TIP3    H125984   4.421   2.064   2.688 -0.2056  0.8235 -0.1344
 1523TIP3    H225985   4.440   2.160   2.804  1.2603  1.0385 -0.5282
 1524TIP3   OH225986   3.713   5.050  14.566  0.4217 -0.3018  0.2620
 1524TIP3    H125987   3.710   5.031  14.472  2.1677  0.3883  0.0259
 1524TIP3    H225988   3.740   4.968  14.606  2.5051  0.0961 -0.1858
 1525TIP3   OH225989   3.367   0.509   3.827  0.1962  0.6124  0.0414
 1525TIP3    H125990   3.288   0.518   3.775 -1.3383  1.6320  2.3602
 1525TIP3    H225991   3.415   0.591   3.812  0.9144 -0.0591 -1.4605
 1526TIP3   OH225992   5.057   0.075  15.552  0.2836 -0.2585 -0.4816
 1526TIP3    H125993   4.976   0.123  15.569 -0.0224 -0.6965 -0.6794
 1526TIP3    H225994   5.038   0.025  15.473  0.3535 -1.2658  0.1309
 1527TIP3   OH225995   1.953   3.650  14.760 -0.0964 -0.2339  0.5289
 1527TIP3    H125996   1.918   3.649  14.671 -1.3234 -2.2317  0.9668
 1527TIP3    H225997   1.892   3.706  14.808 -0.0260  0.0133  0.3352
 1528TIP3   OH225998   4.806   3.710  12.812 -0.3671 -0.1348  0.2329
 1528TIP3    H125999   4.841   3.689  12.899  0.0373  2.6995  0.8559
 1528TIP3    H226000   4.883   3.729  12.760 -0.7143  1.2460  0.1857
 1529TIP3   OH226001   0.222   5.412   5.659  0.1004  0.3202 -0.2459
 1529TIP3    H126002   0.188   5.467   5.729  0.4827 -1.0243  1.0593
 1529TIP3    H226003   0.145   5.380   5.613 -0.2596 -0.0571  0.5959
 1530TIP3   OH226004   2.726   0.246   4.698  0.7468  0.1099  0.1971
 1530TIP3    H126005   2.703   0.278   4.786 -0.5033 -0.1698 -0.0085
 1530TIP3    H226006   2.793   0.307   4.668  1.2946  0.1299  1.4019
 1531TIP3   OH226007   5.379   6.700   0.014  0.2267 -0.2389  0.4707
 1531TIP3    H126008   5.410   6.625   0.064  0.7258 -0.3601 -0.0167
 1531TIP3    H226009   5.354   6.764   0.081  0.3872 -0.5990  0.8783
 1532TIP3   OH226010   4.736   3.631   5.724  0.2044 -0.2335 -0.0937
 1532TIP3    H126011   4.830   3.647   5.726  0.3039 -0.3927 -1.8864
 1532TIP3    H226012   4.697   3.718   5.737  0.5754 -0.1383  0.4644
 1533TIP3   OH226013   5.865   2.670   4.315  0.2390  0.0211 -0.6369
 1533TIP3    H126014   5.781   2.625   4.304  0.1710 -0.1861  0.5588
 1533TIP3    H226015   5.913   2.616   4.378  0.5126  1.1522  0.1408
 1534TIP3   OH226016   5.943   1.387  15.999  0.0693 -0.2079  0.8169
 1534TIP3    H126017   6.001   1.431  15.936 -1.9494  1.2381 -0.1300
 1534TIP3    H226018   5.965   1.427  16.083 -2.2911  3.5954 -0.1092
 1535TIP3   OH226019   5.443   6.110  10.704 -0.3175  0.7132 -0.1041
 1535TIP3    H126020   5.486   6.194  10.697 -2.1222  1.5830 -1.9323
 1535TIP3    H226021   5.351   6.131  10.721 -1.2620 -0.7063 -2.8546
 1536TIP3   OH226022   3.903   6.160   1.342  0.6400 -0.0384  0.1517
 1536TIP3    H126023   3.822   6.110   1.352  1.1470 -1.2817 -1.4453
 1536TIP3    H226024   3.873   6.250   1.330 -0.5282 -0.4656 -0.3895
 1537TIP3   OH226025   3.494   4.380  16.640  0.5155  0.4419 -0.4260
 1537TIP3    H126026   3.406   4.393  16.604  0.4841  1.6263  0.0324
 1537TIP3    H226027   3.505   4.451  16.703  1.5797 -0.0463 -0.0331
 1538TIP3   OH226028   1.880   0.049  14.903 -0.5464  0.1759  0.2851
 1538TIP3    H126029   1.813   0.004  14.954 -0.5440  1.6292  1.6691
 1538TIP3    H226030   1.832   0.115  14.853 -0.3318  0.0232 -0.1291
 1539TIP3   OH226031   5.418   5.025   3.578  0.0716  0.1613  0.2681
 1539TIP3    H126032   5.452   4.947   3.534 -0.8357  0.3134 -0.7559
 1539TIP3    H226033   5.429   5.007   3.671 -2.2206 -2.2734  0.2104
 1540TIP3   OH226034   6.336   0.375   5.809  0.4048  0.0836  0.9495
 1540TIP3    H126035   6.362   0.345   5.896 -0.6408 -1.3415  0.8061
 1540TIP3    H226036   6.264   0.436   5.825 -0.9099 -1.4210  1.0705
 1541TIP3   OH226037   1.510   2.919   5.186 -0.6302 -0.2211  0.0207
 1541TIP3    H126038   1.496   2.843   5.129 -0.7299 -0.5756  0.5075
 1541TIP3    H226039   1.424   2.962   5.189 -1.3601 -1.6256  1.9016
 1542TIP3   OH226040   0.816   3.711   4.477 -0.0100  0.7507 -0.0679
 1542TIP3    H126041   0.784   3.729   4.389  0.6785  1.7163 -0.1217
 1542TIP3    H226042   0.774   3.628   4.500 -0.3736  0.5987 -1.2091
 1543TIP3   OH226043   5.870   5.849   3.700 -0.3563 -0.1108 -0.0771
 1543TIP3    H126044   5.907   5.918   3.755 -0.7334 -0.0681  0.1219
 1543TIP3    H226045   5.913   5.860   3.615 -0.9523  0.8203 -0.2611
 1544TIP3   OH226046   1.352   1.510  13.119  0.5032 -0.4703 -0.3015
 1544TIP3    H126047   1.404   1.490  13.041  0.2161 -2.6435  0.0093
 1544TIP3    H226048   1.277   1.451  13.114  0.4614 -0.6467  1.5973
 1545TIP3   OH226049   3.616   5.491   3.381  0.7058  0.2285 -0.7081
 1545TIP3    H126050   3.612   5.404   3.342 -1.0554  0.2359 -0.6134
 1545TIP3    H226051   3.614   5.476   3.475  1.8418  0.3340 -0.6558
 1546TIP3   OH226052   6.494   6.257  11.384 -0.0572 -0.7425 -0.1631
 1546TIP3    H126053   6.400   6.244  11.398 -0.5738  2.3343 -0.1571
 1546TIP3    H226054   6.517   6.332  11.440  1.8628  0.0746 -1.9030
 1547TIP3   OH226055   0.127   6.490  11.899 -0.7104 -0.1865 -0.1383
 1547TIP3    H126056   0.089   6.575  11.877  0.7089  0.7081  0.6799
 1547TIP3    H226057   0.054   6.440  11.937 -1.7210  0.4009 -1.2384
 1548TIP3   OH226058   1.737   3.389  11.188 -0.1122  0.6564  0.1307
 1548TIP3    H126059   1.670   3.457  11.185 -0.3192  0.4514 -0.0101
 1548TIP3    H226060   1.717   3.333  11.112  1.1205  1.4300 -0.7923
 1549TIP3   OH226061   4.370   1.548   5.195 -0.3822 -0.8226  0.0846
 1549TIP3    H126062   4.446   1.502   5.232 -0.2831 -0.5843  0.1787
 1549TIP3    H226063   4.323   1.581   5.271 -1.0650 -1.7299  0.0659
 1550TIP3   OH226064   1.132   3.674  14.482  0.0277  0.3249  0.0422
 1550TIP3    H126065   1.141   3.706  14.571  1.9026  1.9178 -0.6561
 1550TIP3    H226066   1.220   3.643  14.458 -0.8294 -1.7516 -0.6961
 1551TIP3   OH226067   5.293   0.976   4.422 -0.8297  0.2895  0.3048
 1551TIP3    H126068   5.199   0.975   4.439 -0.9502  1.7313 -0.1728
 1551TIP3    H226069   5.314   0.885   4.402 -1.8964 -0.2627  1.5397
 1552TIP3   OH226070   0.720   6.236   3.270 -0.0982  0.8260 -0.0132
 1552TIP3    H126071   0.701   6.144   3.252  3.5912 -0.2999  0.9023
 1552TIP3    H226072   0.732   6.240   3.365  0.6117  2.0290 -0.1334
 1553TIP3   OH226073   5.413   1.179   0.067 -0.1026  0.4357  0.3295
 1553TIP3    H126074   5.360   1.115   0.020 -0.2893  1.3434 -0.7225
 1553TIP3    H226075   5.382   1.175   0.157  0.0864 -1.1527  0.3548
 1554TIP3   OH226076   4.350   3.826   3.833  0.7124  0.1134  0.0767
 1554TIP3    H126077   4.430   3.803   3.785  0.8693  0.8255 -0.0047
 1554TIP3    H226078   4.323   3.743   3.873 -1.6627 -1.6395 -4.4460
 1555TIP3   OH226079   5.327   3.002   3.460 -0.3322  0.4135 -0.6259
 1555TIP3    H126080   5.296   3.041   3.542  2.4215  1.6517 -0.0442
 1555TIP3    H226081   5.266   2.930   3.443 -0.2022 -0.9387  3.3796
 1556TIP3   OH226082   0.770   0.081   3.111 -0.8150  0.7146 -0.6694
 1556TIP3    H126083   0.768  -0.014   3.118  0.2144  0.7677  0.7684
 1556TIP3    H226084   0.718   0.100   3.033  1.0985 -1.1728 -2.5703
 1557TIP3   OH226085   1.502   3.764  16.758  0.3713  0.0604  0.2097
 1557TIP3    H126086   1.554   3.687  16.779  1.5528  0.1429 -2.1135
 1557TIP3    H226087   1.424   3.756  16.813  1.4726 -1.5935  1.6428
 1558TIP3   OH226088   2.469   0.609   1.858 -0.1913 -0.2524 -0.5158
 1558TIP3    H126089   2.439   0.547   1.793 -3.0666  0.5673 -0.1113
 1558TIP3    H226090   2.495   0.687   1.808 -1.3895 -0.0064 -0.7873
 1559TIP3   OH226091   6.651   4.066  11.428  0.1524 -0.5551  0.6529
 1559TIP3    H126092   6.637   4.017  11.347 -0.2561 -0.9645  0.9685
 1559TIP3    H226093   6.746   4.082  11.430  0.4467 -2.1911  1.0258
 1560TIP3   OH226094   2.039   5.722  11.246 -0.0999 -0.0034  0.2750
 1560TIP3    H126095   1.971   5.743  11.182 -0.3871  0.0767  0.6056
 1560TIP3    H226096   2.020   5.632  11.273  0.0825 -0.0740  0.1742
 1561TIP3   OH226097   3.058   3.025  11.327 -0.4995  0.2903  0.4994
 1561TIP3    H126098   2.991   2.998  11.390  0.7499  0.5908  2.0023
 1561TIP3    H226099   3.028   3.111  11.297 -1.6216 -0.2853 -0.1186
 1562TIP3   OH226100   0.285   0.930  10.924 -0.2078  0.0387 -0.1557
 1562TIP3    H126101   0.353   0.940  10.991 -1.2541  1.0717  0.7921
 1562TIP3    H226102   0.213   0.887  10.970 -0.1420 -1.2660 -1.2124
 1563TIP3   OH226103   2.994   0.540   3.175 -0.1811 -0.4261 -0.1567
 1563TIP3    H126104   3.046   0.554   3.255  0.1894 -0.3946 -0.3974
 1563TIP3    H226105   3.055   0.560   3.104 -1.1753  1.8626 -0.4475
 1564TIP3   OH226106   3.607   2.823  13.192  0.3126  0.8616 -0.0251
 1564TIP3    H126107   3.582   2.811  13.283 -0.0697 -0.0037 -0.2230
 1564TIP3    H226108   3.527   2.851  13.148  0.5551  1.5205 -0.0539
 1565TIP3   OH226109   2.776   5.166   4.375 -0.3048  0.0162  0.7928
 1565TIP3    H126110   2.762   5.138   4.285 -1.2922 -1.4200  1.3579
 1565TIP3    H226111   2.871   5.168   4.385 -0.1573  0.9745 -0.4799
 1566TIP3   OH226112   4.955   0.759   1.490 -0.0281 -0.0857 -0.2360
 1566TIP3    H126113   5.038   0.805   1.478 -0.0602 -0.3364 -1.5632
 1566TIP3    H226114   4.972   0.697   1.562  2.0231 -2.4996 -2.5784
 1567TIP3   OH226115   1.280   1.444   1.560  0.0728  0.2754 -0.0864
 1567TIP3    H126116   1.283   1.413   1.470  0.8465  0.9816 -0.3128
 1567TIP3    H226117   1.252   1.368   1.611  1.0027 -0.5236 -0.7375
 1568TIP3   OH226118   0.505   0.698   5.051  0.1355 -0.1690  0.1393
 1568TIP3    H126119   0.586   0.651   5.031 -0.4444 -0.5980 -1.3300
 1568TIP3    H226120   0.456   0.639   5.107 -0.6041 -1.4011 -1.7212
 1569TIP3   OH226121   4.735   6.467  10.864 -0.1229 -0.1306 -0.0572
 1569TIP3    H126122   4.824   6.436  10.850 -0.1859 -0.8086  0.9327
 1569TIP3    H226123   4.690   6.449  10.781  0.8523  0.9774 -0.8451
 1570TIP3   OH226124   4.868   3.544   3.871  0.0839 -0.3150  0.9388
 1570TIP3    H126125   4.784   3.507   3.845  0.3168 -0.2016 -0.0162
 1570TIP3    H226126   4.927   3.469   3.878  0.2667 -0.2591  0.1353
 1571TIP3   OH226127   4.448   2.347  16.462  0.5273 -0.4566  0.2739
 1571TIP3    H126128   4.404   2.431  16.475 -0.1967 -0.5068 -1.4601
 1571TIP3    H226129   4.476   2.349  16.370  2.5941 -1.1807  0.8360
 1572TIP3   OH226130   5.752   3.748  15.809  0.3928 -0.3533  0.4401
 1572TIP3    H126131   5.745   3.655  15.785 -0.5121 -0.0214 -0.6504
 1572TIP3    H226132   5.689   3.792  15.752 -1.1874  0.6284  2.7825
 1573TIP3   OH226133   4.176   5.491   3.315  0.3244 -0.2342 -0.7631
 1573TIP3    H126134   4.221   5.478   3.398  1.8336 -0.3210 -1.5502
 1573TIP3    H226135   4.220   5.567   3.275 -2.4414  1.8562 -0.1620
 1574TIP3   OH226136   6.164   0.049  14.040  0.6746 -0.4575 -0.0124
 1574TIP3    H126137   6.190   0.131  14.082  0.3477  0.1339 -0.9150
 1574TIP3    H226138   6.073   0.035  14.069  1.6193 -2.0996  2.4983
 1575TIP3   OH226139   2.421   0.309   3.896  0.5908  0.3069  0.7077
 1575TIP3    H126140   2.421   0.404   3.904 -1.9386  0.7396 -2.3408
 1575TIP3    H226141   2.485   0.291   3.828  0.0670  0.0263  0.2759
 1576TIP3   OH226142   6.614   4.759   4.450  0.6613  0.0367 -0.1814
 1576TIP3    H126143   6.539   4.729   4.399  1.5884 -1.7916 -0.5871
 1576TIP3    H226144   6.669   4.806   4.387  0.4573  0.2562 -0.1941
 1577TIP3   OH226145   3.462   4.096   5.355 -0.2404 -0.1211 -0.3593
 1577TIP3    H126146   3.454   4.013   5.309  0.5635 -0.6564  0.4408
 1577TIP3    H226147   3.533   4.143   5.310 -0.6521  0.1097 -0.7715
 1578TIP3   OH226148   6.726   6.574  16.336 -0.2192  0.4889 -0.0837
 1578TIP3    H126149   6.792   6.602  16.399  0.7527 -0.4271 -0.6498
 1578TIP3    H226150   6.680   6.502  16.379  0.1739  0.1296 -0.2596
 1579TIP3   OH226151   5.888   2.289   4.699 -0.0599 -0.1996 -0.9199
 1579TIP3    H126152   5.821   2.252   4.642 -1.7128  1.2724 -0.0434
 1579TIP3    H226153   5.856   2.377   4.719  0.7291 -0.4516  1.7889
 1580TIP3   OH226154   5.737   6.450   4.982  0.3789 -0.3751  0.4369
 1580TIP3    H126155   5.743   6.541   5.009 -0.4783  0.1445 -0.9880
 1580TIP3    H226156   5.810   6.406   5.026  2.2057  1.4505 -0.6238
 1581TIP3   OH226157   6.614   6.081   5.503  0.2569 -0.2020 -0.1925
 1581TIP3    H126158   6.681   6.115   5.445  0.0267 -0.6528 -0.7320
 1581TIP3    H226159   6.532   6.118   5.470 -0.0935 -1.8280 -1.2507
 1582TIP3   OH226160   4.313   0.589  11.638 -0.5182 -0.1355 -0.1442
 1582TIP3    H126161   4.270   0.553  11.560 -0.5228  0.8363 -0.6006
 1582TIP3    H226162   4.267   0.548  11.712 -2.9231  1.5775 -0.5798
 1583TIP3   OH226163   0.388   5.746  15.667  0.1996 -0.0894  0.0117
 1583TIP3    H126164   0.398   5.654  15.691  1.7175 -0.1152 -0.5932
 1583TIP3    H226165   0.455   5.791  15.719 -0.0664  0.5834 -0.2195
 1584TIP3   OH226166   2.062   2.738  13.112  0.1659 -0.1113  0.5436
 1584TIP3    H126167   2.007   2.709  13.040 -0.9908  0.3716  1.1919
 1584TIP3    H226168   2.052   2.833  13.113  0.9147 -0.0306  0.7516
 1585TIP3   OH226169   4.508   2.721  12.558 -0.3218 -0.2839 -0.3649
 1585TIP3    H126170   4.432   2.778  12.566  0.0769  0.2667 -0.4097
 1585TIP3    H226171   4.473   2.636  12.532 -0.8862  0.0514 -0.6996
 1586TIP3   OH226172   6.531   3.556  12.678 -0.1319 -0.1962 -0.9516
 1586TIP3    H126173   6.538   3.632  12.735  0.3230 -1.7276  1.1561
 1586TIP3    H226174   6.439   3.530  12.684  0.1053 -0.8928 -0.1364
 1587TIP3   OH226175   2.672   6.641  11.254  0.5303  0.3458  0.0728
 1587TIP3    H126176   2.681   6.613  11.163 -2.2540  1.0694 -0.5026
 1587TIP3    H226177   2.578   6.645  11.270  0.9050  1.0758  2.7472
 1588TIP3   OH226178   1.187   3.953   1.407 -0.6959 -1.1008 -0.2385
 1588TIP3    H126179   1.241   3.888   1.363 -2.2637 -1.2192 -2.1100
 1588TIP3    H226180   1.099   3.916   1.406 -0.9365 -0.7984  2.4821
 1589TIP3   OH226181   1.901   0.731   0.078 -0.3625  0.5698 -0.5293
 1589TIP3    H126182   1.843   0.744   0.153 -1.3212  1.3741 -1.3846
 1589TIP3    H226183   1.923   0.638   0.081 -0.2415  0.6163  0.8311
 1590TIP3   OH226184   4.461   3.123   3.848  0.0510  0.2749  0.3499
 1590TIP3    H126185   4.393   3.105   3.782 -1.0244  2.3148  0.8160
 1590TIP3    H226186   4.502   3.204   3.818  0.8954  0.1663  1.1794
 1591TIP3   OH226187   3.627   6.568  12.347  0.2145 -0.2657  0.1624
 1591TIP3    H126188   3.635   6.485  12.300  0.2122 -0.6869  0.8866
 1591TIP3    H226189   3.717   6.592  12.368  0.1722 -0.4352  0.5444
 1592TIP3   OH226190   5.623   2.262   5.829  0.4726 -0.1351 -0.3938
 1592TIP3    H126191   5.686   2.304   5.770  0.9772  1.1087  1.0025
 1592TIP3    H226192   5.601   2.180   5.784  2.2180 -0.0804 -1.4622
 1593TIP3   OH226193   1.957   4.921   1.779  0.2607 -0.1940 -0.0333
 1593TIP3    H126194   1.913   4.943   1.697  1.6217 -2.6619 -1.5336
 1593TIP3    H226195   2.042   4.964   1.772  0.6345 -0.9604 -0.2337
 1594TIP3   OH226196   3.087   3.474   4.058  0.3100  0.6257  0.0236
 1594TIP3    H126197   3.024   3.517   4.000  0.7413  0.1191 -0.8393
 1594TIP3    H226198   3.172   3.501   4.026  0.5665  0.0263  0.1770
 1595TIP3   OH226199   5.408   5.451  11.499 -0.4165  0.1870  0.2307
 1595TIP3    H126200   5.341   5.411  11.554  1.1975 -0.7962  1.5698
 1595TIP3    H226201   5.429   5.383  11.435 -1.4183  0.8953 -0.9195
 1596TIP3   OH226202   4.268   4.486  10.806 -0.2740  0.0977  0.7097
 1596TIP3    H126203   4.296   4.400  10.774 -0.1405 -0.3060  1.8527
 1596TIP3    H226204   4.173   4.485  10.796 -0.1705  0.2765 -0.3527
 1597TIP3   OH226205   1.463   1.835  11.604  0.3597  0.3189 -0.5431
 1597TIP3    H126206   1.454   1.928  11.581  0.7426 -0.1333 -2.7600
 1597TIP3    H226207   1.407   1.789  11.541  0.9999 -1.0247 -0.1723
 1598TIP3   OH226208   6.687   5.407  15.581  0.3706  0.6962  0.0558
 1598TIP3    H126209   6.635   5.396  15.661  1.2066 -2.3012  0.3022
 1598TIP3    H226210   6.623   5.401  15.510  0.1261 -2.2912  0.3836
 1599TIP3   OH226211   5.465   1.235   4.080 -0.0680 -0.0173 -0.3195
 1599TIP3    H126212   5.433   1.309   4.132  0.0819 -0.4763  0.4403
 1599TIP3    H226213   5.391   1.174   4.076 -0.5702  0.6271 -1.8783
 1600TIP3   OH226214   1.531   0.285  12.326  0.0714 -0.3892 -0.2131
 1600TIP3    H126215   1.477   0.216  12.290  0.0046 -1.0535  1.1163
 1600TIP3    H226216   1.590   0.241  12.388  0.3484  0.6640  0.3056
 1601TIP3   OH226217   0.577   6.668  12.249 -0.4697 -0.1441 -0.4424
 1601TIP3    H126218   0.605   6.654  12.159  1.1785  1.3873 -0.2376
 1601TIP3    H226219   0.488   6.634  12.253 -0.6412 -0.0750 -2.6936
 1602TIP3   OH226220   4.418   0.041   2.993  0.0353 -0.4146 -0.5084
 1602TIP3    H126221   4.438  -0.052   2.977  0.0670 -0.1631 -2.0971
 1602TIP3    H226222   4.364   0.040   3.072 -1.6076 -2.0020 -1.5418
 1603TIP3   OH226223   5.671   2.376  14.016  0.0654 -0.3659 -0.0659
 1603TIP3    H126224   5.743   2.438  14.026  0.4168 -0.7426 -0.2301
 1603TIP3    H226225   5.594   2.431  14.001  0.3520  0.0333 -0.0901
 1604TIP3   OH226226   5.367   5.305  11.767  0.0290  0.5087  0.1711
 1604TIP3    H126227   5.447   5.348  11.737  1.8291 -1.8262  1.3641
 1604TIP3    H226228   5.353   5.233  11.705 -0.1073 -0.1916  0.9928
 1605TIP3   OH226229   5.424   2.654  10.509 -0.1028  0.1650 -0.1363
 1605TIP3    H126230   5.365   2.582  10.529  1.1220 -0.3180  1.9682
 1605TIP3    H226231   5.387   2.729  10.556  1.0319 -0.2016  1.4140
 1606TIP3   OH226232   4.629   0.799  15.583  0.4853  0.3542 -0.2153
 1606TIP3    H126233   4.655   0.732  15.520 -0.2197  0.0342 -0.1750
 1606TIP3    H226234   4.700   0.799  15.648  1.1606  0.6059 -0.9313
 1607TIP3   OH226235   1.758   0.252   1.787 -0.1694 -0.6191  0.3984
 1607TIP3    H126236   1.746   0.225   1.696  0.0161  0.2220  0.1188
 1607TIP3    H226237   1.719   0.339   1.792  2.1540  0.4903  0.4435
 1608TIP3   OH226238   0.820   0.497  12.682  0.0095 -0.2888 -1.0425
 1608TIP3    H126239   0.871   0.545  12.616  0.2332  0.4231 -0.3772
 1608TIP3    H226240   0.734   0.488  12.643  0.1066  0.2191 -1.3992
 1609TIP3   OH226241   0.049   2.728   2.816  0.3995 -0.1198  0.0525
 1609TIP3    H126242  -0.014   2.690   2.755 -0.8177  0.1649  1.0888
 1609TIP3    H226243   0.063   2.660   2.881  0.5696  0.1077  0.2558
 1610TIP3   OH226244   6.061   3.161  14.222  0.4667 -0.3167  0.2398
 1610TIP3    H126245   5.974   3.120  14.220  0.5056 -0.3985  0.1887
 1610TIP3    H226246   6.044   3.253  14.239  0.1689  0.1858 -2.3898
 1611TIP3   OH226247   3.580   2.564   0.287 -0.2607 -0.3773 -1.0034
 1611TIP3    H126248   3.662   2.574   0.334 -1.7805  0.1495  1.7398
 1611TIP3    H226249   3.554   2.473   0.302 -1.2627  0.0693  0.1885
 1612TIP3   OH226250   5.198   5.944   6.125  0.1828 -0.3169 -0.2419
 1612TIP3    H126251   5.220   5.862   6.170  1.7071  0.6164  0.8146
 1612TIP3    H226252   5.121   5.977   6.170 -0.4484 -1.1579 -0.6801
 1613TIP3   OH226253   5.741   6.746   2.092 -0.1367  0.4102  0.5376
 1613TIP3    H126254   5.744   6.802   2.170 -0.2844  1.7299 -0.3889
 1613TIP3    H226255   5.729   6.657   2.128 -1.0356  1.0686  1.9818
 1614TIP3   OH226256   3.378   6.473  16.572  0.2084 -0.2272  0.5904
 1614TIP3    H126257   3.346   6.534  16.505  1.0527  0.2365  0.5905
 1614TIP3    H226258   3.341   6.388  16.547  0.9057 -0.1648 -0.7649
 1615TIP3   OH226259   4.990   2.128  13.178  0.4680  0.0001  0.4724
 1615TIP3    H126260   4.930   2.139  13.103  0.3941 -2.7466  0.0252
 1615TIP3    H226261   4.958   2.191  13.243 -1.0426  0.6837 -0.8454
 1616TIP3   OH226262   2.520   4.539  12.201  0.0169 -0.6582 -0.1637
 1616TIP3    H126263   2.452   4.549  12.133 -0.9714 -0.1951  0.8640
 1616TIP3    H226264   2.500   4.608  12.265  2.1666  0.2551 -0.3904
 1617TIP3   OH226265   3.249   3.811  16.475  0.0842 -0.1310  0.0525
 1617TIP3    H126266   3.341   3.784  16.474  1.2284  3.3045 -0.5899
 1617TIP3    H226267   3.243   3.879  16.408 -3.4787 -1.5585 -1.3651
 1618TIP3   OH226268   6.244   0.655  16.085 -0.2006 -0.0795 -0.2126
 1618TIP3    H126269   6.201   0.721  16.031 -1.8045 -1.6717 -0.9955
 1618TIP3    H226270   6.214   0.571  16.049  1.0369 -1.2422  1.3004
 1619TIP3   OH226271   1.690   1.509   1.625  0.0860  0.1681  0.1407
 1619TIP3    H126272   1.741   1.527   1.704  1.2220  0.0494 -0.5244
 1619TIP3    H226273   1.755   1.473   1.564 -1.4141 -3.2935  0.3456
 1620TIP3   OH226274   4.731   2.804  16.440  0.0826  0.0851  0.1967
 1620TIP3    H126275   4.646   2.788  16.481 -0.2735 -2.3852 -1.2851
 1620TIP3    H226276   4.795   2.786  16.509 -0.5299 -2.9350  0.1235
 1621TIP3   OH226277   1.116   1.935  14.460 -0.2948  0.4554 -0.0455
 1621TIP3    H126278   1.198   1.981  14.474 -0.3694  0.4478  0.4415
 1621TIP3    H226279   1.048   2.001  14.472 -0.4299  0.0920  1.3118
 1622TIP3   OH226280   5.541   2.985  13.852 -0.2716  0.4274  0.2038
 1622TIP3    H126281   5.477   2.940  13.906 -1.0066  2.5271  1.1868
 1622TIP3    H226282   5.595   2.915  13.816 -0.8116 -1.1830  2.3028
 1623TIP3   OH226283   5.686   4.325  17.090 -0.1425 -0.0488  0.0190
 1623TIP3    H126284   5.653   4.271  17.162  0.5824  1.8842  1.8998
 1623TIP3    H226285   5.773   4.289  17.071 -0.0768 -0.1850  0.5573
 1624TIP3   OH226286   0.428   4.180  14.217  0.2084  0.2948 -0.3695
 1624TIP3    H126287   0.445   4.260  14.167 -1.4928  0.4194 -0.7944
 1624TIP3    H226288   0.388   4.210  14.299  0.6905 -0.0545 -0.0004
 1625TIP3   OH226289   6.604   4.925   0.145 -0.0350 -0.1309 -0.1259
 1625TIP3    H126290   6.616   4.933   0.240 -1.1054 -0.8488  0.0980
 1625TIP3    H226291   6.614   5.014   0.111 -0.1426  0.2153  0.7296
 1626TIP3   OH226292   4.130   3.869  14.246  0.6486 -0.3625  0.1195
 1626TIP3    H126293   4.208   3.870  14.190 -0.1698 -0.0237 -1.0473
 1626TIP3    H226294   4.093   3.781  14.234  1.0744 -0.6728  1.0087
 1627TIP3   OH226295   6.137   0.002   3.158 -0.0085 -0.0089 -0.0991
 1627TIP3    H126296   6.060   0.056   3.176  0.1505  0.1869  0.0003
 1627TIP3    H226297   6.148   0.007   3.063 -0.0675  0.0326 -0.1039
 1628TIP3   OH226298   3.348   2.853  12.069 -0.2462  0.1503  0.0568
 1628TIP3    H126299   3.308   2.932  12.107 -1.0913 -0.2911  0.0994
 1628TIP3    H226300   3.337   2.786  12.137  0.8689  0.0906  0.2049
 1629TIP3   OH226301   5.252   4.125  13.880  0.2271  0.6888  0.0078
 1629TIP3    H126302   5.242   4.162  13.792  4.9398 -1.5118 -1.7743
 1629TIP3    H226303   5.307   4.188  13.927 -0.5732  0.8700  0.7299
 1630TIP3   OH226304   0.634   2.278   3.537 -0.0302 -0.3316 -0.1775
 1630TIP3    H126305   0.687   2.349   3.575 -1.3009  1.2185 -1.1669
 1630TIP3    H226306   0.682   2.254   3.457  1.1305 -1.6001  0.8577
 1631TIP3   OH226307   2.818   0.382  15.670 -0.1969  0.3676  0.3855
 1631TIP3    H126308   2.776   0.421  15.746  1.5056  1.3090  0.9116
 1631TIP3    H226309   2.848   0.458  15.619 -0.4788 -0.2609 -0.7393
 1632TIP3   OH226310   0.096   5.877   1.253  0.1035 -0.1728  0.1988
 1632TIP3    H126311   0.145   5.806   1.294  0.3580 -0.5498 -0.7302
 1632TIP3    H226312   0.004   5.850   1.260  0.0702  0.1829  1.2826
 1633TIP3   OH226313   4.020   1.425  15.380  0.7111 -0.5249  0.0192
 1633TIP3    H126314   3.935   1.452  15.344  0.5413 -0.2188  0.6310
 1633TIP3    H226315   3.997   1.368  15.453  1.0579 -1.7171 -0.7795
 1634TIP3   OH226316   0.400   0.956  11.167 -0.1890  0.2689  0.1144
 1634TIP3    H126317   0.402   0.995  11.255 -3.7890  1.3416 -0.1219
 1634TIP3    H226318   0.329   0.892  11.171 -1.2338  1.1885 -2.2869
 1635TIP3   OH226319   3.870   5.453   3.620  0.2041  0.6080  0.7302
 1635TIP3    H126320   3.783   5.493   3.618 -0.9437 -1.7387 -0.2964
 1635TIP3    H226321   3.867   5.393   3.694  0.3773 -0.6391 -0.2569
 1636TIP3   OH226322   5.716   3.528  12.647 -0.0367  0.4895  0.2910
 1636TIP3    H126323   5.793   3.526  12.590 -0.0201 -1.0399  0.3170
 1636TIP3    H226324   5.669   3.607  12.622  1.6065  1.5286  0.3643
 1637TIP3   OH226325   2.750   1.862   4.260  0.1245  0.0950  0.0457
 1637TIP3    H126326   2.681   1.804   4.228 -0.6534  2.0458 -2.1245
 1637TIP3    H226327   2.829   1.833   4.214  0.1805 -0.4445  0.4706
 1638TIP3   OH226328   6.136   4.980   0.781 -0.5300 -0.6607  0.0832
 1638TIP3    H126329   6.100   4.905   0.733  0.2549 -0.6030 -0.6050
 1638TIP3    H226330   6.230   4.975   0.768 -0.1036 -1.4400  2.7719
 1639TIP3   OH226331   2.555   3.201   4.930 -0.2934 -0.2533  0.2183
 1639TIP3    H126332   2.512   3.122   4.896 -1.3663  0.2971  0.2612
 1639TIP3    H226333   2.492   3.238   4.991  0.7606 -0.0890  1.2427
 1640TIP3   OH226334   6.321   6.102  11.120 -0.1421  0.4148 -0.3209
 1640TIP3    H126335   6.412   6.130  11.130 -0.1134  0.2248 -0.0360
 1640TIP3    H226336   6.327   6.018  11.075 -0.1953  0.5465 -0.5793
 1641TIP3   OH226337   5.205   2.156   2.108  0.2042 -0.2264  0.2214
 1641TIP3    H126338   5.224   2.231   2.052 -0.7729  0.4674  0.8017
 1641TIP3    H226339   5.282   2.099   2.098  1.2803  1.1626  0.3041
 1642TIP3   OH226340   2.245   3.787   2.086  0.0867  0.2712 -0.0841
 1642TIP3    H126341   2.310   3.719   2.105 -0.0574  0.3252  0.6018
 1642TIP3    H226342   2.285   3.868   2.117  1.3554  0.9679 -3.1340
 1643TIP3   OH226343   1.422   4.544   4.603 -0.4303 -0.4324 -0.5580
 1643TIP3    H126344   1.355   4.589   4.655 -0.6505 -0.0240 -1.1794
 1643TIP3    H226345   1.495   4.532   4.663 -0.9861 -0.6946  0.0671
 1644TIP3   OH226346   2.469   0.663   0.139  0.3296  0.2066  0.1143
 1644TIP3    H126347   2.535   0.730   0.127  0.8604 -0.3826 -0.3148
 1644TIP3    H226348   2.515   0.580   0.122 -0.3155 -0.2641  0.5892
 1645TIP3   OH226349   6.105   1.850   3.341 -0.7680 -0.5312 -0.0538
 1645TIP3    H126350   6.015   1.820   3.352 -0.6438 -0.9536 -0.1355
 1645TIP3    H226351   6.149   1.826   3.423 -0.8107 -0.0273  0.1151
 1646TIP3   OH226352   3.701   2.486   4.781 -0.7658 -0.2812 -0.3866
 1646TIP3    H126353   3.675   2.560   4.837  0.5142  1.1661 -1.6254
 1646TIP3    H226354   3.796   2.484   4.786 -0.7511 -1.6172 -0.7200
 1647TIP3   OH226355   2.510   6.042  12.377  0.2092  0.2328  0.3435
 1647TIP3    H126356   2.575   6.111  12.371  1.3152 -0.8567 -0.9242
 1647TIP3    H226357   2.485   6.041  12.470  0.6462  1.8632  0.5114
 1648TIP3   OH226358   2.951   5.496   5.077 -0.0359 -0.7141 -0.1102
 1648TIP3    H126359   3.042   5.465   5.077  0.7030  1.1714 -1.8563
 1648TIP3    H226360   2.936   5.527   5.166  1.2867 -0.4490  0.0512
 1649TIP3   OH226361   2.680   1.789   0.040  0.6871  0.1267 -0.6275
 1649TIP3    H126362   2.702   1.750   0.125 -0.5317  1.2360  0.2441
 1649TIP3    H226363   2.746   1.858   0.028 -0.6121  1.7285  0.7481
 1650TIP3   OH226364   2.521   4.159  12.780  0.3334  0.4840  0.4355
 1650TIP3    H126365   2.548   4.158  12.688 -0.7797 -2.3649  0.0160
 1650TIP3    H226366   2.535   4.069  12.809  0.6947  1.3291  3.1021
 1651TIP3   OH226367   3.428   1.024  13.112 -0.3878  0.1446  0.1204
 1651TIP3    H126368   3.347   0.977  13.089  0.5813 -0.8610 -1.4204
 1651TIP3    H226369   3.483   0.958  13.154  0.3468  0.2987 -0.5592
 1652TIP3   OH226370   2.306   5.698  12.983  0.0706 -0.7270 -1.0075
 1652TIP3    H126371   2.266   5.643  13.050 -0.3001  0.3039 -0.3665
 1652TIP3    H226372   2.374   5.642  12.944  0.2471 -1.3763  0.1705
 1653TIP3   OH226373   4.408   3.627   3.211  0.6093 -0.5539  1.0396
 1653TIP3    H126374   4.462   3.673   3.276  2.1133  0.8603 -1.1087
 1653TIP3    H226375   4.321   3.667   3.219  0.9910  0.1941  1.5945
 1654TIP3   OH226376   1.604   6.093   0.559  0.2230 -0.2210  0.6947
 1654TIP3    H126377   1.598   6.092   0.463  0.6523 -0.4174  0.6681
 1654TIP3    H226378   1.527   6.043   0.588 -0.1063  0.1473  0.4659
 1655TIP3   OH226379   2.152   2.352   1.256 -0.0719 -0.5215 -0.5293
 1655TIP3    H126380   2.058   2.368   1.255 -0.3098 -1.4718  1.6677
 1655TIP3    H226381   2.190   2.435   1.286 -0.5477 -1.1439  1.9730
 1656TIP3   OH226382   6.310   2.898   4.963 -0.0957 -0.0715  0.0954
 1656TIP3    H126383   6.368   2.920   4.890 -1.8022 -1.0719 -1.6486
 1656TIP3    H226384   6.283   2.983   4.999  0.5062  0.4410 -0.6411
 1657TIP3   OH226385   0.085   4.282   1.278  0.1142 -0.4259  0.3980
 1657TIP3    H126386   0.009   4.260   1.223 -1.3490 -1.1420  2.5742
 1657TIP3    H226387   0.144   4.208   1.267 -0.4368 -0.8531  0.2286
 1658TIP3   OH226388   6.583   4.272  15.345 -0.1661  0.6279  0.3418
 1658TIP3    H126389   6.494   4.306  15.354  0.0195  0.9955  0.8691
 1658TIP3    H226390   6.572   4.185  15.307 -0.7982  0.4337  0.9368
 1659TIP3   OH226391   4.690   4.060  17.047  0.4246  0.4128 -0.3565
 1659TIP3    H126392   4.695   4.035  17.139 -0.7091 -1.8895 -0.8527
 1659TIP3    H226393   4.600   4.041  17.021  1.6370 -2.8157 -2.8566
 1660TIP3   OH226394   1.714   2.361   1.558 -0.0130  0.1796  0.3158
 1660TIP3    H126395   1.708   2.350   1.463  2.5429 -2.5783  0.3527
 1660TIP3    H226396   1.682   2.450   1.574 -0.1590  0.8594 -3.1356
 1661TIP3   OH226397   5.343   5.479   2.685 -0.3417  0.2056  0.1118
 1661TIP3    H126398   5.262   5.444   2.648 -0.0041 -0.2238 -0.2411
 1661TIP3    H226399   5.371   5.546   2.621 -0.3723  0.2903  0.1875
 1662TIP3   OH226400   6.662   2.985  14.254  0.3806  0.5495  0.1307
 1662TIP3    H126401   6.681   3.076  14.279  0.8015  0.4463  0.1857
 1662TIP3    H226402   6.632   2.992  14.163  1.7097  0.6016 -0.3153
 1663TIP3   OH226403   2.701   4.078  16.023 -0.1387  0.0566 -0.4674
 1663TIP3    H126404   2.758   4.022  16.077 -0.0177  0.2545 -0.3891
 1663TIP3    H226405   2.727   4.058  15.933  0.5336  0.6382 -0.4151
 1664TIP3   OH226406   4.651   6.602  15.109  0.0925 -0.0373  0.2474
 1664TIP3    H126407   4.660   6.694  15.084 -1.1551  0.9232  3.0156
 1664TIP3    H226408   4.658   6.554  15.026  0.8064  2.5106 -1.2698
 1665TIP3   OH226409   5.508   0.033   5.765  0.2906  0.3615 -0.4722
 1665TIP3    H126410   5.528  -0.058   5.745  0.4695  0.3320 -0.1752
 1665TIP3    H226411   5.453   0.062   5.693 -0.3589 -0.1910 -0.2187
 1666TIP3   OH226412   2.456   3.146   4.505  0.1622 -0.0518  0.5158
 1666TIP3    H126413   2.422   3.218   4.452  1.3805 -1.2592 -2.0653
 1666TIP3    H226414   2.506   3.188   4.574 -1.0174  1.5895  0.4185
 1667TIP3   OH226415   3.326   2.187   0.169  0.3496  0.0633  0.0602
 1667TIP3    H126416   3.285   2.105   0.140 -0.6696  1.4716 -2.7381
 1667TIP3    H226417   3.420   2.170   0.163  0.1614 -0.3996 -2.1964
 1668TIP3   OH226418   6.382   2.404   0.776 -0.3389 -0.7711 -0.5077
 1668TIP3    H126419   6.461   2.357   0.803  0.7805 -0.3044 -2.6860
 1668TIP3    H226420   6.319   2.336   0.755 -0.4624 -1.1597  1.0626
 1669TIP3   OH226421   2.032   6.587   0.972 -0.8734  0.6345  0.4370
 1669TIP3    H126422   2.114   6.549   1.003  1.5226  2.0018 -3.5856
 1669TIP3    H226423   2.031   6.675   1.010  0.2166  1.0659 -0.5025
 1670TIP3   OH226424   3.239   2.028   6.081 -0.3117  0.4774 -0.9378
 1670TIP3    H126425   3.297   2.040   6.006  2.6905 -0.7595  0.9841
 1670TIP3    H226426   3.225   2.116   6.116  1.4219  0.7299 -0.7982
 1671TIP3   OH226427   2.673   0.263   4.094 -0.0431 -0.4168  0.0060
 1671TIP3    H126428   2.584   0.266   4.058  0.3072  1.3594 -0.8232
 1671TIP3    H226429   2.664   0.301   4.182  0.1305  1.4196 -0.7252
 1672TIP3   OH226430   6.192   1.454   5.549 -0.1235 -0.5447  0.3634
 1672TIP3    H126431   6.245   1.412   5.617 -0.3472  1.0502  1.5816
 1672TIP3    H226432   6.162   1.382   5.494  1.8556 -1.6662  0.6560
 1673TIP3   OH226433   0.098   0.118  15.841 -0.1256  0.1506  0.4921
 1673TIP3    H126434   0.163   0.187  15.851  1.7403 -1.3872 -0.2942
 1673TIP3    H226435   0.075   0.120  15.748  0.4409 -0.6707  0.3234
 1674TIP3   OH226436   4.592   0.389  12.223  0.3669 -0.0773 -0.1304
 1674TIP3    H126437   4.560   0.449  12.290  0.7379 -0.0202 -0.0003
 1674TIP3    H226438   4.668   0.347  12.263  2.0269  1.6180 -1.2899
 1675TIP3   OH226439   0.967   1.531   2.809 -0.4192  0.4491 -0.0635
 1675TIP3    H126440   0.884   1.498   2.843 -0.4377  1.4005  0.8432
 1675TIP3    H226441   0.945   1.567   2.723 -1.1031  1.3786  0.4869
 1676TIP3   OH226442   4.805   6.094  12.068  0.5605 -0.2121 -0.7226
 1676TIP3    H126443   4.790   6.022  12.007 -0.7172  0.0972 -0.7981
 1676TIP3    H226444   4.739   6.081  12.137  1.8897 -0.4936  0.5513
 1677TIP3   OH226445   1.126   5.869   1.441  0.1343  0.3208  0.5398
 1677TIP3    H126446   1.131   5.853   1.536  0.4360  0.2578  0.5142
 1677TIP3    H226447   1.052   5.929   1.431 -0.3901 -0.2673  0.7411
 1678TIP3   OH226448   4.332   1.237  12.359  0.1024 -0.1771 -0.0018
 1678TIP3    H126449   4.262   1.296  12.332 -0.3302 -0.9418 -0.5999
 1678TIP3    H226450   4.289   1.151  12.366  0.8696 -0.5579  0.1318
 1679TIP3   OH226451   0.390   4.261   6.274 -0.5573  0.9047  0.6556
 1679TIP3    H126452   0.478   4.259   6.311  0.9326 -0.8639 -2.5549
 1679TIP3    H226453   0.355   4.346   6.301  1.2174  0.7838  3.8433
 1680TIP3   OH226454   2.372   5.274   3.725 -0.0710  0.0030  0.4116
 1680TIP3    H126455   2.445   5.276   3.663  0.7129 -2.1896  1.1825
 1680TIP3    H226456   2.395   5.339   3.791  0.4611  0.3565 -0.1077
 1681TIP3   OH226457   3.187   1.716   4.257 -0.5975  0.5416 -0.1694
 1681TIP3    H126458   3.195   1.629   4.295 -1.0629  0.0060 -1.2694
 1681TIP3    H226459   3.266   1.762   4.287  0.3423 -0.6809 -0.6690
 1682TIP3   OH226460   4.315   4.198   2.201  1.1038 -0.3372 -0.2875
 1682TIP3    H126461   4.234   4.150   2.185 -1.3816  1.6736  4.2845
 1682TIP3    H226462   4.368   4.139   2.255 -0.6702  0.6156  2.7958
 1683TIP3   OH226463   3.215   4.349  13.380 -0.0799  0.0817  0.0854
 1683TIP3    H126464   3.148   4.382  13.320 -0.0113 -0.1645 -0.1263
 1683TIP3    H226465   3.297   4.360  13.332 -0.0321 -0.1802  0.1062
 1684TIP3   OH226466   1.494   0.429  15.403 -0.1398  0.1124 -0.1630
 1684TIP3    H126467   1.454   0.369  15.465  0.7058 -0.4692 -0.1611
 1684TIP3    H226468   1.569   0.466  15.450 -1.2274  1.9650  0.1969
 1685TIP3   OH226469   2.098   0.252   4.816 -0.1721  0.2695 -0.5768
 1685TIP3    H126470   2.015   0.291   4.846 -0.5430  0.9047 -2.3003
 1685TIP3    H226471   2.166   0.305   4.857 -0.6153  0.0632  0.4515
 1686TIP3   OH226472   2.201   3.382   3.150  0.4811  0.1925  0.1812
 1686TIP3    H126473   2.276   3.388   3.209 -1.0610 -0.0063  2.2683
 1686TIP3    H226474   2.185   3.288   3.142  1.5432  0.1270 -1.8014
 1687TIP3   OH226475   1.075   0.339  15.793 -0.5272 -0.0911  0.2528
 1687TIP3    H126476   0.980   0.329  15.782 -0.5654 -0.4729  0.9257
 1687TIP3    H226477   1.088   0.349  15.887  0.0411  0.6459  0.1050
 1688TIP3   OH226478   4.819   1.673  16.301 -0.1276  0.3988 -0.6339
 1688TIP3    H126479   4.891   1.736  16.298 -0.0878  0.3934  0.0871
 1688TIP3    H226480   4.840   1.616  16.374 -0.4387 -0.1234 -0.9486
 1689TIP3   OH226481   0.800   2.976   1.873  0.4449 -0.3649  0.1279
 1689TIP3    H126482   0.876   2.924   1.898  0.1908 -0.9479 -0.2844
 1689TIP3    H226483   0.771   3.018   1.954  0.3778 -1.2351  0.5617
 1690TIP3   OH226484   1.171   0.551  16.810 -0.1000  0.9467 -0.6266
 1690TIP3    H126485   1.235   0.481  16.819 -1.4532 -0.4819 -1.6470
 1690TIP3    H226486   1.132   0.560  16.897 -0.1329  0.1970 -0.5586
 1691TIP3   OH226487   3.668   6.197  13.458 -0.2520 -0.4689 -0.5332
 1691TIP3    H126488   3.733   6.252  13.502  0.4065 -1.2469 -0.5073
 1691TIP3    H226489   3.665   6.117  13.510 -0.2998 -0.9402 -1.2514
 1692TIP3   OH226490   1.541   5.159  11.261 -0.3478  0.2082  0.3797
 1692TIP3    H126491   1.552   5.253  11.272 -2.0692  0.5710 -0.6628
 1692TIP3    H226492   1.462   5.150  11.208  0.1102 -1.8058 -0.0459
 1693TIP3   OH226493   4.316   0.236   4.826 -0.1154  0.3614  0.1586
 1693TIP3    H126494   4.402   0.211   4.793 -0.0009  2.1775 -1.0238
 1693TIP3    H226495   4.304   0.327   4.797 -2.1405  0.3765  0.8873
 1694TIP3   OH226496   5.001   1.775   6.773  0.2010 -0.4452  0.3668
 1694TIP3    H126497   5.006   1.731   6.858 -1.6542 -0.1486  0.6752
 1694TIP3    H226498   4.932   1.728   6.726  1.5040 -0.8930 -1.1875
 1695TIP3   OH226499   6.192   2.133  13.137 -0.3402 -0.0506 -0.7719
 1695TIP3    H126500   6.262   2.197  13.122  1.2735 -1.5791 -0.0462
 1695TIP3    H226501   6.119   2.185  13.172  1.8325  1.0921  2.4947
 1696TIP3   OH226502   6.177   0.784   6.036  0.2033 -0.1886  0.1068
 1696TIP3    H126503   6.094   0.757   6.075  0.3672 -0.8232  0.0279
 1696TIP3    H226504   6.240   0.720   6.067  0.5936  0.0748 -0.1337
 1697TIP3   OH226505   0.673   1.224   3.872 -0.5864 -0.3557 -0.1930
 1697TIP3    H126506   0.635   1.293   3.819  1.5143  0.1854 -1.0945
 1697TIP3    H226507   0.748   1.193   3.822 -0.5407 -2.2254  0.9103
 1698TIP3   OH226508   3.944   1.600  14.978 -0.3782 -0.4554  0.1002
 1698TIP3    H126509   3.901   1.516  14.995  1.0600 -1.2285  0.1055
 1698TIP3    H226510   4.009   1.608  15.048  1.2303 -0.5908 -1.3174
 1699TIP3   OH226511   6.786   1.718  16.085  0.2248 -0.2660 -0.4101
 1699TIP3    H126512   6.871   1.693  16.122 -0.3617 -3.1424 -0.7733
 1699TIP3    H226513   6.808   1.780  16.015  2.0266 -0.9376 -0.5054
 1700TIP3   OH226514   2.896   4.616  14.545 -0.1053 -0.0341 -0.0183
 1700TIP3    H126515   2.919   4.677  14.475  0.3033  0.8714  0.8844
 1700TIP3    H226516   2.972   4.618  14.604 -0.1955 -1.2197  0.1626
 1701TIP3   OH226517   4.637   4.297   6.109 -0.4941  0.3282  0.4697
 1701TIP3    H126518   4.700   4.243   6.060 -0.6433 -0.6981  1.3731
 1701TIP3    H226519   4.577   4.234   6.148 -1.0486  1.2026  1.0501
 1702TIP3   OH226520   6.356   3.331  12.246  0.2565 -0.3119  0.3234
 1702TIP3    H126521   6.433   3.349  12.300 -1.1377  1.5529  1.8634
 1702TIP3    H226522   6.354   3.402  12.182  0.0619 -0.5929  0.0126
 1703TIP3   OH226523   4.868   6.673  13.429  0.2796 -0.7708 -0.7064
 1703TIP3    H126524   4.946   6.619  13.418  0.0727 -1.0357 -0.8799
 1703TIP3    H226525   4.840   6.693  13.340  1.8919  1.9016 -0.7251
 1704TIP3   OH226526   0.231   3.095  13.750 -0.2766 -0.2432  0.5968
 1704TIP3    H126527   0.153   3.150  13.756 -0.0702  0.2044 -0.5036
 1704TIP3    H226528   0.301   3.151  13.784 -0.1203  0.0880 -0.2325
 1705TIP3   OH226529   3.574   1.202  16.814 -0.5555  0.5450 -0.0126
 1705TIP3    H126530   3.633   1.205  16.891 -0.8422  0.9437  0.1964
 1705TIP3    H226531   3.521   1.124  16.828  0.0980  0.0393 -0.3324
 1706TIP3   OH226532   2.112   3.583   0.807 -0.4613  0.8556 -1.2242
 1706TIP3    H126533   2.105   3.489   0.789  0.2192  0.9978 -2.3420
 1706TIP3    H226534   2.184   3.590   0.869 -2.0563  0.4567  0.7584
 1707TIP3   OH226535   0.393   2.497   5.626  0.1004  0.1297 -0.0518
 1707TIP3    H126536   0.346   2.545   5.694  0.1604 -1.0408  0.8414
 1707TIP3    H226537   0.478   2.540   5.621  0.3658 -0.2287  1.1391
 1708TIP3   OH226538   0.119   4.536  13.833 -1.2910  0.4026  0.2568
 1708TIP3    H126539   0.201   4.512  13.792 -0.9104  0.2211  1.1052
 1708TIP3    H226540   0.054   4.528  13.763 -0.8017 -0.7408 -0.0909
 1709TIP3   OH226541   4.716   2.810   3.711 -0.3022  0.2969  0.3961
 1709TIP3    H126542   4.672   2.788   3.793  2.9172 -1.4075  1.9032
 1709TIP3    H226543   4.717   2.728   3.662  0.5616  0.4610  0.1198
 1710TIP3   OH226544   6.631   5.348  15.087  0.3294 -0.6435  0.0588
 1710TIP3    H126545   6.667   5.372  15.001 -1.8008  0.5440 -0.5697
 1710TIP3    H226546   6.611   5.431  15.129  0.0662 -1.2439  1.1514
 1711TIP3   OH226547   0.773   4.132  15.041 -0.7337  0.1718 -0.2060
 1711TIP3    H126548   0.691   4.098  15.076 -0.6896  0.8859  0.6108
 1711TIP3    H226549   0.748   4.176  14.960 -0.8794 -1.2143 -0.9501
 1712TIP3   OH226550   0.287   5.974   4.440 -0.2279 -0.2278 -0.2859
 1712TIP3    H126551   0.212   5.974   4.381 -1.1975 -0.8637  0.9125
 1712TIP3    H226552   0.257   6.023   4.516  1.6614  2.3363 -1.0461
 1713TIP3   OH226553   2.227   1.232  13.168 -0.2300  0.1481  0.3868
 1713TIP3    H126554   2.307   1.237  13.115  0.2942 -1.8415  0.9329
 1713TIP3    H226555   2.178   1.311  13.144 -0.4397 -0.9825 -3.7683
 1714TIP3   OH226556   4.111   2.261   4.652 -0.5564  0.1328  0.0750
 1714TIP3    H126557   4.150   2.180   4.687 -0.6769  0.7303  1.7004
 1714TIP3    H226558   4.057   2.232   4.579 -1.4914 -1.4380  1.3027
 1715TIP3   OH226559   6.451   6.197  15.389  0.6235  0.0281  0.2858
 1715TIP3    H126560   6.396   6.266  15.352  1.2951  0.7615  0.6316
 1715TIP3    H226561   6.388   6.136  15.430  0.0576  0.8613  0.6996
 1716TIP3   OH226562   3.662   0.488   3.180  0.2729  0.1240 -0.3177
 1716TIP3    H126563   3.657   0.403   3.223 -1.9597  0.3571  0.0454
 1716TIP3    H226564   3.749   0.521   3.201  0.9489 -1.7805  0.0557
 1717TIP3   OH226565   5.061   4.607   3.920 -0.0340 -0.1171 -0.0968
 1717TIP3    H126566   5.123   4.664   3.967  0.1356 -0.7633  0.4688
 1717TIP3    H226567   4.993   4.588   3.984  0.0942 -0.8396 -0.1698
 1718TIP3   OH226568   5.840   4.459   4.233  0.2130  0.2039  1.0893
 1718TIP3    H126569   5.831   4.535   4.290 -0.5115  0.2889  0.8783
 1718TIP3    H226570   5.845   4.385   4.292  1.4302  0.4485  1.3125
 1719TIP3   OH226571   1.689   6.069   1.449  1.3630 -0.3123 -0.5665
 1719TIP3    H126572   1.656   6.110   1.529  0.3944 -2.2257  0.0736
 1719TIP3    H226573   1.702   6.142   1.388 -1.1272  0.8998  0.2022
 1720TIP3   OH226574   0.404   0.698  14.788  0.0598 -0.0244  0.1467
 1720TIP3    H126575   0.352   0.778  14.781  0.9154  0.4195 -2.3651
 1720TIP3    H226576   0.340   0.628  14.793 -0.7604  0.6527 -0.4684
 1721TIP3   OH226577   5.135   6.079  16.552 -0.2027  0.2117 -0.6508
 1721TIP3    H126578   5.109   6.134  16.478 -0.3958 -0.0908 -0.8107
 1721TIP3    H226579   5.173   6.140  16.615  1.2863  0.2814 -1.5905
 1722TIP3   OH226580   6.010   0.965   3.974 -0.0821 -0.1059  0.1892
 1722TIP3    H126581   6.057   0.883   3.990 -2.8155 -2.1427 -1.3262
 1722TIP3    H226582   6.057   1.005   3.901  0.3153 -1.2103 -0.1860
 1723TIP3   OH226583   2.189   5.822   3.845 -1.0901  0.2602 -0.4231
 1723TIP3    H126584   2.169   5.747   3.789 -2.2996 -1.5284  2.2348
 1723TIP3    H226585   2.284   5.828   3.844 -1.0525  0.3568 -2.6354
 1724TIP3   OH226586   1.576   6.401  11.529  0.5099 -0.0595  0.1865
 1724TIP3    H126587   1.617   6.476  11.573  1.6855 -1.8675  2.4648
 1724TIP3    H226588   1.626   6.391  11.448 -0.0602  1.9203 -0.4625
 1725TIP3   OH226589   1.483   5.053   2.914 -0.4816  0.4158  0.0921
 1725TIP3    H126590   1.487   4.998   2.835 -1.3277  0.9968 -0.3622
 1725TIP3    H226591   1.425   5.125   2.890 -1.0196  0.4202  1.3605
 1726TIP3   OH226592   6.019   3.911  13.277 -0.8719 -0.1425 -0.2681
 1726TIP3    H126593   6.105   3.911  13.319 -0.1743  0.8668 -1.6408
 1726TIP3    H226594   5.969   3.846  13.327  0.0930  0.5418  1.7072
 1727TIP3   OH226595   3.602   1.543  11.331  0.1053 -0.3626  0.4724
 1727TIP3    H126596   3.644   1.515  11.250 -1.0155  1.0766 -0.6513
 1727TIP3    H226597   3.563   1.628  11.310 -1.4555 -0.6198  2.0808
 1728TIP3   OH226598   3.204   0.158  17.143  0.1404  0.4102  0.1696
 1728TIP3    H126599   3.268   0.113  17.198 -0.9975 -0.8549  0.5228
 1728TIP3    H226600   3.217   0.251  17.163 -0.1187  0.0234  2.4946
 1729TIP3   OH226601   1.474   1.894  15.564  0.2204 -0.4879  0.1910
 1729TIP3    H126602   1.471   1.984  15.531 -0.6221 -0.7823 -0.5829
 1729TIP3    H226603   1.389   1.882  15.607  0.9405 -0.4157  1.6957
 1730TIP3   OH226604   2.799   0.152  14.611 -0.3505 -0.2623  0.8927
 1730TIP3    H126605   2.891   0.150  14.636  0.0035  0.6470 -0.2214
 1730TIP3    H226606   2.781   0.064  14.579 -0.3868 -0.9680  2.7798
 1731TIP3   OH226607   0.933   3.325   3.272  0.0957  0.0230  0.2633
 1731TIP3    H126608   0.973   3.293   3.191  0.5010  0.9097  0.1052
 1731TIP3    H226609   0.949   3.419   3.271 -0.4603  0.1316  1.0665
 1732TIP3   OH226610   6.089   3.317  14.804 -0.7619  0.0348 -0.1344
 1732TIP3    H126611   6.135   3.379  14.861  0.4560 -0.6841 -0.2827
 1732TIP3    H226612   6.118   3.231  14.834 -1.9599 -0.4399 -0.3180
 1733TIP3   OH226613   4.006   0.610  13.226 -0.3106  0.3885 -0.3871
 1733TIP3    H126614   4.055   0.579  13.150 -0.5210 -0.4367 -0.1893
 1733TIP3    H226615   4.033   0.701  13.236 -1.1979  0.8876 -2.1954
 1734TIP3   OH226616   1.943   6.171   2.015  0.0516 -0.2099  0.5223
 1734TIP3    H126617   1.854   6.204   2.014  0.5504  1.2308 -1.6431
 1734TIP3    H226618   1.933   6.076   2.018 -1.4791 -0.0606  1.9876
 1735TIP3   OH226619   2.450   3.594  13.659 -0.0791  0.9539 -0.2053
 1735TIP3    H126620   2.400   3.660  13.611  1.4162  1.0407 -1.7292
 1735TIP3    H226621   2.388   3.521  13.669 -0.2593  0.5809 -3.0805
 1736TIP3   OH226622   5.422   0.312  13.006 -0.3607  0.4134 -0.5655
 1736TIP3    H126623   5.491   0.335  13.068 -0.6413  2.2534 -0.8758
 1736TIP3    H226624   5.421   0.217  13.005  0.0490  0.3208  1.8233
 1737TIP3   OH226625   3.146   4.333  12.255  0.1054  0.5577  0.8464
 1737TIP3    H126626   3.098   4.253  12.233  0.3765  0.9324 -1.2972
 1737TIP3    H226627   3.178   4.318  12.344 -0.7074 -1.2824  0.8712
 1738TIP3   OH226628   5.809   6.703   3.432  0.4521 -0.2520  0.2820
 1738TIP3    H126629   5.728   6.664   3.400  0.4411 -0.8427  1.0091
 1738TIP3    H226630   5.804   6.694   3.527  0.9876  0.4708  0.3892
 1739TIP3   OH226631   0.005   6.747  11.817  0.2713 -0.2984  0.3693
 1739TIP3    H126632  -0.059   6.760  11.887  0.9573  1.2729  0.7554
 1739TIP3    H226633   0.071   6.815  11.832  1.9851 -1.7641 -0.0831
 1740TIP3   OH226634   5.384   1.064   3.277 -0.2505 -0.0973 -0.0740
 1740TIP3    H126635   5.432   1.124   3.220  0.0665 -0.4737 -0.2063
 1740TIP3    H226636   5.313   1.117   3.314  0.8073  0.7233  0.8376
 1741TIP3   OH226637   2.489   3.874  15.865  0.5249  0.4428 -0.0179
 1741TIP3    H126638   2.497   3.836  15.953  1.1314 -0.0659 -0.2915
 1741TIP3    H226639   2.571   3.921  15.852  0.0598  1.2958  0.0471
 1742TIP3   OH226640   1.610   4.321  11.223  0.5102 -0.3744  0.1184
 1742TIP3    H126641   1.538   4.299  11.165  0.8894  0.0030 -0.5062
 1742TIP3    H226642   1.612   4.417  11.224 -0.4716 -0.3263  1.9872
 1743TIP3   OH226643   1.782   6.333  14.047  0.4143  0.3013  0.2765
 1743TIP3    H126644   1.821   6.403  14.099 -0.7840  0.4320  1.0411
 1743TIP3    H226645   1.768   6.261  14.108  0.6374 -0.2075 -0.2655
 1744TIP3   OH226646   5.461   0.224   5.994  0.5366 -0.3580  0.2921
 1744TIP3    H126647   5.408   0.171   6.053  0.6195 -0.8393 -0.0657
 1744TIP3    H226648   5.458   0.178   5.910 -0.8365  1.1022 -0.5165
 1745TIP3   OH226649   5.268   3.850   4.188 -0.2600 -1.0023 -0.1466
 1745TIP3    H126650   5.269   3.787   4.260 -1.3786 -1.3210 -0.3934
 1745TIP3    H226651   5.182   3.839   4.148 -0.0773 -0.0298 -0.8302
 1746TIP3   OH226652   6.226   1.295   4.532  0.2301  0.4081  0.4371
 1746TIP3    H126653   6.259   1.372   4.485  0.7731 -0.4855 -0.7152
 1746TIP3    H226654   6.170   1.250   4.468 -0.3136 -0.0078  1.1893
 1747TIP3   OH226655   4.474   3.382  13.766  0.7513 -0.0860 -0.1452
 1747TIP3    H126656   4.495   3.411  13.678  1.8888  0.7420  0.3784
 1747TIP3    H226657   4.454   3.289  13.757 -0.7364  0.3245 -1.5054
 1748TIP3   OH226658   6.737   0.769   2.898  0.0398 -0.4606  0.4196
 1748TIP3    H126659   6.698   0.728   2.820 -1.3976 -0.2243  0.9869
 1748TIP3    H226660   6.665   0.777   2.959  0.7938  0.8802  1.1674
 1749TIP3   OH226661   2.879   1.880  16.793 -0.0367  0.2115  0.8727
 1749TIP3    H126662   2.865   1.972  16.771  0.8194  0.3794  1.0038
 1749TIP3    H226663   2.916   1.842  16.713 -0.1418  0.0370  0.9074
 1750TIP3   OH226664   6.095   4.802  11.866  0.5297  0.0668  0.7608
 1750TIP3    H126665   6.054   4.793  11.779  0.6543 -1.2084  0.8206
 1750TIP3    H226666   6.187   4.820  11.848  0.4932  0.1280  0.6325
 1751TIP3   OH226667   5.818   6.721   3.708 -0.1698  0.0004  0.3704
 1751TIP3    H126668   5.815   6.669   3.788 -0.0553 -0.3159  0.1732
 1751TIP3    H226669   5.885   6.786   3.724  2.1356 -1.9859 -0.6018
 1752TIP3   OH226670   3.843   0.983  15.997  0.4822  0.9824  0.3523
 1752TIP3    H126671   3.909   0.913  16.001  1.2878  1.7682  1.2675
 1752TIP3    H226672   3.883   1.057  16.043 -0.4169  2.0092 -0.4694
 1753TIP3   OH226673   4.501   6.098  15.124  0.0950  0.3829  0.0570
 1753TIP3    H126674   4.459   6.022  15.083 -1.0213  1.7136 -1.3749
 1753TIP3    H226675   4.593   6.093  15.096  0.1697 -0.7508  0.4709
 1754TIP3   OH226676   4.553   3.727   6.431 -0.0230  0.2363 -0.0722
 1754TIP3    H126677   4.536   3.767   6.516  0.4074  0.7730 -0.2369
 1754TIP3    H226678   4.567   3.634   6.451  0.6608  0.4588  0.5130
 1755TIP3   OH226679   1.289   4.403  11.044  0.2162  0.4519  0.3545
 1755TIP3    H126680   1.342   4.482  11.030 -2.5050  2.6761  1.4847
 1755TIP3    H226681   1.333   4.335  10.993  1.5956  3.1842 -2.4778
 1756TIP3   OH226682   6.529   3.824  17.012 -0.4357  0.0333  0.3818
 1756TIP3    H126683   6.590   3.867  17.072 -0.4262 -0.2338  0.5693
 1756TIP3    H226684   6.457   3.795  17.068 -1.2664  1.2842  0.0001
 1757TIP3   OH226685   0.501   4.195   4.321  0.5031  0.3995 -0.4016
 1757TIP3    H126686   0.412   4.197   4.284  0.9181  1.3941 -1.4267
 1757TIP3    H226687   0.525   4.103   4.321 -0.5487  0.1127 -0.0664
 1758TIP3   OH226688   2.715   4.074  16.972 -0.3281 -0.0902  0.3756
 1758TIP3    H126689   2.719   4.169  16.960  1.5778 -0.3425 -1.4983
 1758TIP3    H226690   2.724   4.038  16.884 -1.0098 -2.0407  1.0459
 1759TIP3   OH226691   5.098   1.965  15.570  0.0196 -0.1215  0.5575
 1759TIP3    H126692   5.095   1.870  15.576  1.9510 -0.3015 -0.5204
 1759TIP3    H226693   5.191   1.987  15.577 -0.4244  1.7402  1.2893
 1760TIP3   OH226694   3.335   3.328  15.676 -0.1137 -0.4389 -0.4177
 1760TIP3    H126695   3.311   3.396  15.738 -0.0126  1.0011 -1.8941
 1760TIP3    H226696   3.372   3.258  15.730  0.3605  0.9255  1.0969
 1761TIP3   OH226697   4.284   6.183   4.033 -0.4789 -0.0598 -0.1489
 1761TIP3    H126698   4.288   6.176   3.938 -0.9208 -2.2065 -0.0732
 1761TIP3    H226699   4.204   6.233   4.050 -3.0047 -3.4300 -0.9508
 1762TIP3   OH226700   4.641   6.783   3.871  0.3194  0.6054 -0.6592
 1762TIP3    H126701   4.609   6.859   3.920 -0.6514 -1.0104  1.4265
 1762TIP3    H226702   4.736   6.794   3.867  0.2512  1.6159  0.1552
 1763TIP3   OH226703   3.570   5.719  15.652 -0.3812  0.2461  0.3994
 1763TIP3    H126704   3.624   5.640  15.650  0.0309  0.4836  1.4307
 1763TIP3    H226705   3.514   5.707  15.729  0.4477  1.4331  1.2323
 1764TIP3   OH226706   4.732   4.618  12.186 -0.1013  0.3961 -0.3537
 1764TIP3    H126707   4.666   4.667  12.235  1.2926 -0.2598  2.4260
 1764TIP3    H226708   4.718   4.527  12.211 -0.3515 -0.2221 -2.5573
 1765TIP3   OH226709   6.037   6.347  10.760 -0.1106  0.2428  0.0386
 1765TIP3    H126710   6.074   6.273  10.713 -0.8618 -0.1058 -0.0268
 1765TIP3    H226711   5.951   6.361  10.719 -0.4707  0.3944  0.8221
 1766TIP3   OH226712   6.761   3.197  13.466  0.0860 -0.0402 -0.6587
 1766TIP3    H126713   6.736   3.117  13.421 -0.8574 -0.3873  0.4288
 1766TIP3    H226714   6.717   3.267  13.417  1.8033 -0.0113 -2.2904
 1767TIP3   OH226715   4.764   4.944   5.972 -0.0512 -0.5124  0.2627
 1767TIP3    H126716   4.824   4.896   5.916  0.3625  0.6345 -0.3148
 1767TIP3    H226717   4.778   5.036   5.949 -1.0444 -0.1289  1.0962
 1768TIP3   OH226718   0.538   3.089  14.922 -0.5987  0.3408  0.7063
 1768TIP3    H126719   0.608   3.147  14.952  0.2824 -0.4603  0.2596
 1768TIP3    H226720   0.513   3.039  14.999  0.2896 -0.3337  0.5667
 1769TIP3   OH226721   6.398   3.737   6.099 -0.0971 -0.3231  0.1489
 1769TIP3    H126722   6.436   3.649   6.094 -0.5226 -0.5612  1.0224
 1769TIP3    H226723   6.475   3.795   6.104  0.1818 -0.6499 -0.2316
 1770TIP3   OH226724   4.479   6.266   4.612 -0.4361  0.2680  0.3341
 1770TIP3    H126725   4.533   6.317   4.552 -0.9607  0.3880 -0.0463
 1770TIP3    H226726   4.418   6.329   4.650 -1.4267 -0.1482 -0.5236
 1771TIP3   OH226727   2.651   3.272  12.013 -0.3920 -0.4747 -0.1401
 1771TIP3    H126728   2.556   3.263  12.005 -0.2322 -1.1240 -1.7386
 1771TIP3    H226729   2.682   3.181  12.021  0.1771 -0.3919 -1.1702
 1772TIP3   OH226730   1.992   6.326  15.839  0.1820 -0.1091  0.4700
 1772TIP3    H126731   1.906   6.352  15.807 -1.1542 -1.0954  2.9551
 1772TIP3    H226732   2.021   6.400  15.893  0.7937  0.1126 -0.1506
 1773TIP3   OH226733   3.253   2.752  13.673 -0.3908 -0.2700 -0.2035
 1773TIP3    H126734   3.203   2.687  13.623  0.1781 -0.9804  0.1256
 1773TIP3    H226735   3.341   2.714  13.682  0.4184  1.2366 -1.3092
 1774TIP3   OH226736   2.841   3.482   5.570  0.0413 -0.5427 -0.5249
 1774TIP3    H126737   2.891   3.484   5.488 -2.1250 -1.2308 -1.9545
 1774TIP3    H226738   2.895   3.430   5.630  1.5157 -0.3476 -1.6175
 1775TIP3   OH226739   3.178   2.354   5.906 -0.2092  0.9817  0.7367
 1775TIP3    H126740   3.132   2.329   5.986 -1.9219  1.6057 -0.0128
 1775TIP3    H226741   3.164   2.281   5.846  0.1250  1.0042  0.6274
 1776TIP3   OH226742   3.455   4.126  11.890  0.3870  0.3460  0.0569
 1776TIP3    H126743   3.546   4.120  11.862  0.1012  0.5628 -0.9547
 1776TIP3    H226744   3.438   4.220  11.898  0.8090  0.3037  2.2253
 1777TIP3   OH226745   2.191   4.203   3.649 -0.2605 -0.2218  0.2255
 1777TIP3    H126746   2.205   4.298   3.646  1.3159 -0.4280  0.3737
 1777TIP3    H226747   2.134   4.190   3.726 -1.3078  0.6641 -0.3702
 1778TIP3   OH226748   5.828   2.617  13.996  0.3573 -0.2481 -0.0622
 1778TIP3    H126749   5.814   2.708  13.971  0.4441 -0.5081 -1.1306
 1778TIP3    H226750   5.922   2.610  14.011  0.4148 -0.2531 -0.4080
 1779TIP3   OH226751   5.531   3.145   0.632  0.4719 -0.3788  0.5747
 1779TIP3    H126752   5.598   3.212   0.618  1.0108 -1.0988 -0.3827
 1779TIP3    H226753   5.452   3.195   0.653  0.9202  0.5560  0.1131
 1780TIP3   OH226754   5.020   3.181  14.331 -0.1403 -0.3818 -0.4617
 1780TIP3    H126755   4.934   3.182  14.288 -1.2395  0.2714  1.5980
 1780TIP3    H226756   5.000   3.173  14.424  2.1084 -1.3803  0.0037
 1781TIP3   OH226757   0.945   3.327   2.193 -0.1116  0.3104 -0.4973
 1781TIP3    H126758   0.963   3.257   2.256 -3.0236 -0.4897 -0.4040
 1781TIP3    H226759   0.948   3.283   2.108  2.2654  1.0666 -0.8883
 1782TIP3   OH226760   4.234   1.558  11.203 -0.4447  0.1460 -0.5247
 1782TIP3    H126761   4.182   1.552  11.123  0.6678 -0.9153 -1.1998
 1782TIP3    H226762   4.325   1.548  11.174 -0.1406 -3.9324  1.1673
 1783TIP3   OH226763   5.571   3.226  15.778  0.2450 -0.0298  0.2709
 1783TIP3    H126764   5.590   3.273  15.859 -0.5028 -0.6773  0.8356
 1783TIP3    H226765   5.546   3.138  15.806 -2.3924  0.4019 -0.4659
 1784TIP3   OH226766   0.930   2.086   0.802 -0.2545 -0.5023 -0.2392
 1784TIP3    H126767   0.924   2.108   0.895  0.0388 -1.7092  0.0812
 1784TIP3    H226768   1.016   2.118   0.775 -0.9817  1.3345 -0.5343
 1785TIP3   OH226769   4.794   0.194   0.020  0.2136  0.7310 -0.3199
 1785TIP3    H126770   4.881   0.177  -0.018  0.4785  0.0674  0.5610
 1785TIP3    H226771   4.802   0.167   0.111 -1.2687 -0.4897 -0.5194
 1786TIP3   OH226772   1.714   6.582  12.559 -0.9004  0.2388  0.0662
 1786TIP3    H126773   1.799   6.540  12.575  0.9700  3.7741  0.3424
 1786TIP3    H226774   1.650   6.515  12.581  1.7866 -2.3285  0.6983
 1787TIP3   OH226775   2.654   3.873   3.671 -0.0965 -0.2668 -0.5014
 1787TIP3    H126776   2.594   3.917   3.611  0.5871 -0.4931 -1.3753
 1787TIP3    H226777   2.675   3.791   3.627  1.1229 -0.0344 -0.3768
 1788TIP3   OH226778   2.916   4.102   3.105 -0.9303 -0.1639 -0.0704
 1788TIP3    H126779   2.919   4.006   3.099  0.5247 -0.0476 -2.3581
 1788TIP3    H226780   3.001   4.125   3.144 -0.6371  0.2518 -0.9434
 1789TIP3   OH226781   1.835   1.478  14.136 -0.3281  0.6866  0.8343
 1789TIP3    H126782   1.744   1.483  14.106 -1.1488  0.1113  3.0158
 1789TIP3    H226783   1.829   1.450  14.227  2.1232 -0.6801  0.6706
 1790TIP3   OH226784   1.837   3.019   2.182  0.3975 -0.4792 -0.2519
 1790TIP3    H126785   1.890   2.991   2.256 -1.9885 -0.8995  1.4191
 1790TIP3    H226786   1.762   3.064   2.222  0.1052  1.2508 -2.5251
 1791TIP3   OH226787   2.189   1.092  12.747 -0.4294 -0.0067 -0.1373
 1791TIP3    H126788   2.207   1.006  12.708  1.3043  0.3008 -0.0901
 1791TIP3    H226789   2.221   1.085  12.837 -1.5888  0.2642  0.3125
 1792TIP3   OH226790   5.737   4.112  15.014  0.6819 -0.1232 -0.4880
 1792TIP3    H126791   5.664   4.065  14.972 -1.0706  1.8384  0.1562
 1792TIP3    H226792   5.745   4.193  14.963  1.0226  0.5933  0.6554
 1793TIP3   OH226793   6.486   6.380   4.620 -0.8129 -0.5723  0.3473
 1793TIP3    H126794   6.422   6.447   4.644 -1.3872 -1.4742  1.4434
 1793TIP3    H226795   6.433   6.303   4.598 -0.1436 -1.2997  1.1606
 1794TIP3   OH226796   1.763   1.376  15.757 -0.8487 -0.0975  0.0049
 1794TIP3    H126797   1.718   1.352  15.838 -0.7558  0.3832  0.2010
 1794TIP3    H226798   1.829   1.439  15.784 -1.7237  1.1272 -0.6237
 1795TIP3   OH226799   1.930   4.252   3.765  0.0192 -0.0068  0.1725
 1795TIP3    H126800   1.850   4.205   3.742 -0.0414 -0.2170  0.7920
 1795TIP3    H226801   1.903   4.344   3.765 -0.3052 -0.0981  0.6892
 1796TIP3   OH226802   4.737   5.637   1.105  1.0932  0.1963 -0.4986
 1796TIP3    H126803   4.686   5.656   1.026  0.0227  1.2245  0.3972
 1796TIP3    H226804   4.765   5.724   1.136 -1.0445  0.1242  1.8753
 1797TIP3   OH226805   0.121   5.500   5.301  0.0261  0.2665 -0.3376
 1797TIP3    H126806   0.149   5.434   5.364  0.9126 -0.1959 -1.1787
 1797TIP3    H226807   0.050   5.459   5.253  0.2709  0.0874 -0.5513
 1798TIP3   OH226808   6.053   2.544  14.121  0.1347 -0.0211 -0.3809
 1798TIP3    H126809   6.067   2.575  14.210  1.4131  1.1575 -0.9451
 1798TIP3    H226810   6.129   2.489  14.103 -0.4714 -0.8239 -0.5100
 1799TIP3   OH226811   0.995   4.855  17.179 -0.1210 -0.1435 -0.4448
 1799TIP3    H126812   0.912   4.888  17.214 -0.1064  0.2136 -0.7551
 1799TIP3    H226813   1.062   4.888  17.240  0.0022  1.2354 -1.2865
 1800TIP3   OH226814   0.331   2.246  14.084  0.1130 -0.0734 -0.4781
 1800TIP3    H126815   0.412   2.229  14.036 -0.2034  1.1421 -1.4926
 1800TIP3    H226816   0.360   2.287  14.166  0.5144  0.5156 -0.9099
 1801TIP3   OH226817   0.661   0.314   1.895 -0.0468 -0.6275 -0.6791
 1801TIP3    H126818   0.686   0.222   1.895 -0.6896 -0.8751  1.5322
 1801TIP3    H226819   0.600   0.322   1.969  0.0336  1.5772 -0.7804
 1802TIP3   OH226820   1.508   1.011  12.425  0.0049 -0.6841  0.5665
 1802TIP3    H126821   1.588   0.959  12.419 -0.5247 -1.4099 -0.8371
 1802TIP3    H226822   1.538   1.101  12.438  1.0378 -0.9943  0.4260
 1803TIP3   OH226823   4.594   0.680   1.094  0.3428 -0.4195 -0.6581
 1803TIP3    H126824   4.654   0.609   1.072 -0.1655 -1.0264 -0.1347
 1803TIP3    H226825   4.591   0.680   1.190  0.2019  0.1995 -0.6576
 1804TIP3   OH226826   2.718   4.034  11.584 -0.2055 -0.2185 -0.2667
 1804TIP3    H126827   2.705   4.028  11.489  1.2382  0.5981 -0.5365
 1804TIP3    H226828   2.771   4.113  11.597  0.0033 -0.5621  1.1874
 1805TIP3   OH226829   6.042   6.073   3.192  0.0032  0.0422 -0.2275
 1805TIP3    H126830   6.110   6.023   3.237  1.1285  0.4388 -1.4230
 1805TIP3    H226831   6.063   6.064   3.099  0.0723  2.4622 -0.5065
 1806TIP3   OH226832   6.519   2.940  17.083 -0.1150  0.3256  0.2167
 1806TIP3    H126833   6.470   3.018  17.057  0.0267 -0.0276 -1.1634
 1806TIP3    H226834   6.610   2.968  17.084 -0.1738  0.5108  1.0208
 1807TIP3   OH226835   5.473   4.285  14.265 -0.0004 -0.1323  0.1336
 1807TIP3    H126836   5.475   4.321  14.176 -0.5686  0.1857  0.2436
 1807TIP3    H226837   5.520   4.350  14.318 -2.8693  1.6173  0.7234
 1808TIP3   OH226838   4.244   0.507  14.058  0.2699 -0.0483 -0.0290
 1808TIP3    H126839   4.325   0.469  14.092  0.9752  0.5077 -1.0314
 1808TIP3    H226840   4.239   0.478  13.967 -2.0725 -2.2943  0.6948
 1809TIP3   OH226841   2.266   6.230   3.109  0.1312 -0.2200  0.0948
 1809TIP3    H126842   2.228   6.213   3.023 -1.4962  1.4847  0.3979
 1809TIP3    H226843   2.206   6.187   3.170 -1.7009  2.7474  0.6016
 1810TIP3   OH226844   0.125   5.214   2.446  0.4738 -0.1942 -0.2716
 1810TIP3    H126845   0.086   5.143   2.395 -0.2132  0.0454 -0.0910
 1810TIP3    H226846   0.119   5.290   2.388  1.6456 -0.3730 -0.6530
 1811TIP3   OH226847   5.535   3.710  11.279  0.7390  0.1763 -0.0769
 1811TIP3    H126848   5.525   3.719  11.184 -0.9607  0.5156  0.1111
 1811TIP3    H226849   5.451   3.677  11.309  1.5646 -0.8303  1.2247
 1812TIP3   OH226850   0.276   1.843   2.623  0.2376  0.2250 -0.5178
 1812TIP3    H126851   0.320   1.803   2.548 -0.3338 -0.8849 -0.2862
 1812TIP3    H226852   0.332   1.916   2.647  1.2213 -0.3129 -1.0937
 1813TIP3   OH226853   2.693   1.586  15.150 -0.7176  0.1099  0.5183
 1813TIP3    H126854   2.683   1.519  15.217  0.0051 -0.0310  0.4895
 1813TIP3    H226855   2.604   1.608  15.124 -0.9538 -1.0782  0.2882
 1814TIP3   OH226856   2.992   3.967  13.497  0.0415 -0.0726 -0.4759
 1814TIP3    H126857   3.023   3.920  13.575 -1.1436 -1.4514 -0.7875
 1814TIP3    H226858   2.955   4.048  13.531  0.1677 -0.3380  0.3281
 1815TIP3   OH226859   5.483   5.061   1.854  0.4209 -0.4586  0.4632
 1815TIP3    H126860   5.460   4.999   1.785 -2.0000 -0.1495  0.9120
 1815TIP3    H226861   5.482   5.008   1.934  1.8479 -0.5275  0.4625
 1816TIP3   OH226862   0.634   5.092   2.530 -0.2783  0.7197  0.3994
 1816TIP3    H126863   0.547   5.127   2.549 -0.9311 -1.2350  1.3451
 1816TIP3    H226864   0.657   5.129   2.445 -1.9036  1.5163  0.2647
 1817TIP3   OH226865   0.848   1.028   5.555 -0.5830  0.1223 -0.3826
 1817TIP3    H126866   0.774   1.069   5.600 -0.8608 -0.3940 -0.3610
 1817TIP3    H226867   0.842   0.936   5.579 -0.3763 -0.0540 -0.9956
 1818TIP3   OH226868   5.819   1.017  16.775 -0.1385  0.1584  0.2664
 1818TIP3    H126869   5.858   0.975  16.698  0.6008 -1.6181  1.5454
 1818TIP3    H226870   5.726   0.996  16.769 -0.0428 -0.2089 -0.0100
 1819TIP3   OH226871   3.013   5.113   3.517  0.2059 -0.5203  0.3134
 1819TIP3    H126872   2.956   5.056   3.568  1.1239 -1.6262  0.1563
 1819TIP3    H226873   3.101   5.075   3.528  0.5949 -0.1188 -1.1560
 1820TIP3   OH226874   5.001   5.136  13.401  0.3248  0.4291 -0.2364
 1820TIP3    H126875   5.083   5.112  13.445  0.5343 -2.1422 -1.7932
 1820TIP3    H226876   5.008   5.095  13.314 -1.4008  2.6235 -1.4990
 1821TIP3   OH226877   3.645   1.526  10.510 -0.5516 -0.5996  0.0091
 1821TIP3    H126878   3.653   1.620  10.493 -1.4808 -0.6744 -0.9595
 1821TIP3    H226879   3.574   1.520  10.575  0.6550 -0.5436  1.3809
 1822TIP3   OH226880   2.497   0.461  13.440  0.7023 -0.2240 -0.0397
 1822TIP3    H126881   2.429   0.503  13.388  0.5075 -0.4557  0.0228
 1822TIP3    H226882   2.499   0.512  13.521 -1.9496 -2.2923  1.5235
 1823TIP3   OH226883   1.315   2.469  15.981 -0.2374  0.2590 -0.0680
 1823TIP3    H126884   1.311   2.432  16.070 -1.2756  0.5130  0.0026
 1823TIP3    H226885   1.310   2.563  15.994 -0.0175  0.3109 -0.3737
 1824TIP3   OH226886   1.027   2.613  16.086  0.2359  0.1868  0.3628
 1824TIP3    H126887   1.105   2.652  16.127 -0.2910  1.5042  0.1468
 1824TIP3    H226888   1.035   2.635  15.993  0.3122 -0.9081  0.0911
 1825TIP3   OH226889   1.106   3.928   5.389 -0.3244  0.1088 -0.2801
 1825TIP3    H126890   1.049   3.891   5.322  0.0747 -0.0616 -0.5257
 1825TIP3    H226891   1.191   3.938   5.346 -0.3179  0.9081 -0.0922
 1826TIP3   OH226892   2.115   6.313   2.186  0.5948  0.1573 -0.1031
 1826TIP3    H126893   2.053   6.264   2.133  1.2239  0.8629 -1.5324
 1826TIP3    H226894   2.162   6.246   2.236 -1.0654 -0.4093  0.7945
 1827TIP3   OH226895   0.796   1.623   0.933 -0.3620  0.0032 -0.1499
 1827TIP3    H126896   0.818   1.626   1.026 -0.4224 -2.7398  0.0363
 1827TIP3    H226897   0.701   1.633   0.931 -0.3640  0.0486  0.0691
 1828TIP3   OH226898   1.380   1.278  15.374  0.3535 -0.7342  0.0376
 1828TIP3    H126899   1.446   1.330  15.329 -0.5015  0.3296 -0.0584
 1828TIP3    H226900   1.300   1.293  15.323 -0.1449 -1.2846  0.6452
 1829TIP3   OH226901   4.052   0.549   3.918  0.0417  0.5773 -0.4622
 1829TIP3    H126902   3.997   0.473   3.934 -1.5125  0.9117 -3.4643
 1829TIP3    H226903   4.045   0.601   3.998 -1.4052 -0.9251  0.4633
 1830TIP3   OH226904   2.220   4.859   3.098 -0.3685 -0.1224  0.2594
 1830TIP3    H126905   2.219   4.822   3.187  0.7168 -0.3939  0.1781
 1830TIP3    H226906   2.158   4.806   3.049 -1.1414  0.1640  0.8980
 1831TIP3   OH226907   6.444   3.365   0.907 -0.1008  0.4144 -0.4177
 1831TIP3    H126908   6.492   3.430   0.857  0.3223 -0.2817 -0.9407
 1831TIP3    H226909   6.478   3.371   0.996  0.3196  0.5268 -0.5887
 1832TIP3   OH226910   2.899   1.967   0.008  0.3726  0.4589  0.6782
 1832TIP3    H126911   2.884   2.051   0.051  0.5603  0.9645 -0.2150
 1832TIP3    H226912   2.943   1.989  -0.074  0.3871 -0.5109  0.4050
 1833TIP3   OH226913   3.462   5.581   1.970  0.3647 -0.4094 -0.0614
 1833TIP3    H126914   3.553   5.560   1.992  0.2560  0.0716  0.9088
 1833TIP3    H226915   3.419   5.496   1.964  0.8274 -0.6330 -0.3178
 1834TIP3   OH226916   1.964   6.081   4.846  0.9021  0.5789 -0.5042
 1834TIP3    H126917   1.871   6.093   4.865  0.6032 -1.2368 -0.6828
 1834TIP3    H226918   2.008   6.101   4.929  0.0528 -1.7455  0.5715
 1835TIP3   OH226919   5.866   0.013   2.652  0.1136 -0.4008  0.2951
 1835TIP3    H126920   5.953   0.050   2.662 -0.5741  0.9377  1.8183
 1835TIP3    H226921   5.824   0.069   2.586  0.3597 -0.9694 -0.3489
 1836TIP3   OH226922   1.863   5.015  12.395  0.2661 -0.1675 -0.0596
 1836TIP3    H126923   1.846   4.971  12.478  1.0859 -1.3115 -0.4799
 1836TIP3    H226924   1.862   4.946  12.330 -2.4735  0.9398 -1.3942
 1837TIP3   OH226925   3.619   3.150   0.801  0.3260  0.3454  0.4285
 1837TIP3    H126926   3.669   3.080   0.759  0.9136  0.4816  0.8878
 1837TIP3    H226927   3.668   3.229   0.780  0.6538  0.4081  1.3995
 1838TIP3   OH226928   0.756   3.539  13.248  0.7381  0.0150  0.2100
 1838TIP3    H126929   0.667   3.552  13.281  0.5011  0.7316 -0.6792
 1838TIP3    H226930   0.785   3.458  13.289 -0.3066 -0.2066  0.5391
 1839TIP3   OH226931   3.170   0.703  11.073  0.5817 -0.0495  0.4317
 1839TIP3    H126932   3.141   0.794  11.070 -0.3030 -0.2955  1.0667
 1839TIP3    H226933   3.188   0.681  10.982 -0.5357  0.3494  0.0903
 1840TIP3   OH226934   5.589   1.125  15.348  0.1520  0.3224 -0.0001
 1840TIP3    H126935   5.641   1.200  15.321  1.0024 -0.4276 -0.4842
 1840TIP3    H226936   5.531   1.108  15.274 -0.3419  0.7429  0.2759
 1841TIP3   OH226937   2.059   3.412  15.211  0.2588 -0.1012  0.3202
 1841TIP3    H126938   2.102   3.449  15.134 -2.3432  2.0236 -0.2405
 1841TIP3    H226939   2.083   3.471  15.283 -0.1657 -0.0433  0.4141
 1842TIP3   OH226940   4.232   1.011  16.038  0.0515 -0.4852 -0.1351
 1842TIP3    H126941   4.245   1.045  16.127 -4.2306 -3.9512  2.2500
 1842TIP3    H226942   4.320   1.005  16.002  2.1257  0.7816  4.0040
 1843TIP3   OH226943   5.995   5.352  13.185 -0.1060  0.3726  0.2276
 1843TIP3    H126944   5.905   5.368  13.156 -0.3842 -1.7470 -0.2455
 1843TIP3    H226945   6.039   5.316  13.109  1.8760  3.3996 -0.2514
 1844TIP3   OH226946   5.644   1.286   5.838  0.1116 -0.2915  0.5719
 1844TIP3    H126947   5.616   1.299   5.929 -1.6729  0.0309  0.0227
 1844TIP3    H226948   5.614   1.197   5.816 -1.2675  0.3602 -0.2853
 1845TIP3   OH226949   5.866   3.973  11.648 -0.1971  0.4060  0.5825
 1845TIP3    H126950   5.822   3.964  11.732  0.9913 -0.6499  1.1199
 1845TIP3    H226951   5.881   3.883  11.618  1.3506  0.7188  0.3102
 1846TIP3   OH226952   0.847   1.169  13.321 -0.1290  0.2437 -0.2351
 1846TIP3    H126953   0.838   1.077  13.296  0.3685 -0.4060  1.7881
 1846TIP3    H226954   0.756   1.199  13.330 -0.3553  0.6308 -2.9560
 1847TIP3   OH226955   1.815   6.064   6.143 -0.2371  0.4579 -0.1332
 1847TIP3    H126956   1.775   5.977   6.142 -0.4686  0.4761  2.1858
 1847TIP3    H226957   1.746   6.122   6.110 -0.6798 -0.0287 -0.0767
 1848TIP3   OH226958   2.681   3.316   4.292  0.1389 -0.0964 -0.2343
 1848TIP3    H126959   2.741   3.314   4.366  1.1112 -0.7510 -1.0072
 1848TIP3    H226960   2.601   3.355   4.326  1.0316  0.8860  0.8062
 1849TIP3   OH226961   2.975   6.090  16.372  0.1896 -0.3493  0.2128
 1849TIP3    H126962   2.922   6.097  16.292 -0.6703 -0.7797  0.7243
 1849TIP3    H226963   3.009   6.178  16.385 -1.4081  0.2668  0.5214
 1850TIP3   OH226964   4.685   3.300  11.851  0.0810 -0.4494 -0.2068
 1850TIP3    H126965   4.626   3.298  11.926 -0.0133 -0.9259 -0.2880
 1850TIP3    H226966   4.720   3.389  11.850 -0.8280 -0.0770 -0.2977
 1851TIP3   OH226967   3.876   0.527   4.600  0.5473 -0.4572  0.2614
 1851TIP3    H126968   3.834   0.444   4.624  0.6380 -0.8217 -0.7831
 1851TIP3    H226969   3.918   0.508   4.516  0.3130  0.7365 -0.1332
 1852TIP3   OH226970   4.818   5.756   0.047 -0.2951 -0.0867  0.1296
 1852TIP3    H126971   4.777   5.728  -0.035  0.2859 -2.3108  0.5529
 1852TIP3    H226972   4.898   5.705   0.052  0.5201  1.2504  1.2998
 1853TIP3   OH226973   2.133   5.306  13.357 -0.0777 -0.2153 -0.2829
 1853TIP3    H126974   2.223   5.292  13.387 -0.4542 -0.7338  0.6671
 1853TIP3    H226975   2.084   5.234  13.396 -1.0364  0.4732 -0.1800
 1854TIP3   OH226976   1.653   3.136   0.825  0.2630  0.4240  0.1033
 1854TIP3    H126977   1.571   3.109   0.867  0.3309  0.6527  0.3771
 1854TIP3    H226978   1.713   3.153   0.897  1.2544 -1.8814 -0.0918
 1855TIP3   OH226979   4.585   6.134  12.942 -0.0386 -0.4016 -0.4871
 1855TIP3    H126980   4.632   6.089  13.012 -0.5244 -1.0782 -0.5795
 1855TIP3    H226981   4.515   6.181  12.987 -0.3823 -0.8777 -0.5114
 1856TIP3   OH226982   0.947   0.251  15.310  0.1105 -0.0146  0.0469
 1856TIP3    H126983   1.042   0.253  15.300 -0.0542 -1.4791 -2.8777
 1856TIP3    H226984   0.930   0.178  15.369  0.7620 -0.8520 -0.7842
 1857TIP3   OH226985   2.216   2.958   5.783  0.3451 -0.3055 -0.1894
 1857TIP3    H126986   2.225   2.869   5.819 -1.0698  0.3024  1.8419
 1857TIP3    H226987   2.291   2.967   5.724  1.6297 -2.1572  1.0321
 1858TIP3   OH226988   0.108   5.099   1.701  0.9320 -0.0702 -0.0595
 1858TIP3    H126989   0.024   5.082   1.658  0.4314  0.4768  0.6733
 1858TIP3    H226990   0.155   5.015   1.697 -0.2964 -0.8461  0.9076
 1859TIP3   OH226991   2.890   3.544  11.532  0.7988  0.0095  0.2676
 1859TIP3    H126992   2.978   3.556  11.567  0.9507 -0.6738  0.1237
 1859TIP3    H226993   2.834   3.537  11.609  0.8291  0.6544  0.3601
 1860TIP3   OH226994   3.450   5.720   1.713 -0.3283  0.4634  0.2600
 1860TIP3    H126995   3.401   5.692   1.791 -0.8934  1.1764  0.1721
 1860TIP3    H226996   3.414   5.667   1.642 -0.4438  0.4586  0.3226
 1861TIP3   OH226997   2.132   0.004  16.157 -0.2685  0.2415 -0.2902
 1861TIP3    H126998   2.097   0.022  16.244  1.9075 -0.4741  0.7922
 1861TIP3    H226999   2.113   0.083  16.106 -1.5408  0.6731  0.8043
 1862TIP3   OH227000   3.021   6.271  16.648 -0.0352 -0.1027  0.0907
 1862TIP3    H127001   3.083   6.289  16.578  0.7757  1.4516  1.1691
 1862TIP3    H227002   2.959   6.343  16.645 -0.7882 -0.7338  0.1354
 1863TIP3   OH227003   5.436   4.666  12.886  0.4253 -0.0744  0.1713
 1863TIP3    H127004   5.437   4.760  12.903 -0.2492  0.0984 -0.6630
 1863TIP3    H227005   5.528   4.639  12.896  1.1569  1.2148 -2.2686
 1864TIP3   OH227006   3.355   1.186   3.294  0.2147 -0.0231 -0.0055
 1864TIP3    H127007   3.349   1.106   3.347 -1.2713  0.4168  0.5482
 1864TIP3    H227008   3.443   1.220   3.312  1.0818 -1.7856 -0.6737
 1865TIP3   OH227009   1.150   4.434  15.464 -0.3214  0.2757  0.0412
 1865TIP3    H127010   1.218   4.394  15.517 -0.7245 -1.4517 -0.6812
 1865TIP3    H227011   1.190   4.514  15.430  2.3212 -1.8484 -2.3633
 1866TIP3   OH227012   5.551   5.827   0.786  0.2400 -0.2698 -0.1811
 1866TIP3    H127013   5.543   5.777   0.705 -1.8438  1.2069 -0.9919
 1866TIP3    H227014   5.482   5.793   0.842 -1.3861  1.7167 -0.8447
 1867TIP3   OH227015   5.442   2.028   2.156  0.2115  0.1653  0.0559
 1867TIP3    H127016   5.499   1.955   2.129  0.7683 -0.6873  3.1497
 1867TIP3    H227017   5.502   2.100   2.173 -0.1490  0.7501 -1.0579
 1868TIP3   OH227018   6.323   5.381   4.380 -0.5300 -0.1740 -0.0539
 1868TIP3    H127019   6.387   5.427   4.434  0.0896 -0.5378 -0.4570
 1868TIP3    H227020   6.245   5.437   4.381  0.5801  1.5358 -1.4950
 1869TIP3   OH227021   4.250   3.812  11.201 -0.2643 -0.2274  0.2634
 1869TIP3    H127022   4.171   3.865  11.192 -1.1259 -1.6452 -0.8743
 1869TIP3    H227023   4.228   3.728  11.161  2.7481  0.3136 -3.0953
 1870TIP3   OH227024   5.656   3.338   3.547 -0.0662 -0.5325 -0.1724
 1870TIP3    H127025   5.701   3.414   3.585 -1.2155 -0.5829  1.3962
 1870TIP3    H227026   5.688   3.263   3.597 -3.1741 -0.3662  2.3882
 1871TIP3   OH227027   2.663   4.975  12.494 -0.2414  0.4876  0.0946
 1871TIP3    H127028   2.617   5.059  12.493 -2.0695 -0.4422 -1.2831
 1871TIP3    H227029   2.610   4.919  12.551  1.3844  0.4246  1.6422
 1872TIP3   OH227030   1.901   0.719  13.185  0.7589 -0.4710 -0.4678
 1872TIP3    H127031   1.912   0.812  13.205 -0.1625 -0.4442 -0.0238
 1872TIP3    H227032   1.953   0.674  13.252  0.3346 -0.2926 -0.0089
 1873TIP3   OH227033   5.456   2.561  16.695 -0.0782  0.2426 -0.4021
 1873TIP3    H127034   5.549   2.584  16.688  0.6431 -2.6107 -1.4042
 1873TIP3    H227035   5.442   2.546  16.789  0.8127 -0.4288 -0.3615
 1874TIP3   OH227036   2.582   1.033  16.694 -0.3496  0.5142 -0.2404
 1874TIP3    H127037   2.501   0.984  16.678  0.9180 -1.6330 -0.4542
 1874TIP3    H227038   2.585   1.043  16.789 -0.8616  0.6093 -0.2299
 1875TIP3   OH227039   3.284   0.528   1.597  0.0589 -0.0556 -0.3996
 1875TIP3    H127040   3.342   0.588   1.551 -0.5777  2.0036  1.3601
 1875TIP3    H227041   3.199   0.539   1.554 -0.6239  2.1360  1.3374
 1876TIP3   OH227042   6.428   2.279  12.676 -0.1787 -0.2566 -0.5867
 1876TIP3    H127043   6.505   2.251  12.626  0.3276  1.1315 -0.6454
 1876TIP3    H227044   6.458   2.356  12.725 -0.6586 -1.5877  1.9194
 1877TIP3   OH227045   3.570   4.708  12.507  0.1600  0.7100 -0.5491
 1877TIP3    H127046   3.550   4.646  12.437 -0.7912  1.7761 -1.2599
 1877TIP3    H227047   3.654   4.679  12.542 -1.0590 -2.0154  0.3405
 1878TIP3   OH227048   2.852   3.609  11.838  0.0541  0.5323 -0.1381
 1878TIP3    H127049   2.830   3.562  11.918  1.5315  1.4004  0.8321
 1878TIP3    H227050   2.770   3.610  11.787 -0.6388 -0.9162  0.8843
 1879TIP3   OH227051   0.430   1.955   4.495  0.0260 -0.9429 -0.3433
 1879TIP3    H127052   0.396   1.983   4.580 -0.6426  1.0619 -1.2107
 1879TIP3    H227053   0.481   2.029   4.463  1.3714 -2.1523 -1.1532
 1880TIP3   OH227054   4.235   5.779   4.346 -0.6180  0.2038  0.2057
 1880TIP3    H127055   4.226   5.821   4.260 -2.0710 -1.3967 -0.4743
 1880TIP3    H227056   4.310   5.720   4.336 -0.1105  0.8024  0.3996
 1881TIP3   OH227057   1.753   2.289   3.680 -0.1744 -0.3188  0.3470
 1881TIP3    H127058   1.841   2.289   3.643 -0.1026  1.8696  0.3762
 1881TIP3    H227059   1.764   2.323   3.769 -1.2101  1.8769 -0.2851
 1882TIP3   OH227060   4.591   4.131  15.165 -0.4112  0.3498  0.2427
 1882TIP3    H127061   4.666   4.092  15.120  0.1694  2.7648 -1.0436
 1882TIP3    H227062   4.625   4.153  15.252  0.6119  1.8754 -0.4927
 1883TIP3   OH227063   6.142   0.689  15.337 -0.0397  0.0527 -0.5118
 1883TIP3    H127064   6.141   0.607  15.289  1.0290 -0.5934  0.5133
 1883TIP3    H227065   6.229   0.725  15.321 -0.6332  1.2070 -1.2793
 1884TIP3   OH227066   2.222   6.016   0.400  0.3846  0.8329 -0.0012
 1884TIP3    H127067   2.317   6.016   0.413  0.4551 -0.3396 -0.4064
 1884TIP3    H227068   2.211   6.012   0.305 -0.0505 -0.2925  0.0837
 1885TIP3   OH227069   2.126   5.755   2.934 -0.5410  0.2166 -0.1140
 1885TIP3    H127070   2.159   5.708   2.857  0.6775  0.0867  0.4612
 1885TIP3    H227071   2.037   5.779   2.911 -0.3876 -0.3160 -1.3482
 1886TIP3   OH227072   5.527   6.467   1.702  0.1150  0.2084 -0.4505
 1886TIP3    H127073   5.471   6.402   1.660  1.8752 -0.2386 -2.2818
 1886TIP3    H227074   5.592   6.490   1.635  0.2118  3.0875  0.4769
 1887TIP3   OH227075   5.421   1.545  17.064 -0.1869  0.8386  0.1491
 1887TIP3    H127076   5.439   1.484  17.135  0.1366 -0.0999 -0.7047
 1887TIP3    H227077   5.330   1.570  17.075 -0.4586 -0.1694  0.2441
 1888TIP3   OH227078   1.837   0.324  16.750  0.3420  0.5737  0.1311
 1888TIP3    H127079   1.840   0.391  16.681 -1.8584  1.8083  1.1186
 1888TIP3    H227080   1.818   0.242  16.703  1.0440  0.9796 -0.9049
 1889TIP3   OH227081   4.402   5.615   5.997  0.4324  0.4176 -0.2220
 1889TIP3    H127082   4.366   5.535   6.036 -0.0075  0.8239  0.2094
 1889TIP3    H227083   4.458   5.652   6.065  1.9935 -0.4030 -1.0147
 1890TIP3   OH227084   4.662   4.141   5.826 -0.3232  0.0746  0.5724
 1890TIP3    H127085   4.644   4.152   5.732  1.1313 -1.1520  0.1079
 1890TIP3    H227086   4.581   4.168   5.869 -1.0661  0.5528 -1.0409
 1891TIP3   OH227087   5.844   1.370   5.539 -0.3933  0.9121 -0.8615
 1891TIP3    H127088   5.907   1.439   5.518  0.4743 -0.1969 -2.1282
 1891TIP3    H227089   5.815   1.339   5.453 -1.6891  0.5270 -0.2964
 1892TIP3   OH227090   5.474   6.479  16.676  0.1088  0.3745  0.3757
 1892TIP3    H127091   5.549   6.532  16.650  0.9374 -1.0150 -0.1841
 1892TIP3    H227092   5.512   6.395  16.703 -1.1784 -0.0545  0.9137
 1893TIP3   OH227093   0.202   4.852   2.231 -0.3339  0.1839  0.2393
 1893TIP3    H127094   0.213   4.946   2.217  1.0719 -0.0261 -0.2179
 1893TIP3    H227095   0.123   4.845   2.286 -1.0329  1.5501 -0.5314
 1894TIP3   OH227096   5.448   6.714  13.922  0.2472 -0.5128 -0.1211
 1894TIP3    H127097   5.538   6.739  13.941  0.7153 -1.5766 -0.8170
 1894TIP3    H227098   5.454   6.658  13.845 -1.2699  1.3706 -1.7307
 1895TIP3   OH227099   6.281   1.819  12.300  0.1095  0.0375  0.3956
 1895TIP3    H127100   6.212   1.816  12.367 -0.4191 -1.4535 -0.1772
 1895TIP3    H227101   6.326   1.902  12.316 -1.8431  1.0881  0.7645
 1896TIP3   OH227102   0.887   1.241   5.007 -0.0656  0.3066 -0.2126
 1896TIP3    H127103   0.851   1.328   4.988 -1.6112  0.1602  1.7423
 1896TIP3    H227104   0.899   1.240   5.102 -0.6099 -1.8218 -0.1160
 1897TIP3   OH227105   0.831   5.488   3.976  0.2557  0.3857 -0.1665
 1897TIP3    H127106   0.814   5.563   3.918 -0.4667 -0.8503 -1.6085
 1897TIP3    H227107   0.907   5.515   4.027  1.0039  1.5055 -1.7694
 1898TIP3   OH227108   3.711   0.455  11.647 -0.4669 -0.0434  0.2449
 1898TIP3    H127109   3.794   0.502  11.660 -0.8011  0.7207 -0.2924
 1898TIP3    H227110   3.645   0.524  11.649 -1.0069 -0.5476 -0.1855
 1899TIP3   OH227111   1.463   3.719   5.913  0.2851 -0.0737  0.1567
 1899TIP3    H127112   1.558   3.735   5.918  0.5422 -1.1328 -0.8673
 1899TIP3    H227113   1.438   3.753   5.827  0.0908 -1.4021 -0.3361
 1900TIP3   OH227114   0.406   0.643   2.035  0.4826 -0.1519 -0.0909
 1900TIP3    H127115   0.353   0.715   2.000 -0.3058 -0.9175 -0.5179
 1900TIP3    H227116   0.399   0.653   2.130 -0.4231 -0.2182 -0.1390
 1901TIP3   OH227117   0.938   0.127   5.087  0.4469  0.8417 -0.4188
 1901TIP3    H127118   0.955   0.037   5.058 -1.1986  0.2783  0.2295
 1901TIP3    H227119   1.017   0.152   5.135  0.6674 -0.5219 -0.0286
 1902TIP3   OH227120   4.354   1.305  15.970 -0.2145 -0.2099  0.3741
 1902TIP3    H127121   4.397   1.386  15.944  0.1528 -0.8361 -1.0947
 1902TIP3    H227122   4.263   1.315  15.940  0.4040 -1.2681 -2.1366
 1903TIP3   OH227123   0.707   3.724  15.306  0.1212 -0.1907  0.4482
 1903TIP3    H127124   0.788   3.719  15.256 -0.5509 -1.4905 -0.5709
 1903TIP3    H227125   0.663   3.802  15.273  0.6694  0.1801  0.5769
 1904TIP3   OH227126   6.143   5.826   4.706  0.7472  0.8712  0.5680
 1904TIP3    H127127   6.067   5.874   4.737 -0.8625  0.1324 -1.9377
 1904TIP3    H227128   6.132   5.738   4.741 -1.1301  0.0037 -2.0005
 1905TIP3   OH227129   5.562   4.719  16.348 -0.0832  0.5697  0.1333
 1905TIP3    H127130   5.564   4.680  16.435  0.9660 -0.2365 -0.2357
 1905TIP3    H227131   5.516   4.802  16.360  0.2036  0.5494  1.4829
 1906TIP3   OH227132   4.025   5.638   6.487 -0.2583 -0.1597 -0.5703
 1906TIP3    H127133   3.929   5.638   6.488 -0.3016  1.2715 -1.7711
 1906TIP3    H227134   4.048   5.715   6.539  0.4213 -2.7843  3.4367
 1907TIP3   OH227135   0.899   5.908  12.311  0.2200 -0.2258 -0.2207
 1907TIP3    H127136   0.807   5.932  12.301 -0.3468 -1.5065  1.4094
 1907TIP3    H227137   0.947   5.986  12.285 -1.3427  0.6461 -0.6112
 1908TIP3   OH227138   2.275   4.085   1.111  0.3755 -0.5354 -0.2867
 1908TIP3    H127139   2.299   4.174   1.139 -0.1464 -0.5070  0.0910
 1908TIP3    H227140   2.333   4.028   1.162  0.3736 -0.4276 -0.1619
 1909TIP3   OH227141   2.622   1.920  14.312  0.2491 -0.5547  0.3419
 1909TIP3    H127142   2.538   1.961  14.329 -0.9257 -1.9251 -1.6595
 1909TIP3    H227143   2.637   1.863  14.388 -0.1566  0.3903  1.1454
 1910TIP3   OH227144   5.529   5.523   3.408 -0.0929 -0.5196 -0.3978
 1910TIP3    H127145   5.572   5.542   3.491  0.8955 -0.1871 -0.9625
 1910TIP3    H227146   5.501   5.432   3.415  0.0203 -0.5049  0.2762
 1911TIP3   OH227147   3.598   2.492  16.890 -0.1280 -0.4062 -0.4003
 1911TIP3    H127148   3.653   2.418  16.917 -0.0168 -0.2048 -0.0634
 1911TIP3    H227149   3.532   2.454  16.833  0.7480 -0.5633 -1.3558
 1912TIP3   OH227150   5.831   3.797  12.012 -0.6139  0.1606 -0.5875
 1912TIP3    H127151   5.901   3.792  11.947  0.6686 -2.6716  0.8454
 1912TIP3    H227152   5.769   3.859  11.974  0.7475 -0.2004 -3.7984
 1913TIP3   OH227153   4.926   3.593   1.508  0.8511  0.1166  0.0908
 1913TIP3    H127154   4.906   3.649   1.583 -0.5207 -0.1419 -0.0598
 1913TIP3    H227155   4.875   3.514   1.523 -1.2504  0.9156 -2.1880
 1914TIP3   OH227156   0.051   2.425   4.468  0.8692  0.2592  0.2925
 1914TIP3    H127157   0.119   2.441   4.533  2.5059 -1.1608 -0.9979
 1914TIP3    H227158   0.019   2.337   4.487 -0.7503  0.9373  0.9407
 1915TIP3   OH227159   0.588   4.144   4.831  0.2524 -0.3036 -0.0157
 1915TIP3    H127160   0.570   4.182   4.745  0.4005  0.5984  0.3406
 1915TIP3    H227161   0.581   4.218   4.892 -0.1793 -0.9902  0.7926
 1916TIP3   OH227162   5.656   4.359   4.973 -0.1748  0.3690 -0.2757
 1916TIP3    H127163   5.651   4.402   4.887 -0.3319  1.7603  0.4009
 1916TIP3    H227164   5.744   4.379   5.005  0.1240 -0.7188 -0.3801
 1917TIP3   OH227165   5.921   4.636   3.386 -0.1705  0.6212  0.8203
 1917TIP3    H127166   5.995   4.589   3.425 -0.4085 -1.3931 -0.9700
 1917TIP3    H227167   5.956   4.724   3.368  2.1120 -0.4728 -0.6334
 1918TIP3   OH227168   4.877   4.027  13.922 -0.3208  0.8060 -0.2395
 1918TIP3    H127169   4.902   4.118  13.935 -1.6537  1.6448 -2.8828
 1918TIP3    H227170   4.949   3.990  13.869 -0.8784  1.0205 -1.1701
 1919TIP3   OH227171   6.794   5.083   4.538 -0.0742 -0.0094 -0.0122
 1919TIP3    H127172   6.786   5.173   4.571 -3.1518  0.7015 -2.1883
 1919TIP3    H227173   6.786   5.028   4.616 -0.8154  1.6066  1.1195
 1920TIP3   OH227174   0.352   0.299   0.939 -0.4842  0.0637 -0.2062
 1920TIP3    H127175   0.389   0.254   0.863 -1.3520 -3.0702  1.0917
 1920TIP3    H227176   0.297   0.368   0.901 -2.0959 -2.3130 -2.5874
 1921TIP3   OH227177   0.274   3.271  15.422 -0.7014  0.2063  0.2896
 1921TIP3    H127178   0.227   3.239  15.500 -0.2833 -0.1648  0.3925
 1921TIP3    H227179   0.338   3.203  15.403 -2.3368 -0.8620 -1.7908
 1922TIP3   OH227180   2.723   3.223  12.397 -0.4959  0.1743 -0.4709
 1922TIP3    H127181   2.731   3.149  12.336 -0.0470 -0.2516  0.1015
 1922TIP3    H227182   2.803   3.220  12.449 -0.3538  1.2251 -0.6071
 1923TIP3   OH227183   2.766   2.901  13.266 -0.0287  0.4561  0.3307
 1923TIP3    H127184   2.854   2.927  13.294  1.2308 -1.1502 -1.8334
 1923TIP3    H227185   2.774   2.807  13.247 -2.5843 -0.0440  1.3134
 1924TIP3   OH227186   3.830   3.824  15.794  0.7045  0.1096  0.8766
 1924TIP3    H127187   3.877   3.824  15.711 -1.4797  3.5266 -0.5722
 1924TIP3    H227188   3.758   3.762  15.781  0.5309  0.4257  0.3064
 1925TIP3   OH227189   5.609   2.536   4.314 -0.2460  0.5414  0.1550
 1925TIP3    H127190   5.597   2.510   4.406  2.2111  0.6491  0.5720
 1925TIP3    H227191   5.617   2.453   4.267 -1.1134  0.4894  0.0926
 1926TIP3   OH227192   1.375   2.621  12.985 -0.1647  0.2281  0.3177
 1926TIP3    H127193   1.328   2.574  12.916 -1.4530 -1.4429  2.2386
 1926TIP3    H227194   1.331   2.706  12.990 -2.0136 -0.7049  0.9619
 1927TIP3   OH227195   3.524   6.643   6.314 -0.3782 -0.1716  0.1221
 1927TIP3    H127196   3.441   6.620   6.273 -0.1973  1.0907 -1.0239
 1927TIP3    H227197   3.504   6.652   6.407 -1.0560 -1.9086  0.1835
 1928TIP3   OH227198   2.485   5.689   1.885 -0.3710 -0.2548  0.1826
 1928TIP3    H127199   2.452   5.604   1.857 -0.8768  0.3147 -1.0648
 1928TIP3    H227200   2.463   5.748   1.812  0.2905  0.8633  0.8549
 1929TIP3   OH227201   2.030   3.943  10.260  0.1803 -0.0160  0.1564
 1929TIP3    H127202   1.969   3.907  10.324 -1.0153  0.8057 -0.4929
 1929TIP3    H227203   2.015   4.037  10.262  0.8393  0.1216 -0.6257
 1930TIP3   OH227204   6.139   3.656  12.605 -0.0396 -0.2859 -0.2428
 1930TIP3    H127205   6.139   3.750  12.623 -0.1803 -0.3284 -0.0053
 1930TIP3    H227206   6.185   3.618  12.680 -1.0293 -0.5076  0.2719
 1931TIP3   OH227207   2.901   3.818   1.414  0.2270  0.2988 -0.2009
 1931TIP3    H127208   2.888   3.731   1.454 -1.1461 -0.2024 -1.6273
 1931TIP3    H227209   2.953   3.866   1.479  1.4174 -1.7086  0.4420
 1932TIP3   OH227210   0.457   6.379   6.029  0.1426 -0.6019  0.1973
 1932TIP3    H127211   0.458   6.413   5.939 -0.0050 -1.1730 -0.0231
 1932TIP3    H227212   0.387   6.427   6.072  0.8158  0.3402  0.2727
 1933TIP3   OH227213   0.930   4.963   2.637 -0.2015  0.2322  0.3246
 1933TIP3    H127214   0.835   4.957   2.626 -0.4637  0.9558  1.8807
 1933TIP3    H227215   0.943   5.046   2.684  1.0354 -0.6640  1.6464
 1934TIP3   OH227216   0.075   5.950   4.257 -0.5878 -0.5105  0.1329
 1934TIP3    H127217   0.074   6.045   4.246  0.2776 -0.6396 -1.3539
 1934TIP3    H227218  -0.005   5.930   4.305 -1.3390  0.8621 -0.5029
 1935TIP3   OH227219   4.547   5.549   3.720  0.1416 -0.0724 -0.1935
 1935TIP3    H127220   4.598   5.603   3.780  0.2002  0.4695 -0.7191
 1935TIP3    H227221   4.578   5.460   3.736  0.8004  0.1726 -0.0470
 1936TIP3   OH227222   3.415   5.958  15.490 -0.2874 -0.5318  0.2642
 1936TIP3    H127223   3.435   5.880  15.542  1.0061  0.1953  0.9104
 1936TIP3    H227224   3.353   5.928  15.425 -0.9307 -1.7838  1.4001
 1937TIP3   OH227225   4.733   1.486   3.819 -0.0005 -0.1369  0.0010
 1937TIP3    H127226   4.768   1.539   3.890  2.2700 -0.4417 -0.8197
 1937TIP3    H227227   4.680   1.420   3.864 -0.1047  0.7642  1.2701
 1938TIP3   OH227228   0.298   0.252  11.376  0.4491  0.4486  0.2052
 1938TIP3    H127229   0.377   0.258  11.430  0.4775  1.1778  0.0930
 1938TIP3    H227230   0.328   0.276  11.288  0.2753 -0.1121 -0.0120
 1939TIP3   OH227231   0.656   2.013  16.419  0.4797 -0.2081  0.0967
 1939TIP3    H127232   0.606   2.094  16.431  1.0956  0.3695 -1.0787
 1939TIP3    H227233   0.592   1.943  16.431 -0.5150  0.5070 -0.8316
 1940TIP3   OH227234   4.027   2.641   2.182  0.0805 -0.0968 -0.2484
 1940TIP3    H127235   4.030   2.637   2.278  1.9070 -0.9760 -0.3004
 1940TIP3    H227236   4.114   2.675   2.157 -1.2168  2.5836 -1.5373
 1941TIP3   OH227237   5.189   0.646   3.076  0.0000 -0.4170 -0.4220
 1941TIP3    H127238   5.110   0.663   3.024  0.3212 -0.6517 -0.9987
 1941TIP3    H227239   5.245   0.722   3.058  0.2374 -0.6479 -0.6699
 1942TIP3   OH227240   6.575   4.157   3.581  0.6861 -0.3485 -0.1656
 1942TIP3    H127241   6.561   4.120   3.669  0.1141 -0.3924 -0.2762
 1942TIP3    H227242   6.529   4.097   3.522  0.4422  0.0952 -0.4266
 1943TIP3   OH227243   3.853   5.239   0.909 -0.4546  0.4075  0.4819
 1943TIP3    H127244   3.922   5.265   0.849 -0.0102 -1.2346  0.2373
 1943TIP3    H227245   3.772   5.255   0.860 -0.0844 -1.4211 -0.8321
 1944TIP3   OH227246   5.785   4.407  12.506 -0.1458  0.1254 -0.1556
 1944TIP3    H127247   5.791   4.498  12.534 -0.3739  0.8490 -2.3125
 1944TIP3    H227248   5.696   4.381  12.532 -0.5639  0.9524 -0.7108
 1945TIP3   OH227249   1.526   0.509   0.150  0.0911  0.3617 -0.2198
 1945TIP3    H127250   1.506   0.535   0.060  0.7614 -1.2389 -0.8651
 1945TIP3    H227251   1.566   0.587   0.189  0.4194  0.8678 -1.5256
 1946TIP3   OH227252   4.152   4.230   4.033  0.5670 -0.0399 -0.3813
 1946TIP3    H127253   4.233   4.236   3.982  1.4154  0.6738  0.9806
 1946TIP3    H227254   4.178   4.182   4.112 -1.3767 -3.8654 -1.8053
 1947TIP3   OH227255   3.595   1.661   4.489  0.1066 -0.2568  0.6675
 1947TIP3    H127256   3.675   1.612   4.466 -0.2521 -0.4260 -0.2802
 1947TIP3    H227257   3.617   1.705   4.571  0.7043 -1.3821  1.1291
 1948TIP3   OH227258   3.908   3.996   2.230 -0.3631  0.0254  0.4153
 1948TIP3    H127259   3.848   3.942   2.281 -2.0351  2.0702  0.7333
 1948TIP3    H227260   3.980   3.937   2.208 -0.5784 -1.5179  3.3308
 1949TIP3   OH227261   1.596   0.177  11.486  0.1369 -0.4677  0.7419
 1949TIP3    H127262   1.665   0.209  11.428  0.0617 -0.4523  0.6602
 1949TIP3    H227263   1.639   0.161  11.570  0.4755 -1.4869  0.3940
 1950TIP3   OH227264   3.148   4.583   5.575  0.1286  0.0003 -0.4555
 1950TIP3    H127265   3.243   4.578   5.581  0.0507 -3.0162  0.0904
 1950TIP3    H227266   3.119   4.607   5.663  0.3502  0.9119 -0.6202
 1951TIP3   OH227267   1.658   0.221  14.787  0.2696 -0.0970 -0.0323
 1951TIP3    H127268   1.653   0.295  14.847  0.4441 -1.7661  2.1619
 1951TIP3    H227269   1.567   0.193  14.776  0.0480  1.1760 -1.9432
 1952TIP3   OH227270   4.418   5.470  15.390 -0.2864  0.0228 -0.7517
 1952TIP3    H127271   4.424   5.541  15.454 -0.6445 -0.6381  0.0421
 1952TIP3    H227272   4.442   5.391  15.439 -1.3241 -0.6136 -1.2206
 1953TIP3   OH227273   3.811   1.047  14.013  0.1400 -0.5370  0.2644
 1953TIP3    H127274   3.869   1.112  13.974 -0.0991 -0.6124 -0.2174
 1953TIP3    H227275   3.815   1.066  14.107  1.3283 -0.8537  0.3057
 1954TIP3   OH227276   0.918   4.237   0.760  0.0688  0.2581 -0.1949
 1954TIP3    H127277   0.865   4.157   0.754 -0.5671  0.6637 -0.1422
 1954TIP3    H227278   1.005   4.207   0.784  0.2666 -0.5694 -1.8620
 1955TIP3   OH227279   5.535   0.350   2.212 -0.2570 -0.2537 -0.1949
 1955TIP3    H127280   5.496   0.286   2.152 -0.7186 -0.4608  0.3163
 1955TIP3    H227281   5.551   0.427   2.158 -0.7226 -0.4179 -0.5732
 1956TIP3   OH227282   6.346   1.878   5.724  0.0645 -0.3054  0.2402
 1956TIP3    H127283   6.424   1.854   5.775 -0.7101  0.4966  1.8478
 1956TIP3    H227284   6.364   1.966   5.692  0.8970 -1.0983 -1.6720
 1957TIP3   OH227285   0.003   6.353   3.929 -0.1384  0.3778  0.0173
 1957TIP3    H127286  -0.006   6.261   3.952  2.0856 -0.1139 -0.7868
 1957TIP3    H227287  -0.077   6.395   3.961 -1.3537 -1.8752  0.0765
 1958TIP3   OH227288   3.487   4.845   2.425 -0.4525  0.3928  0.6936
 1958TIP3    H127289   3.392   4.839   2.415 -0.3786  0.4915 -0.0841
 1958TIP3    H227290   3.514   4.755   2.444 -0.6342  0.2530  0.3073
 1959TIP3   OH227291   1.083   6.261   5.420  0.6417  0.2182 -0.1940
 1959TIP3    H127292   1.154   6.263   5.484 -0.2101  2.1116  0.7657
 1959TIP3    H227293   1.013   6.213   5.464  0.5745  0.2181 -0.3007
 1960TIP3   OH227294   0.329   1.276  15.603 -1.1381 -0.8149  0.3266
 1960TIP3    H127295   0.264   1.252  15.669 -3.0433 -2.9975 -2.1614
 1960TIP3    H227296   0.302   1.363  15.574 -1.1863 -0.4893  1.3096
 1961TIP3   OH227297   2.975   3.829   6.112 -0.3132  0.0105 -0.1935
 1961TIP3    H127298   2.935   3.913   6.088  0.0262  0.6094  1.2486
 1961TIP3    H227299   2.967   3.825   6.207 -1.0831 -2.0018 -0.2835
 1962TIP3   OH227300   6.591   4.909   1.869  0.1210  0.2512 -0.1120
 1962TIP3    H127301   6.529   4.848   1.829 -0.6315  0.0946  1.2078
 1962TIP3    H227302   6.565   4.995   1.836 -1.1313  0.2448  0.7435
 1963TIP3   OH227303   1.218   4.254   0.359 -0.1525 -0.8424  0.1524
 1963TIP3    H127304   1.147   4.208   0.404  0.3952 -0.3789  1.5608
 1963TIP3    H227305   1.208   4.230   0.267 -2.7740  0.0146  0.1082
 1964TIP3   OH227306   1.529   6.136   3.942  0.3485  0.0997 -0.2183
 1964TIP3    H127307   1.502   6.137   3.850  0.6546  1.2218 -0.3164
 1964TIP3    H227308   1.468   6.195   3.986 -0.2646 -1.0065  0.4652
 1965TIP3   OH227309   3.780   0.140  14.534 -0.3447 -0.1877 -0.7092
 1965TIP3    H127310   3.874   0.157  14.528  0.7005 -4.3301  0.1571
 1965TIP3    H227311   3.758   0.101  14.449 -0.7112 -1.1664 -0.1835
 1966TIP3   OH227312   1.251   6.267   2.257 -0.0621  0.4641  0.2037
 1966TIP3    H127313   1.196   6.197   2.293  2.2989 -2.7896 -1.9554
 1966TIP3    H227314   1.195   6.309   2.191 -1.2586  0.0266  0.9032
 1967TIP3   OH227315   0.409   3.405   1.172  0.6894 -0.0316 -0.4301
 1967TIP3    H127316   0.365   3.467   1.115 -0.7943 -1.6697 -1.1739
 1967TIP3    H227317   0.354   3.401   1.250  0.6394 -0.5551 -0.4836
 1968TIP3   OH227318   3.540   4.427   5.989  0.4579  0.0082 -0.0333
 1968TIP3    H127319   3.616   4.370   5.986  0.7411  0.2013  1.9285
 1968TIP3    H227320   3.575   4.513   6.011 -0.3515 -0.0800  1.8026
 1969TIP3   OH227321   6.754   2.184   6.190  0.3622 -0.2381 -0.3506
 1969TIP3    H127322   6.736   2.197   6.284 -1.5542  2.0676 -0.9399
 1969TIP3    H227323   6.698   2.111   6.165 -0.0344 -0.0887  0.0802
 1970TIP3   OH227324   5.481   0.374   3.969 -1.0913  0.3076 -0.1616
 1970TIP3    H127325   5.494   0.376   4.064  0.4680 -0.4939 -0.3149
 1970TIP3    H227326   5.565   0.404   3.934 -0.0355 -3.4804 -1.3093
 1971TIP3   OH227327   6.156   2.643  15.835  0.0868  0.6695  0.2173
 1971TIP3    H127328   6.223   2.580  15.808  1.4567  1.1837  2.2343
 1971TIP3    H227329   6.204   2.724  15.849 -0.5012  0.5379  3.7873
 1972TIP3   OH227330   5.742   5.990   2.609 -0.1433  0.4421  0.9712
 1972TIP3    H127331   5.764   5.950   2.693  0.1067  0.1146  0.7523
 1972TIP3    H227332   5.734   5.916   2.549 -1.7690  0.5467  1.0143
 1973TIP3   OH227333   5.042   0.112   2.899  0.2095 -0.4769 -0.8055
 1973TIP3    H127334   4.951   0.082   2.897  0.8675 -2.9043  0.6448
 1973TIP3    H227335   5.048   0.164   2.979  0.1125 -0.3325 -0.8909
 1974TIP3   OH227336   3.662   1.914   5.994  0.5944  0.2244  0.2503
 1974TIP3    H127337   3.664   1.879   6.083 -0.0340 -0.1622  0.1175
 1974TIP3    H227338   3.699   2.002   6.001  0.9031  0.0480  0.8257
 1975TIP3   OH227339   2.032   5.481  14.391 -0.5038 -0.2953 -0.1401
 1975TIP3    H127340   2.042   5.530  14.310  0.4808 -0.0978  0.0941
 1975TIP3    H227341   2.003   5.546  14.455  1.0962  0.0659  0.2445
 1976TIP3   OH227342   3.452   5.362  11.391 -0.5326  0.1971  0.2282
 1976TIP3    H127343   3.527   5.420  11.405  0.6828 -0.1760 -3.5968
 1976TIP3    H227344   3.377   5.422  11.385  0.1555  1.0348 -0.2290
 1977TIP3   OH227345   3.764   3.187   0.429 -0.0610  0.2122 -0.0937
 1977TIP3    H127346   3.771   3.109   0.374  1.1235  0.5563 -0.4636
 1977TIP3    H227347   3.761   3.152   0.518  0.1899 -0.2765 -0.2704
 1978TIP3   OH227348   5.498   3.993   1.485  0.1375  0.1776 -0.8780
 1978TIP3    H127349   5.548   3.920   1.521  1.0995  0.0956 -2.2620
 1978TIP3    H227350   5.444   4.024   1.557 -0.7776 -2.2931 -0.4076
 1979TIP3   OH227351   5.863   1.357   2.541  0.0063  0.8892 -0.8056
 1979TIP3    H127352   5.791   1.406   2.581 -0.3250 -0.0558 -0.2245
 1979TIP3    H227353   5.905   1.420   2.483 -0.5533  1.7938 -0.2450
 1980TIP3   OH227354   4.086   1.418  12.070  0.1496 -0.4805  0.7824
 1980TIP3    H127355   4.118   1.353  12.006 -0.0278 -0.5610  0.7738
 1980TIP3    H227356   4.141   1.495  12.055 -1.3890  0.3433 -1.0851
 1981TIP3   OH227357   2.625   2.685  11.449 -1.0369 -0.4361  0.6734
 1981TIP3    H127358   2.623   2.711  11.357 -1.6554  0.0268  0.8122
 1981TIP3    H227359   2.567   2.747  11.493 -3.0651 -2.3690  0.9289
 1982TIP3   OH227360   2.624   4.782   3.114  0.1088  0.6166 -0.7228
 1982TIP3    H127361   2.616   4.710   3.177  1.6337  2.1080  1.3435
 1982TIP3    H227362   2.718   4.800   3.112 -0.2743  2.8062 -0.8243
 1983TIP3   OH227363   4.966   2.997   1.000 -0.1789  0.3215  0.3391
 1983TIP3    H127364   4.995   2.961   1.083 -0.0309  0.5725  0.3974
 1983TIP3    H227365   4.969   2.923   0.939  0.7763  0.3770  0.2978
 1984TIP3   OH227366   5.606   2.788   6.495 -0.0725 -0.5623 -0.2716
 1984TIP3    H127367   5.558   2.707   6.476 -1.0576  0.4087 -2.2307
 1984TIP3    H227368   5.572   2.851   6.432  2.8883  0.5671 -0.8922
 1985TIP3   OH227369   4.086   2.651   3.342 -0.3738 -0.0241 -0.0714
 1985TIP3    H127370   4.159   2.594   3.317 -2.0555 -2.7361  0.7620
 1985TIP3    H227371   4.088   2.651   3.437  0.3576  2.5211 -0.0181
 1986TIP3   OH227372   0.304   1.068   4.196  0.1466  0.4778  0.0672
 1986TIP3    H127373   0.233   1.008   4.172 -1.5204  2.0989  0.7375
 1986TIP3    H227374   0.372   1.012   4.232 -1.0331 -1.0825 -0.0476
 1987TIP3   OH227375   5.463   1.159   1.231  0.4498  0.4729 -0.4206
 1987TIP3    H127376   5.475   1.089   1.168  0.2563 -0.2634  0.3391
 1987TIP3    H227377   5.464   1.115   1.316  1.3388  1.5020  0.1370
 1988TIP3   OH227378   3.366   5.561  15.547 -1.2515  0.0634  0.2160
 1988TIP3    H127379   3.444   5.608  15.577  0.3735 -2.1714 -0.3204
 1988TIP3    H227380   3.294   5.621  15.568  0.3643  1.3799  2.5796
 1989TIP3   OH227381   4.004   6.184   3.493 -0.1351  0.0595 -0.0349
 1989TIP3    H127382   3.935   6.144   3.547  1.0960 -0.5474  1.1454
 1989TIP3    H227383   3.960   6.205   3.411 -1.4524 -1.3875  0.2399
 1990TIP3   OH227384   2.552   4.692   6.335  0.1127  0.0959 -0.3071
 1990TIP3    H127385   2.523   4.714   6.424 -0.4919  2.7974 -1.0710
 1990TIP3    H227386   2.604   4.613   6.345  0.6244  0.7023  2.5420
 1991TIP3   OH227387   4.762   2.675  13.526  0.4391 -0.3358 -0.2466
 1991TIP3    H127388   4.699   2.606  13.549  1.5264 -1.4956 -0.5935
 1991TIP3    H227389   4.710   2.755  13.523 -0.8545 -1.1176  0.2927
 1992TIP3   OH227390   4.939   4.682   2.922  0.4820 -0.4270  0.6419
 1992TIP3    H127391   4.870   4.728   2.873  0.1712 -1.7514 -0.2104
 1992TIP3    H227392   4.907   4.681   3.012 -0.4786 -0.7425  0.3181
 1993TIP3   OH227393   4.733   5.303   0.810  0.4497 -0.4639  0.2376
 1993TIP3    H127394   4.689   5.285   0.893  0.4491  0.1655  0.3740
 1993TIP3    H227395   4.824   5.279   0.825  0.1974 -1.6355 -0.0005
 1994TIP3   OH227396   2.380   3.048   6.692 -0.3014  0.6273  0.2955
 1994TIP3    H127397   2.473   3.070   6.703 -0.4209  0.6038  1.4909
 1994TIP3    H227398   2.379   2.981   6.624  0.4612  1.3376 -0.4459
 1995TIP3   OH227399   2.520   1.628  14.086 -0.3293 -0.2033 -0.3513
 1995TIP3    H127400   2.446   1.682  14.115  0.8018 -0.0496  2.6845
 1995TIP3    H227401   2.492   1.592  14.002 -3.9796 -0.3622  0.7301
 1996TIP3   OH227402   2.912   1.540  16.327 -0.9901 -0.0098  0.1490
 1996TIP3    H127403   2.988   1.482  16.335  0.2648  1.6405  0.7766
 1996TIP3    H227404   2.887   1.560  16.417  0.6220  2.8733  0.0537
 1997TIP3   OH227405   0.922   5.665  11.345 -0.2706 -0.1805 -0.2522
 1997TIP3    H127406   0.981   5.692  11.275  0.8843 -0.3008  0.6535
 1997TIP3    H227407   0.914   5.570  11.333 -0.7996 -0.0831 -0.7466
 1998TIP3   OH227408   0.611   4.805   1.013  0.2340 -0.0772  0.0042
 1998TIP3    H127409   0.579   4.838   0.930 -0.4884 -0.7592  0.0045
 1998TIP3    H227410   0.658   4.725   0.990 -1.6504 -1.3707  0.4229
 1999TIP3   OH227411   5.341   1.751   3.333  0.0828  0.3122 -0.3238
 1999TIP3    H127412   5.250   1.771   3.356 -0.2484 -0.7973 -0.5974
 1999TIP3    H227413   5.393   1.815   3.381 -0.8573  1.0899 -0.3214
 2000TIP3   OH227414   1.909   1.157   5.769 -0.4890 -0.3346  0.4150
 2000TIP3    H127415   1.976   1.130   5.705 -1.9126 -0.5457 -1.0415
 2000TIP3    H227416   1.957   1.209   5.833  0.7027  1.4927 -1.8302
 2001TIP3   OH227417   1.421   0.243  12.788 -0.4011  0.4421  1.2742
 2001TIP3    H127418   1.442   0.284  12.704  1.5109  0.4540  1.7236
 2001TIP3    H227419   1.484   0.280  12.850  0.6343 -2.2790  1.9556
 2002TIP3   OH227420   6.111   5.928   2.871  0.2735 -0.7457  0.1591
 2002TIP3    H127421   6.145   6.017   2.877 -0.7078 -0.2503 -1.0158
 2002TIP3    H227422   6.176   5.881   2.819 -0.0794 -0.2122 -0.7852
 2003TIP3   OH227423   3.219   6.258  15.772 -0.2880  0.0788  0.1865
 2003TIP3    H127424   3.277   6.267  15.848 -2.1566  0.0963  1.6948
 2003TIP3    H227425   3.227   6.166  15.748  0.6723  0.1742  0.0906
 2004TIP3   OH227426   2.759   0.133   5.579 -0.5311  0.0944 -0.0018
 2004TIP3    H127427   2.763   0.096   5.667  0.6766  0.8561  0.2973
 2004TIP3    H227428   2.851   0.138   5.551 -0.8843 -0.0082 -1.2484
 2005TIP3   OH227429   3.564   1.242   2.678  0.1928 -0.0651 -0.2504
 2005TIP3    H127430   3.611   1.222   2.597 -1.0790 -1.9815 -0.5605
 2005TIP3    H227431   3.599   1.180   2.742 -0.4293 -0.0871  0.0727
 2006TIP3   OH227432   5.853   5.492   4.317 -0.6710 -0.4985  0.2379
 2006TIP3    H127433   5.784   5.558   4.326 -0.0654  0.9103 -3.6482
 2006TIP3    H227434   5.891   5.486   4.405  0.6487  6.0243  0.6477
 2007TIP3   OH227435   5.260   0.683   3.944 -0.8761  0.2887 -0.1215
 2007TIP3    H127436   5.214   0.656   3.864  0.6914  0.3095 -1.0833
 2007TIP3    H227437   5.353   0.672   3.922 -0.3555  1.9318  1.1238
 2008TIP3   OH227438   4.082   6.142  11.336  0.1427  0.4452  0.0201
 2008TIP3    H127439   4.069   6.103  11.422 -0.4186  1.5781  0.4686
 2008TIP3    H227440   4.147   6.212  11.350  1.3194 -0.4328 -0.8112
 2009TIP3   OH227441   3.136   5.396  16.743  0.1109  0.2165  0.3115
 2009TIP3    H127442   3.220   5.368  16.709 -0.0853 -0.2110  0.1671
 2009TIP3    H227443   3.153   5.418  16.835  0.7476  1.8772 -0.1747
 2010TIP3   OH227444   4.652   1.625   6.029 -0.1023 -0.1683  0.1638
 2010TIP3    H127445   4.616   1.593   6.111  0.1627 -0.7560  0.0535
 2010TIP3    H227446   4.732   1.671   6.053 -1.3205  1.9087  0.5146
 2011TIP3   OH227447   3.541   5.049  13.156  0.6931 -0.2407 -0.2913
 2011TIP3    H127448   3.620   5.082  13.113  0.3671  0.0601 -0.6669
 2011TIP3    H227449   3.523   4.966  13.113  0.7388 -0.2529 -0.2861
 2012TIP3   OH227450   6.385   2.405   3.474 -0.0130 -0.6174  0.4490
 2012TIP3    H127451   6.297   2.412   3.438 -0.5617 -1.0302  1.6303
 2012TIP3    H227452   6.402   2.311   3.474  0.3715 -0.5469  0.3619
 2013TIP3   OH227453   3.095   1.795   6.083  0.1470 -0.0974 -0.1618
 2013TIP3    H127454   3.009   1.831   6.066  0.2250  1.2389  1.8855
 2013TIP3    H227455   3.156   1.867   6.069  0.9195 -0.9032 -1.1584
 2014TIP3   OH227456   3.975   2.400   4.324  0.1286 -0.0171  0.1838
 2014TIP3    H127457   3.903   2.440   4.374  0.1172 -1.6613  1.5731
 2014TIP3    H227458   4.052   2.413   4.379  1.0745  2.1597 -1.5109
 2015TIP3   OH227459   1.862   6.445   2.925 -0.1838  0.8794  0.7413
 2015TIP3    H127460   1.941   6.462   2.977 -0.0021 -0.5286  0.9907
 2015TIP3    H227461   1.825   6.365   2.964 -0.5224  0.2757 -0.7370
 2016TIP3   OH227462   2.303   5.643  15.364 -0.0488 -0.4976 -0.1399
 2016TIP3    H127463   2.382   5.635  15.417 -0.1013  0.1633  0.0406
 2016TIP3    H227464   2.333   5.684  15.282  0.1380 -2.0335 -0.8754
 2017TIP3   OH227465   3.608   4.825  17.134 -0.4365  0.2184 -0.1746
 2017TIP3    H127466   3.544   4.760  17.106 -1.2420  0.0952  1.8397
 2017TIP3    H227467   3.570   4.909  17.107  0.1430 -0.0245 -1.8895
 2018TIP3   OH227468   6.782   1.539   2.690 -0.1317  0.4590 -0.3793
 2018TIP3    H127469   6.736   1.553   2.773 -0.7382 -0.6042 -0.5304
 2018TIP3    H227470   6.775   1.624   2.645  0.2924  1.0804  0.6794
 2019TIP3   OH227471   1.505   2.479  12.402  0.9182 -0.1337  0.7039
 2019TIP3    H127472   1.523   2.541  12.473 -1.1827  0.3272  0.8942
 2019TIP3    H227473   1.487   2.396  12.446 -0.2749  0.1252  0.7335
 2020TIP3   OH227474   4.070   2.208  16.491  0.3628 -0.4362  0.4730
 2020TIP3    H127475   3.984   2.212  16.533 -0.6318  0.8910 -1.5322
 2020TIP3    H227476   4.065   2.130  16.436  0.4402 -0.3439  0.3360
 2021TIP3   OH227477   0.384   0.558   3.661 -0.1394 -0.3964 -0.2654
 2021TIP3    H127478   0.416   0.610   3.735 -0.6738 -0.5585  0.0850
 2021TIP3    H227479   0.447   0.575   3.591  0.9637 -1.0740  0.5364
 2022TIP3   OH227480   4.987   0.096   1.914 -0.4162  0.7452 -0.4036
 2022TIP3    H127481   5.003   0.111   2.007  1.2563 -1.4879 -0.2374
 2022TIP3    H227482   5.045   0.158   1.870 -1.5529  2.1333 -0.0193
 2023TIP3   OH227483   1.882   1.904  16.061 -0.2445 -0.2324  0.0003
 2023TIP3    H127484   1.908   1.930  15.973  2.2569  1.7973  1.2086
 2023TIP3    H227485   1.962   1.870  16.101 -0.8713  0.5592  2.0493
 2024TIP3   OH227486   4.994   3.678  12.344  0.0240 -0.0695  0.1259
 2024TIP3    H127487   4.944   3.598  12.351 -0.0604 -0.0265  0.0208
 2024TIP3    H227488   4.955   3.725  12.270  1.4147 -0.9096 -1.1907
 2025TIP3   OH227489   6.509   6.323  15.978  0.7937  0.0131 -0.0692
 2025TIP3    H127490   6.533   6.317  16.071  0.3964 -1.5953 -0.0382
 2025TIP3    H227491   6.463   6.406  15.971  0.5345  0.0064  1.2543
 2026TIP3   OH227492   0.484   2.926   0.903 -0.1552 -0.0227 -0.1612
 2026TIP3    H127493   0.497   3.017   0.878 -2.4619  0.5823  0.5847
 2026TIP3    H227494   0.521   2.920   0.991  0.1267  0.1677 -0.2678
 2027TIP3   OH227495   3.741   4.382   4.218 -0.3555 -0.3264  0.3715
 2027TIP3    H127496   3.760   4.325   4.144 -1.1507 -0.7367  0.4709
 2027TIP3    H227497   3.810   4.448   4.216 -1.4134  0.8117 -1.8781
 2028TIP3   OH227498   1.669   5.755  13.012 -0.2518  0.0814  0.8096
 2028TIP3    H127499   1.701   5.760  12.922  0.2590  0.2372  0.9942
 2028TIP3    H227500   1.735   5.803  13.063  0.2625 -1.2893  1.4820
 2029TIP3   OH227501   2.378   3.412  14.296 -0.6681  0.5774  0.5141
 2029TIP3    H127502   2.318   3.451  14.359 -1.9210  0.2400 -0.4105
 2029TIP3    H227503   2.335   3.331  14.269  0.2254  0.3056 -0.1536
 2030TIP3   OH227504   6.080   5.481  15.958 -0.1300 -0.3228 -0.6579
 2030TIP3    H127505   6.108   5.393  15.933  0.3033  0.1406 -1.8938
 2030TIP3    H227506   6.052   5.521  15.876  2.0707  1.5340 -0.6051
 2031TIP3   OH227507   6.440   0.279   1.623  0.3439 -0.2074  0.1336
 2031TIP3    H127508   6.527   0.248   1.648  1.3408  2.6273  0.4553
 2031TIP3    H227509   6.428   0.361   1.671 -2.3424 -0.2644 -0.2607
 2032TIP3   OH227510   1.563   3.355   0.386  0.1345 -0.0157 -0.3810
 2032TIP3    H127511   1.494   3.308   0.435 -1.4694 -1.0063 -3.3475
 2032TIP3    H227512   1.643   3.338   0.436 -1.4564 -0.2633  2.3007
 2033TIP3   OH227513   1.336   1.216   1.813  0.0005 -0.1961  0.2284
 2033TIP3    H127514   1.296   1.249   1.894  0.0556 -1.4853  0.8018
 2033TIP3    H227515   1.291   1.133   1.796  0.5850 -0.3550 -0.6055
 2034TIP3   OH227516   5.625   0.030  17.034  0.3859  0.5461  0.0294
 2034TIP3    H127517   5.536   0.031  17.070  0.2304 -3.1149  0.1918
 2034TIP3    H227518   5.661  -0.055  17.062  3.2686  1.0851 -1.6089
 2035TIP3   OH227519   3.819   5.121  11.692 -0.1485  0.7674 -0.2476
 2035TIP3    H127520   3.887   5.061  11.723 -0.6532 -0.1912 -0.9417
 2035TIP3    H227521   3.822   5.113  11.597 -1.2596  0.6583 -0.2885
 2036TIP3   OH227522   5.087   3.661  13.256 -0.2891 -0.2781  0.0294
 2036TIP3    H127523   5.110   3.617  13.338  0.0290  0.0369  0.1126
 2036TIP3    H227524   5.168   3.662  13.206 -0.4523 -0.3534 -0.2330
 2037TIP3   OH227525   5.943   3.062   5.948  0.3025 -0.1494 -0.0420
 2037TIP3    H127526   6.013   3.004   5.978  1.1959  0.9779  0.1047
 2037TIP3    H227527   5.863   3.012   5.963  0.9286 -0.7445  1.5189
 2038TIP3   OH227528   2.620   1.356  14.505 -0.0452 -0.2379 -0.1495
 2038TIP3    H127529   2.698   1.411  14.509  1.0449 -1.5307 -1.8484
 2038TIP3    H227530   2.576   1.381  14.423  0.5649 -1.9139 -1.0482
 2039TIP3   OH227531   6.758   3.360  11.709 -0.0172 -0.9061  0.2525
 2039TIP3    H127532   6.770   3.386  11.618 -0.3091 -3.5129 -0.6162
 2039TIP3    H227533   6.847   3.351  11.744  0.0937  0.0417  0.2424
 2040TIP3   OH227534   0.793   2.015   2.256  0.2078 -0.3912 -0.1169
 2040TIP3    H127535   0.765   1.954   2.188  0.3721 -0.0129 -0.5256
 2040TIP3    H227536   0.726   2.084   2.256  0.5260 -0.0783 -0.3104
 2041TIP3   OH227537   0.057   2.368   2.583  0.1173 -0.3163  0.3787
 2041TIP3    H127538   0.104   2.378   2.500  0.9061 -3.4025  0.3350
 2041TIP3    H227539   0.126   2.375   2.650  0.1554 -1.7137  0.5033
 2042TIP3   OH227540   3.185   4.390   5.136 -0.0449 -0.2865  0.8039
 2042TIP3    H127541   3.103   4.343   5.133 -1.1507  1.5377 -1.4488
 2042TIP3    H227542   3.166   4.469   5.187 -0.4435  1.1910 -1.4614
 2043TIP3   OH227543   5.318   4.476   3.928 -0.4863 -0.3722  0.5880
 2043TIP3    H127544   5.341   4.516   3.845  2.2703  0.2247  1.5259
 2043TIP3    H227545   5.231   4.512   3.949 -0.0783  1.5539 -0.7552
 2044TIP3   OH227546   6.369   4.607  12.305  0.1926 -0.0910  0.1790
 2044TIP3    H127547   6.429   4.618  12.231 -0.2891  1.9436  0.0478
 2044TIP3    H227548   6.324   4.691  12.312  1.3760  0.3859  3.8368
 2045TIP3   OH227549   5.859   6.221  14.755  0.2166 -0.0724 -0.3466
 2045TIP3    H127550   5.864   6.194  14.847 -0.9156  0.2621 -0.1763
 2045TIP3    H227551   5.944   6.262  14.738  0.5057 -0.2930  0.4974
 2046TIP3   OH227552   6.000   5.029  13.708 -0.9379 -0.0911  0.3904
 2046TIP3    H127553   6.032   5.038  13.618 -0.4956 -1.4942  0.3748
 2046TIP3    H227554   6.049   5.094  13.758 -0.8383  0.3758 -0.3064
 2047TIP3   OH227555   3.816   0.289  14.046 -0.3198 -0.0853  0.2636
 2047TIP3    H127556   3.869   0.368  14.049  1.6918 -1.3339 -0.3008
 2047TIP3    H227557   3.726   0.320  14.035  0.3268  2.1073  0.7710
 2048TIP3   OH227558   2.235   1.372   1.427 -0.0962 -0.2296  0.2865
 2048TIP3    H127559   2.232   1.410   1.339  3.2568  1.8504  0.8675
 2048TIP3    H227560   2.281   1.288   1.415  0.4537  0.1009  0.0314
 2049TIP3   OH227561   5.016   1.492  11.791  0.3789  0.0791 -0.2071
 2049TIP3    H127562   5.107   1.518  11.804  0.8014 -0.5656 -1.7499
 2049TIP3    H227563   4.969   1.574  11.777  1.0514  0.2937 -1.2616
 2050TIP3   OH227564   4.031   4.360  12.233 -0.0873  0.2113  0.1946
 2050TIP3    H127565   3.936   4.370  12.235 -0.1191  0.0443 -0.3581
 2050TIP3    H227566   4.048   4.283  12.287 -0.2673  0.1913  0.2233
 2051TIP3   OH227567   5.341   1.462  15.560 -0.2373 -0.1722 -0.3960
 2051TIP3    H127568   5.262   1.443  15.510  0.6751 -2.1168 -1.2030
 2051TIP3    H227569   5.345   1.557  15.563 -3.2053  0.0210  0.6977
 2052TIP3   OH227570   2.789   0.611   0.135 -0.1605  0.6343  0.2399
 2052TIP3    H127571   2.771   0.685   0.192 -0.9463  0.4825  0.2021
 2052TIP3    H227572   2.830   0.546   0.192  0.1222  0.9232  0.3695
 2053TIP3   OH227573   6.485   5.833   1.013  0.1188  0.1174  0.2875
 2053TIP3    H127574   6.497   5.911   0.959 -1.3370 -0.0670 -0.3406
 2053TIP3    H227575   6.563   5.781   0.997  0.2421  0.5945 -0.7534
 2054TIP3   OH227576   2.088   5.620  14.151 -0.3386  0.7146 -0.5850
 2054TIP3    H127577   2.102   5.692  14.212 -1.2398  0.5339 -0.1478
 2054TIP3    H227578   2.012   5.647  14.099 -1.8304 -0.6381  0.7609
 2055TIP3   OH227579   5.579   4.557   1.306 -0.0490 -0.1177  0.2352
 2055TIP3    H127580   5.600   4.464   1.299  0.3102  0.0130 -0.6205
 2055TIP3    H227581   5.663   4.601   1.306 -0.2362  0.2696 -0.6698
 2056TIP3   OH227582   0.269   1.982  12.745  0.4516 -0.2638 -0.3652
 2056TIP3    H127583   0.281   1.890  12.767 -1.3697 -0.6233 -0.7062
 2056TIP3    H227584   0.273   1.985  12.649  1.4723  0.1800 -0.3190
 2057TIP3   OH227585   1.775   1.384   2.917 -0.0307  0.0133 -0.8619
 2057TIP3    H127586   1.767   1.289   2.920 -0.2088  0.0391 -0.3342
 2057TIP3    H227587   1.741   1.409   2.831 -1.6399 -0.2533 -0.3416
 2058TIP3   OH227588   0.339   5.336  15.444  0.1094 -0.1243 -0.0164
 2058TIP3    H127589   0.307   5.248  15.465 -1.0928 -0.4892 -2.8494
 2058TIP3    H227590   0.303   5.391  15.513 -0.2008 -1.6687  1.1174
 2059TIP3   OH227591   6.539   0.834  14.076 -0.4600  0.2492 -0.9926
 2059TIP3    H127592   6.601   0.826  14.003 -1.6678  0.3722 -2.0684
 2059TIP3    H227593   6.496   0.919  14.062 -0.6150  0.3309 -0.0627
 2060TIP3   OH227594   1.339   3.559   0.621 -0.0999 -0.2092 -0.4836
 2060TIP3    H127595   1.268   3.605   0.667  0.9757  0.1675  0.8523
 2060TIP3    H227596   1.379   3.626   0.565  0.3324  0.0404  0.1175
 2061TIP3   OH227597   5.361   2.174  12.292  0.2483 -0.1089  0.2795
 2061TIP3    H127598   5.319   2.139  12.371  2.0241  0.1234  1.3755
 2061TIP3    H227599   5.331   2.265  12.288  0.2126 -0.0939  0.7333
 2062TIP3   OH227600   5.430   5.154  12.013  0.5843 -0.3375 -0.7997
 2062TIP3    H127601   5.407   5.184  11.925 -0.0749  0.1943 -0.4546
 2062TIP3    H227602   5.392   5.067  12.020  0.0014 -0.0868 -0.7868
 2063TIP3   OH227603   2.834   5.091   4.109 -0.0870  0.0064 -0.5195
 2063TIP3    H127604   2.840   5.054   4.021  0.4732 -0.8058 -0.1479
 2063TIP3    H227605   2.922   5.083   4.144 -0.0052  1.5008 -0.3384
 2064TIP3   OH227606   2.797   0.845   5.002  0.3886  0.3073 -0.4574
 2064TIP3    H127607   2.861   0.907   5.037  0.3647  0.8917 -1.3937
 2064TIP3    H227608   2.826   0.829   4.912  0.2655 -0.8821 -0.3027
 2065TIP3   OH227609   3.417   5.947   2.367 -0.2471 -1.1972 -0.0534
 2065TIP3    H127610   3.424   5.948   2.271  0.2521 -0.4807 -0.0161
 2065TIP3    H227611   3.503   5.973   2.398 -0.7967 -0.0443  0.5606
 2066TIP3   OH227612   5.220   2.813   0.766  0.2464  0.5918  0.1025
 2066TIP3    H127613   5.298   2.764   0.793 -0.7654 -1.5259 -0.6315
 2066TIP3    H227614   5.244   2.905   0.780  3.7162  0.2310 -2.2240
 2067TIP3   OH227615   1.500   4.819   4.519 -0.1327  0.4923  0.1485
 2067TIP3    H127616   1.418   4.771   4.504 -0.5029  0.8399  1.0050
 2067TIP3    H227617   1.565   4.750   4.536 -0.2710  0.2239 -0.3659
 2068TIP3   OH227618   3.035   2.643  16.489  0.4149 -0.4797 -0.0764
 2068TIP3    H127619   3.089   2.580  16.539  1.6181  1.2397  0.8887
 2068TIP3    H227620   3.072   2.640  16.401  0.7354 -0.8166  0.0618
 2069TIP3   OH227621   6.225   3.055  14.747  0.0051 -0.3518  0.3992
 2069TIP3    H127622   6.191   2.965  14.750  0.2782 -0.4525  0.4417
 2069TIP3    H227623   6.267   3.068  14.832 -0.7539  0.1014  0.7159
 2070TIP3   OH227624   6.464   1.275   1.761 -0.4275 -0.1101 -0.0373
 2070TIP3    H127625   6.526   1.298   1.691 -0.9131  1.4371 -0.0056
 2070TIP3    H227626   6.387   1.242   1.715  0.0010 -1.0090 -0.1270
 2071TIP3   OH227627   2.816   5.033   0.327  0.2199  0.0813  0.3754
 2071TIP3    H127628   2.842   5.026   0.419  1.0375 -2.2457  0.0280
 2071TIP3    H227629   2.884   5.086   0.287  0.3961  0.2773  0.9176
 2072TIP3   OH227630   1.935   4.701   4.364 -1.0542 -0.1317 -0.4892
 2072TIP3    H127631   1.958   4.794   4.357 -1.4298  0.0713  0.7476
 2072TIP3    H227632   1.969   4.674   4.449 -1.4908 -0.9745 -0.5688
 2073TIP3   OH227633   4.222   4.116  16.841  0.1084 -0.1277  0.5669
 2073TIP3    H127634   4.164   4.092  16.768 -0.1527 -2.7050  1.5425
 2073TIP3    H227635   4.191   4.064  16.915  1.3661  1.2303  2.1417
 2074TIP3   OH227636   3.597   1.926   1.111 -0.6849 -0.2159 -0.2529
 2074TIP3    H127637   3.558   1.889   1.032 -1.1506  1.2282 -0.7437
 2074TIP3    H227638   3.583   2.020   1.102  1.0360  0.1607  0.6045
 2075TIP3   OH227639   6.520   1.259   3.500  0.1104  0.1209 -0.1030
 2075TIP3    H127640   6.425   1.266   3.510  0.1714  2.4754 -0.6925
 2075TIP3    H227641   6.556   1.289   3.583  0.4115 -2.8324  0.9656
 2076TIP3   OH227642   4.441   1.514  13.937 -1.0383 -0.3960  0.2357
 2076TIP3    H127643   4.451   1.606  13.911  1.4028 -1.0086 -1.4212
 2076TIP3    H227644   4.439   1.515  14.032  2.2382  1.2451  0.4186
 2077TIP3   OH227645   3.155   2.548   5.669  0.0303 -0.2316 -0.0624
 2077TIP3    H127646   3.133   2.526   5.759 -1.7666 -0.6481 -0.5656
 2077TIP3    H227647   3.219   2.482   5.644  1.0587  0.2876  1.0947
 2078TIP3   OH227648   5.314   4.243   5.171 -0.1535 -0.2987 -0.4244
 2078TIP3    H127649   5.219   4.248   5.174 -0.2834 -1.4099 -1.9857
 2078TIP3    H227650   5.335   4.154   5.199  0.5178  0.1981  0.7714
 2079TIP3   OH227651   1.129   1.140   3.006 -0.5091  0.2014  0.1951
 2079TIP3    H127652   1.188   1.065   3.015 -0.8613 -0.6374 -3.2448
 2079TIP3    H227653   1.054   1.105   2.958 -1.5315  2.3778  0.1247
 2080TIP3   OH227654   3.805   5.140   5.020  0.4665  0.5761 -0.3959
 2080TIP3    H127655   3.772   5.103   4.939 -4.0270 -1.3571  1.9521
 2080TIP3    H227656   3.762   5.225   5.027  0.8497  0.7468 -0.0434
 2081TIP3   OH227657   1.347   3.984  14.866  0.1595  0.0472 -0.2903
 2081TIP3    H127658   1.440   3.965  14.860 -0.0063 -1.0354  0.2917
 2081TIP3    H227659   1.308   3.936  14.794 -0.2424 -1.7718  1.0713
 2082TIP3   OH227660   4.985   4.516  11.660  0.3499  0.7475 -0.2160
 2082TIP3    H127661   5.003   4.535  11.752  0.3335 -0.8181  0.1462
 2082TIP3    H227662   4.897   4.551  11.645  0.4382  1.2002  0.3114
 2083TIP3   OH227663   6.106   2.048  16.760 -0.5172  0.2804 -0.2560
 2083TIP3    H127664   6.122   1.971  16.705 -3.0667 -0.0792 -0.6433
 2083TIP3    H227665   6.064   2.012  16.839 -0.2867  1.1487  0.2732
 2084TIP3   OH227666   6.301   2.650   1.578 -0.1839  0.4797  0.5687
 2084TIP3    H127667   6.219   2.689   1.609 -1.3364 -0.0529 -1.6212
 2084TIP3    H227668   6.317   2.692   1.494  1.0886 -0.3868  0.3572
 2085TIP3   OH227669   2.467   4.854   5.245 -0.2694  0.7290 -0.2132
 2085TIP3    H127670   2.442   4.927   5.302  0.0786  0.3878  0.3856
 2085TIP3    H227671   2.558   4.871   5.221  0.0303  0.1518  0.4789
 2086TIP3   OH227672   5.456   6.668   5.427 -0.4522 -0.4496  0.3961
 2086TIP3    H127673   5.452   6.618   5.509 -3.8431  0.6759  1.0875
 2086TIP3    H227674   5.450   6.601   5.358  1.7104 -1.3521  1.0204
 2087TIP3   OH227675   4.850   0.043  16.595  0.3577 -0.4840  0.1819
 2087TIP3    H127676   4.782   0.103  16.627  1.7777  1.0566  0.3976
 2087TIP3    H227677   4.836  -0.037  16.646 -0.6315  0.1741  0.9907
 2088TIP3   OH227678   6.662   6.653   5.076  0.2578  0.0703  0.2734
 2088TIP3    H127679   6.605   6.709   5.023 -3.1716 -0.9130  2.5928
 2088TIP3    H227680   6.685   6.707   5.152  0.4489 -0.3257  0.5003
 2089TIP3   OH227681   5.191   3.786  12.500  0.2353  0.7205  0.1038
 2089TIP3    H127682   5.122   3.757  12.441  0.5120  1.3814 -0.5523
 2089TIP3    H227683   5.271   3.745  12.466  0.2976  0.5763  0.4105
 2090TIP3   OH227684   2.666   1.402   3.460  0.4142 -0.4267  0.1545
 2090TIP3    H127685   2.723   1.462   3.506  1.2149  0.3548 -1.7512
 2090TIP3    H227686   2.724   1.330   3.432  0.8250  0.8566 -2.6643
 2091TIP3   OH227687   0.164   5.457  16.196  0.5253 -0.3465  0.2314
 2091TIP3    H127688   0.124   5.513  16.263 -1.1436 -0.9253 -0.2189
 2091TIP3    H227689   0.179   5.374  16.240 -1.2134 -0.9514 -0.2286
 2092TIP3   OH227690   2.826   0.902   3.205  0.0363  0.2294  0.0716
 2092TIP3    H127691   2.842   0.845   3.130  0.8612  2.1063 -1.2450
 2092TIP3    H227692   2.793   0.984   3.167  1.2832  1.5451  1.6646
 2093TIP3   OH227693   0.114   5.451   2.295  0.3314 -0.8889  0.1665
 2093TIP3    H127694   0.036   5.453   2.240  0.4946 -1.2217 -0.0844
 2093TIP3    H227695   0.186   5.473   2.235  0.2640  1.0500  0.7248
 2094TIP3   OH227696   0.339   5.333   4.108  0.2405 -0.2412 -0.4878
 2094TIP3    H127697   0.347   5.239   4.124  1.4101  0.0656  0.8946
 2094TIP3    H227698   0.263   5.360   4.160  1.2810 -0.0585  1.0106
 2095TIP3   OH227699   1.374   0.768  11.940 -0.1898  0.7051  0.1040
 2095TIP3    H127700   1.383   0.675  11.916 -2.2160  0.4285  0.2369
 2095TIP3    H227701   1.339   0.810  11.861  1.8520  1.6541 -0.3677
 2096TIP3   OH227702   0.502   4.238  14.725  0.5387  0.6731 -0.1732
 2096TIP3    H127703   0.472   4.158  14.682  1.6791  0.0702  0.1176
 2096TIP3    H227704   0.507   4.302  14.655 -1.5846  0.8732 -0.2062
 2097TIP3   OH227705   5.742   5.077   2.759  0.0474 -0.6657 -0.2015
 2097TIP3    H127706   5.677   5.042   2.820 -0.3194  1.3580  0.6398
 2097TIP3    H227707   5.729   5.172   2.761  2.0453 -0.3096 -1.1421
 2098TIP3   OH227708   2.216   5.413  16.262  0.1823 -1.1810 -0.5417
 2098TIP3    H127709   2.146   5.465  16.302  1.0678 -0.0832 -0.3772
 2098TIP3    H227710   2.269   5.384  16.337  0.8567 -0.5803 -0.7764
 2099TIP3   OH227711   5.674   5.661   4.453 -0.0620 -0.6247  0.5676
 2099TIP3    H127712   5.612   5.638   4.385  0.9358  0.1049 -0.6278
 2099TIP3    H227713   5.643   5.615   4.531 -1.9897 -0.4040 -0.0229
 2100TIP3   OH227714   1.037   3.521   4.790 -0.7189  0.2746  0.1917
 2100TIP3    H127715   1.080   3.593   4.743 -2.2326  0.8591 -0.3712
 2100TIP3    H227716   1.056   3.538   4.882  0.1995  0.5362 -0.0356
 2101TIP3   OH227717   2.225   4.630   1.182 -0.3895  0.3715 -0.0715
 2101TIP3    H127718   2.313   4.666   1.174 -0.0861 -0.7902 -3.1675
 2101TIP3    H227719   2.238   4.539   1.206 -0.5890 -0.1862 -1.9010
 2102TIP3   OH227720   3.106   1.947  15.096  0.0062 -0.9459 -0.0916
 2102TIP3    H127721   3.188   1.959  15.143  0.3217  0.2744 -0.9008
 2102TIP3    H227722   3.115   1.861  15.054  1.2580 -0.4513 -0.8855
 2103TIP3   OH227723   1.844   2.677  15.260  0.4168 -0.0345 -0.9404
 2103TIP3    H127724   1.770   2.647  15.207 -0.8306  1.3791 -0.0861
 2103TIP3    H227725   1.913   2.694  15.196  0.1544 -1.7324 -1.7205
 2104TIP3   OH227726   0.446   4.854   4.662  0.2768  0.2651  0.2247
 2104TIP3    H127727   0.360   4.867   4.702  0.2947 -0.5620  0.5533
 2104TIP3    H227728   0.497   4.930   4.689 -0.0426  0.2543  0.8880
 2105TIP3   OH227729   4.355   3.678  15.980 -0.1207 -0.4148  0.2164
 2105TIP3    H127730   4.399   3.596  16.002  0.2286  0.4469  3.1670
 2105TIP3    H227731   4.425   3.743  15.976 -0.6343  0.1774  0.5392
 2106TIP3   OH227732   5.895   1.362   1.177 -0.5704 -0.0377  0.0672
 2106TIP3    H127733   5.839   1.360   1.099 -0.7306 -0.2200  0.1845
 2106TIP3    H227734   5.950   1.284   1.169 -1.0688 -0.4420  0.4824
 2107TIP3   OH227735   5.740   0.666  16.087  0.1070  0.2256  0.1693
 2107TIP3    H127736   5.737   0.760  16.100  1.1823  0.2943  0.0697
 2107TIP3    H227737   5.802   0.635  16.154 -1.0363 -0.5599  0.9148
 2108TIP3   OH227738   4.917   0.719   6.210 -0.6728 -0.1495  0.2306
 2108TIP3    H127739   4.901   0.663   6.134  0.2129  0.8037 -0.6989
 2108TIP3    H227740   4.960   0.662   6.274 -1.6357 -1.0216  0.1331
 2109TIP3   OH227741   3.992   1.768  13.643  0.1349  0.0870 -0.2079
 2109TIP3    H127742   3.968   1.832  13.711  0.6706 -1.5774  1.6343
 2109TIP3    H227743   3.964   1.684  13.678  0.4052 -0.8486 -2.1032
 2110TIP3   OH227744   1.358   2.357   4.130  0.4173  0.1080  0.3349
 2110TIP3    H127745   1.373   2.293   4.200 -0.0729 -0.6751 -0.2656
 2110TIP3    H227746   1.292   2.416   4.166  0.5683  0.0353  0.7365
 2111TIP3   OH227747   0.916   4.424   5.762  0.3733  0.3433 -0.3839
 2111TIP3    H127748   0.867   4.365   5.819  0.8047 -0.3893 -0.7604
 2111TIP3    H227749   1.008   4.402   5.778  0.5000  0.1415 -1.3362
 2112TIP3   OH227750   1.915   3.894  13.897 -0.7241 -0.8139 -0.0331
 2112TIP3    H127751   1.986   3.854  13.847 -1.5798 -3.2479  0.5364
 2112TIP3    H227752   1.843   3.902  13.835 -0.3630  0.5140 -0.3042
 2113TIP3   OH227753   5.270   3.438   6.336 -0.3531  0.1219  0.2024
 2113TIP3    H127754   5.288   3.347   6.316 -0.1126  0.0931  0.5408
 2113TIP3    H227755   5.175   3.442   6.347 -0.4159  0.0129 -0.2925
 2114TIP3   OH227756   1.030   2.858  14.938 -0.5684 -0.5017 -0.4808
 2114TIP3    H127757   0.964   2.820  14.880  0.3557  0.5477 -2.2999
 2114TIP3    H227758   1.095   2.896  14.879  2.7504 -3.1624  1.1560
 2115TIP3   OH227759   5.304   6.354  12.678  0.0883  0.6431  0.6084
 2115TIP3    H127760   5.329   6.288  12.743  1.9816  0.2368 -0.4814
 2115TIP3    H227761   5.320   6.437  12.722 -2.1426  0.4403  1.9283
 2116TIP3   OH227762   2.841   5.102   0.616 -0.5797  0.8562  0.4063
 2116TIP3    H127763   2.772   5.059   0.667 -1.6952  1.9100 -0.1629
 2116TIP3    H227764   2.887   5.157   0.680 -0.8034  0.7815  0.6335
 2117TIP3   OH227765   4.686   5.665  17.047 -0.6715 -0.5082  0.4453
 2117TIP3    H127766   4.623   5.611  17.095  0.3578 -2.1720  0.0120
 2117TIP3    H227767   4.750   5.603  17.013 -0.0304  0.8826 -1.0391
 2118TIP3   OH227768   2.902   4.787   4.619 -0.0932  0.2762 -0.1856
 2118TIP3    H127769   2.894   4.857   4.554 -0.5099  0.3810 -0.0205
 2118TIP3    H227770   2.992   4.754   4.607  0.0384  0.7047 -0.3951
 2119TIP3   OH227771   2.271   4.262   3.195  0.2273 -0.3181  0.1471
 2119TIP3    H127772   2.191   4.277   3.246  0.1697  0.2701 -0.1087
 2119TIP3    H227773   2.240   4.253   3.104  0.4503 -0.1178  0.0507
 2120TIP3   OH227774   1.253   1.688  14.678 -0.2736  0.4307 -0.0195
 2120TIP3    H127775   1.212   1.671  14.593 -0.8417 -0.7460  0.4704
 2120TIP3    H227776   1.195   1.752  14.719  0.4139  1.5966 -0.7936
 2121TIP3   OH227777   1.873   3.911  14.428 -0.0169 -0.8212 -0.2561
 2121TIP3    H127778   1.860   3.979  14.362  0.8430 -0.7717 -0.3843
 2121TIP3    H227779   1.844   3.950  14.510 -0.5505 -0.6843 -0.5047
 2122TIP3   OH227780   2.214   1.549  12.549 -0.4823  0.3952 -0.0879
 2122TIP3    H127781   2.266   1.629  12.553  0.7493 -0.2862 -1.3705
 2122TIP3    H227782   2.228   1.507  12.634  3.0884 -0.9070 -1.1281
 2123TIP3   OH227783   5.128   0.901  14.030  0.1303  0.2396  0.5342
 2123TIP3    H127784   5.043   0.858  14.031 -1.3899  2.9532 -0.6729
 2123TIP3    H227785   5.180   0.851  13.968 -1.6095  0.2448 -1.0028
 2124TIP3   OH227786   0.051   1.652  16.795  0.7056 -0.0589 -0.4259
 2124TIP3    H127787   0.106   1.613  16.864  0.1428  0.5066  0.3592
 2124TIP3    H227788   0.010   1.577  16.752 -1.2468 -0.3750  1.7964
 2125TIP3   OH227789   1.311   1.814  13.566 -0.1029 -0.3337  0.9144
 2125TIP3    H127790   1.239   1.861  13.607 -1.6801 -1.2716 -0.6295
 2125TIP3    H227791   1.332   1.867  13.489  1.4038  0.3167  1.7339
 2126TIP3   OH227792   5.838   0.332   0.304  0.0096  0.4412 -0.3873
 2126TIP3    H127793   5.810   0.414   0.346 -1.0312 -0.1427  0.1155
 2126TIP3    H227794   5.757   0.296   0.268  0.0094 -1.4467  1.3299
 2127TIP3   OH227795   1.864   4.237  11.119  0.4122 -0.4563 -0.5427
 2127TIP3    H127796   1.772   4.262  11.126  0.9280  1.1155  1.7457
 2127TIP3    H227797   1.881   4.184  11.198  1.6502 -0.0037 -0.4745
 2128TIP3   OH227798   0.370   6.648   2.573  0.3317 -0.4709  0.0751
 2128TIP3    H127799   0.333   6.615   2.491  1.2781 -0.0165 -0.5447
 2128TIP3    H227800   0.323   6.599   2.641 -0.5761 -0.7462 -0.7169
 2129TIP3   OH227801   6.531   5.845  14.022  0.3842  0.4562 -0.4094
 2129TIP3    H127802   6.552   5.751  14.029 -0.6765  0.1736 -0.8900
 2129TIP3    H227803   6.537   5.877  14.112  1.6548  0.1432 -0.3571
 2130TIP3   OH227804   2.059   0.434   1.030 -0.2989 -0.2650  0.7852
 2130TIP3    H127805   1.993   0.403   0.968 -2.2182  1.5995  1.7801
 2130TIP3    H227806   2.010   0.459   1.108  1.7664 -0.1452  2.1353
 2131TIP3   OH227807   6.401   2.201   5.778 -0.1039 -0.2209  0.5372
 2131TIP3    H127808   6.402   2.199   5.683  0.4617 -0.3807  0.5427
 2131TIP3    H227809   6.417   2.292   5.801  2.2544 -0.5677  0.4849
 2132TIP3   OH227810   1.699   1.449  16.949 -0.1942  0.1998  0.2355
 2132TIP3    H127811   1.780   1.484  16.911 -0.3903  0.0778 -0.3009
 2132TIP3    H227812   1.702   1.476  17.041 -0.3114  1.5881 -0.1479
 2133TIP3   OH227813   4.473   1.672   3.127 -0.2519 -0.1967  0.1254
 2133TIP3    H127814   4.482   1.652   3.034 -1.7135  1.0519 -0.3332
 2133TIP3    H227815   4.522   1.603   3.171  2.9934  0.7877 -1.6104
 2134TIP3   OH227816   5.271   5.654  13.103  0.0426  0.1893 -0.1990
 2134TIP3    H127817   5.357   5.634  13.065 -0.7989 -1.4726 -1.3389
 2134TIP3    H227818   5.239   5.728  13.053  0.2043 -0.1087 -0.7500
 2135TIP3   OH227819   3.759   5.052   5.263 -0.4098  0.2744  0.5458
 2135TIP3    H127820   3.768   5.104   5.183  2.7819 -0.6841  0.1159
 2135TIP3    H227821   3.735   5.115   5.331 -0.7184  1.5405 -0.6965
 2136TIP3   OH227822   4.036   4.411   4.424 -0.4126 -0.1719  0.1006
 2136TIP3    H127823   4.017   4.504   4.409  1.3348  0.3347  0.6767
 2136TIP3    H227824   4.073   4.381   4.341  1.6659  0.4515  0.7411
 2137TIP3   OH227825   0.501   1.180  12.630 -0.9530  0.7266  0.6511
 2137TIP3    H127826   0.450   1.110  12.670  0.4679 -1.3677 -0.9774
 2137TIP3    H227827   0.519   1.240  12.703 -1.0669 -1.3058  2.4713
 2138TIP3   OH227828   3.353   0.839   1.322  0.6135 -0.3455  0.0340
 2138TIP3    H127829   3.301   0.762   1.302  1.4509 -0.9179  0.0008
 2138TIP3    H227830   3.438   0.804   1.350  0.1193  0.4580  2.8394
 2139TIP3   OH227831   5.127   1.898  13.182 -0.2983 -0.0563 -0.0070
 2139TIP3    H127832   5.214   1.895  13.142 -0.8061 -1.7515 -1.0795
 2139TIP3    H227833   5.100   1.989  13.174  1.4338  0.5534  0.5346
 2140TIP3   OH227834   3.803   4.999   5.594 -0.0289 -0.0887  0.3703
 2140TIP3    H127835   3.883   5.025   5.549 -0.3032  0.1883  0.0340
 2140TIP3    H227836   3.833   4.967   5.679  0.5486 -1.2323 -0.2473
 2141TIP3   OH227837   6.399   0.665   4.295 -0.4056  0.2219 -0.3500
 2141TIP3    H127838   6.422   0.746   4.248 -1.8450 -0.9045 -3.2492
 2141TIP3    H227839   6.429   0.595   4.238 -0.3047 -1.3376  1.5148
 2142TIP3   OH227840   2.715   0.080  11.001  0.5581  0.0754 -0.2522
 2142TIP3    H127841   2.712  -0.015  11.005  2.3844  0.0006  0.1698
 2142TIP3    H227842   2.806   0.102  11.022 -0.1309  1.9838  0.9928
 2143TIP3   OH227843   3.128   5.138   5.489  0.6069  0.5813  0.1410
 2143TIP3    H127844   3.164   5.049   5.486  1.7783  1.0450 -0.4274
 2143TIP3    H227845   3.177   5.182   5.559 -0.0025  0.7762  0.4565
 2144TIP3   OH227846   1.061   0.866  14.125  0.2776 -0.8589 -0.0373
 2144TIP3    H127847   1.152   0.862  14.097 -0.1719 -2.5624 -1.4564
 2144TIP3    H227848   1.056   0.811  14.203  0.4718 -0.6628  0.1149
 2145TIP3   OH227849   4.168   4.038  13.946 -0.2326  0.2286 -0.0091
 2145TIP3    H127850   4.221   4.044  13.867 -0.1290 -1.3223 -0.0924
 2145TIP3    H227851   4.145   3.945  13.952 -0.9667  0.4754  1.3086
 2146TIP3   OH227852   5.223   3.341  16.528 -0.6697 -0.0891 -0.4046
 2146TIP3    H127853   5.190   3.424  16.563  2.0352  0.8888  0.0741
 2146TIP3    H227854   5.309   3.363  16.492 -1.1710 -2.0806 -3.1967
 2147TIP3   OH227855   6.649   6.002  15.357  0.1181 -0.0824  0.1104
 2147TIP3    H127856   6.738   6.031  15.337 -0.1894  0.9404  0.2025
 2147TIP3    H227857   6.595   6.080  15.347 -0.9143 -0.8790 -0.8125
 2148TIP3   OH227858   5.596   4.178  12.357  0.0218 -0.1122  0.1878
 2148TIP3    H127859   5.661   4.230  12.310 -2.2450  0.4258 -2.6229
 2148TIP3    H227860   5.590   4.219  12.443  1.4940  1.4574 -0.3980
 2149TIP3   OH227861   2.395   4.857  13.016 -0.0751 -0.4882  0.0774
 2149TIP3    H127862   2.338   4.888  12.945 -1.3971 -0.7511  0.9967
 2149TIP3    H227863   2.457   4.799  12.972 -1.0005 -0.8233 -0.8503
 2150TIP3   OH227864   5.573   6.417   0.811  0.1255  0.2874  0.0973
 2150TIP3    H127865   5.482   6.440   0.829 -0.3684 -0.7149 -1.0309
 2150TIP3    H227866   5.572   6.324   0.791  1.3277  0.3563 -0.4055
 2151TIP3   OH227867   4.645   2.101   2.139  0.0961 -0.0850  0.3994
 2151TIP3    H127868   4.611   2.137   2.221  2.2199  3.3062 -0.0314
 2151TIP3    H227869   4.735   2.132   2.134  0.8985 -2.3996 -2.0186
 2152TIP3   OH227870   5.112   4.750  16.308 -0.1593  0.3295 -0.1657
 2152TIP3    H127871   5.139   4.838  16.333  0.0682  0.8047 -1.9298
 2152TIP3    H227872   5.166   4.692  16.362  1.3667  1.2849 -0.6044
 2153TIP3   OH227873   4.164   3.926   5.066  0.6149  0.5749 -0.2148
 2153TIP3    H127874   4.106   3.979   5.123  0.8402  2.0356 -1.2781
 2153TIP3    H227875   4.108   3.855   5.035 -0.2367  1.2022 -0.1635
 2154TIP3   OH227876   6.481   3.486   6.125  0.7398  0.8234  0.3672
 2154TIP3    H127877   6.576   3.492   6.136  0.6646 -0.5012  2.1245
 2154TIP3    H227878   6.466   3.394   6.104 -0.3460  0.2853  3.1118
 2155TIP3   OH227879   3.211   3.084   1.270 -0.4704 -0.4754  0.6436
 2155TIP3    H127880   3.305   3.091   1.285  0.0679 -1.2741 -1.8594
 2155TIP3    H227881   3.186   3.168   1.231 -0.4620 -0.8101 -0.1009
 2156TIP3   OH227882   3.602   5.112  13.427 -0.3532  0.2113  0.2531
 2156TIP3    H127883   3.527   5.157  13.468 -0.8585 -0.0617 -0.3519
 2156TIP3    H227884   3.576   5.101  13.336 -0.4720 -1.7715  0.4874
 2157TIP3   OH227885   1.385   0.076  13.577 -0.2434 -0.0885 -0.3161
 2157TIP3    H127886   1.472   0.045  13.553 -0.4534 -0.2836 -0.8473
 2157TIP3    H227887   1.347   0.106  13.494 -0.9502 -0.6701 -0.2143
 2158TIP3   OH227888   3.082   4.415   4.605 -0.5392 -0.2253  0.9818
 2158TIP3    H127889   3.053   4.430   4.695  0.9743 -0.8774  1.6096
 2158TIP3    H227890   3.062   4.323   4.588 -0.8472 -0.0953  0.6457
 2159TIP3   OH227891   2.442   4.203  14.188  0.0227  0.6145 -0.2229
 2159TIP3    H127892   2.484   4.267  14.131 -1.3522  1.6499 -0.1373
 2159TIP3    H227893   2.456   4.236  14.277  1.2094 -0.4100 -0.0013
 2160TIP3   OH227894   0.967   1.689  14.957  0.7435  0.3247 -0.4677
 2160TIP3    H127895   0.970   1.773  15.003 -0.2053 -0.4398  1.0910
 2160TIP3    H227896   1.051   1.647  14.979  1.0514  0.6914 -0.9271
 2161TIP3   OH227897   5.006   3.672  13.980 -0.3360 -0.3916  0.3819
 2161TIP3    H127898   4.958   3.606  14.029 -1.8489  0.2936 -0.1028
 2161TIP3    H227899   5.030   3.629  13.898 -0.5940 -0.5938  0.4125
 2162TIP3   OH227900   4.656   6.750   4.194 -0.2985  0.2659 -0.3845
 2162TIP3    H127901   4.681   6.664   4.159 -1.1060 -1.4112  2.7891
 2162TIP3    H227902   4.736   6.783   4.235 -0.7262 -0.4279  1.0449
 2163TIP3   OH227903   0.330   2.259  14.927 -0.2116  0.0013  0.1147
 2163TIP3    H127904   0.258   2.254  14.865  0.5283 -3.5800 -0.6813
 2163TIP3    H227905   0.403   2.295  14.877 -0.2022 -0.8562 -0.5073
 2164TIP3   OH227906   0.387   3.473  13.054  0.3909 -0.0160 -0.3234
 2164TIP3    H127907   0.433   3.556  13.063  1.5370 -0.7035  0.3502
 2164TIP3    H227908   0.345   3.479  12.967  0.2044  1.3556 -0.1708
 2165TIP3   OH227909   5.763   6.118   3.894  0.2292  0.7551  0.2634
 2165TIP3    H127910   5.833   6.133   3.831  0.9729 -1.7337  0.3865
 2165TIP3    H227911   5.800   6.058   3.959 -2.0262 -0.8950  0.1845
 2166TIP3   OH227912   3.925   6.592  14.536  0.1175  0.2167 -0.5642
 2166TIP3    H127913   3.996   6.561  14.480 -0.6668 -0.6003 -1.1347
 2166TIP3    H227914   3.962   6.668  14.582  2.3344 -1.9084  1.4305
 2167TIP3   OH227915   3.450   4.165   1.919 -0.0198 -0.1814 -0.1646
 2167TIP3    H127916   3.506   4.088   1.905  1.2383  0.8807 -1.3095
 2167TIP3    H227917   3.504   4.239   1.889 -1.2368  1.1358  0.8005
 2168TIP3   OH227918   0.384   0.285   2.497 -0.3831  0.4344 -0.0952
 2168TIP3    H127919   0.303   0.314   2.455  0.2333  0.8895 -0.9934
 2168TIP3    H227920   0.355   0.224   2.565 -1.5258  1.1518  0.0913
 2169TIP3   OH227921   3.234   0.741  14.597 -0.0596 -0.1179  0.1389
 2169TIP3    H127922   3.271   0.691  14.524 -1.2657 -2.4670  1.0216
 2169TIP3    H227923   3.308   0.757  14.655  0.6147  0.4107 -0.8371
 2170TIP3   OH227924   6.092   6.535   1.500 -0.2358 -0.1348 -0.0024
 2170TIP3    H127925   6.174   6.550   1.453 -0.0469 -0.0339  0.3552
 2170TIP3    H227926   6.024   6.572   1.443  0.1795  1.8762  0.7332
 2171TIP3   OH227927   1.849   4.509   3.780 -0.3736  0.1708 -0.4785
 2171TIP3    H127928   1.897   4.586   3.810 -0.5562  0.1342 -0.0824
 2171TIP3    H227929   1.782   4.543   3.721 -0.8591  0.3906  0.1824
 2172TIP3   OH227930   2.975   5.540   1.146 -0.1240 -0.3768  0.2072
 2172TIP3    H127931   2.968   5.499   1.232  0.5853 -0.6030  0.1633
 2172TIP3    H227932   3.018   5.474   1.092  0.8076  0.3190  0.0741
 2173TIP3   OH227933   3.787   2.309  11.277  0.2562 -0.6055  0.0364
 2173TIP3    H127934   3.754   2.352  11.356  0.4031  0.4538 -0.4585
 2173TIP3    H227935   3.738   2.349  11.205  0.5377 -1.1333 -0.4583
 2174TIP3   OH227936   0.184   6.311  14.113 -0.2337 -0.3319 -0.1791
 2174TIP3    H127937   0.195   6.380  14.049 -4.1468  0.9796  0.2615
 2174TIP3    H227938   0.254   6.325  14.177  1.2627  0.8727 -1.9919
 2175TIP3   OH227939   5.863   2.147   1.506 -0.0571 -0.3362  0.1836
 2175TIP3    H127940   5.837   2.180   1.420 -2.0915 -0.1333  0.8290
 2175TIP3    H227941   5.875   2.053   1.493 -0.7227 -0.3670 -0.2543
 2176TIP3   OH227942   3.951   4.958  10.919 -1.2389 -0.1418  0.0042
 2176TIP3    H127943   3.949   5.037  10.866  1.0911  0.3583  0.5241
 2176TIP3    H227944   4.000   4.894  10.866  2.6277  0.8726  1.9192
 2177TIP3   OH227945   2.564   6.710  12.593 -0.2217  0.3486  0.4342
 2177TIP3    H127946   2.640   6.766  12.608 -0.4441  0.7425  0.1023
 2177TIP3    H227947   2.601   6.627  12.564  0.2778 -0.6529  3.5164
 2178TIP3   OH227948   2.311   3.380  10.753  0.0353 -0.0958  0.0085
 2178TIP3    H127949   2.387   3.359  10.700 -0.8521  0.0790 -1.3659
 2178TIP3    H227950   2.315   3.474  10.766 -0.3588  0.0260 -0.7267
 2179TIP3   OH227951   6.037   5.741  11.877  0.0328  0.3471  1.0773
 2179TIP3    H127952   6.041   5.763  11.970  2.2929 -2.0716  1.6575
 2179TIP3    H227953   6.076   5.655  11.871 -0.8930  0.0242 -2.0554
 2180TIP3   OH227954   0.455   5.883   0.836  0.0243 -0.1104 -1.2197
 2180TIP3    H127955   0.542   5.885   0.795  0.6115 -2.1954 -0.2511
 2180TIP3    H227956   0.470   5.911   0.926 -0.1837 -0.9135 -0.9218
 2181TIP3   OH227957   5.562   0.909  16.772  0.2435  0.1546 -0.2351
 2181TIP3    H127958   5.503   0.834  16.767 -0.3252  0.6816 -1.8842
 2181TIP3    H227959   5.565   0.930  16.866 -1.4460 -0.4649  0.0025
 2182TIP3   OH227960   4.909   1.659  13.487 -0.2118  0.8582 -0.8699
 2182TIP3    H127961   4.873   1.571  13.488 -0.3703  0.8048  2.8874
 2182TIP3    H227962   4.991   1.651  13.437  0.2950 -1.6888  0.2129
 2183TIP3   OH227963   3.436   5.098   4.007  0.1431  0.9158 -0.0837
 2183TIP3    H127964   3.360   5.070   3.956  0.1335 -0.2031  0.5005
 2183TIP3    H227965   3.427   5.193   4.014 -0.7816  0.8881 -0.6791
 2184TIP3   OH227966   3.865   1.209  11.459 -0.1049  0.1791 -0.2269
 2184TIP3    H127967   3.772   1.217  11.440 -0.1434  1.6452  0.4062
 2184TIP3    H227968   3.898   1.145  11.396 -0.9450  1.8969 -2.5124
 2185TIP3   OH227969   3.797   3.294   3.492 -0.6094 -0.3113  0.2195
 2185TIP3    H127970   3.858   3.253   3.553  0.5885  2.1275  0.7970
 2185TIP3    H227971   3.786   3.230   3.422  0.6066 -1.8349  1.3405
 2186TIP3   OH227972   4.454   6.370  14.641  0.1010 -0.2877  0.0806
 2186TIP3    H127973   4.507   6.318  14.701  0.4767  0.5609  0.5066
 2186TIP3    H227974   4.392   6.307  14.603  2.1681 -1.5675 -1.3632
 2187TIP3   OH227975   0.023   2.868  16.193 -0.0011  0.0169  0.1685
 2187TIP3    H127976  -0.056   2.822  16.222 -0.2667  0.6029  0.3778
 2187TIP3    H227977   0.094   2.806  16.212 -0.3714 -0.3704  0.3063
 2188TIP3   OH227978   5.806   5.247   4.656  0.5819 -0.4168  0.1506
 2188TIP3    H127979   5.835   5.172   4.708  0.8608 -1.7496 -1.8309
 2188TIP3    H227980   5.722   5.219   4.618  0.5496  0.3737 -0.3826
 2189TIP3   OH227981   6.736   0.588  12.906 -0.0335  0.2647 -0.2167
 2189TIP3    H127982   6.704   0.673  12.937 -1.5092 -0.1513 -0.5387
 2189TIP3    H227983   6.814   0.610  12.853  0.0888  1.3296  0.3725
 2190TIP3   OH227984   5.795   2.934  16.748  0.7194 -0.3388  0.1136
 2190TIP3    H127985   5.824   2.858  16.696  1.3770 -0.2699  0.3661
 2190TIP3    H227986   5.713   2.906  16.787  0.8925 -0.8856  0.1044
 2191TIP3   OH227987   2.781   2.224  11.250  0.0450 -0.0159  0.3836
 2191TIP3    H127988   2.863   2.237  11.201 -0.6106 -1.2767 -1.1421
 2191TIP3    H227989   2.786   2.287  11.322  0.7410  2.5416 -1.7120
 2192TIP3   OH227990   0.452   6.635   3.632 -0.2064  0.8852 -0.0755
 2192TIP3    H127991   0.479   6.569   3.696 -2.0375 -0.6608 -0.8240
 2192TIP3    H227992   0.425   6.710   3.686 -2.0573 -0.5130  1.0795
 2193TIP3   OH227993   0.578   4.285   4.587  0.1573  0.2738  0.3636
 2193TIP3    H127994   0.552   4.274   4.496 -0.8365  0.4573  0.6119
 2193TIP3    H227995   0.563   4.378   4.606 -0.3052  0.0980  0.9031
 2194TIP3   OH227996   3.202   3.581   4.907 -0.2919 -0.0742  0.1755
 2194TIP3    H127997   3.132   3.625   4.858 -0.5558 -0.3245  0.3229
 2194TIP3    H227998   3.275   3.577   4.845 -0.0012  1.2251  0.3915
 2195TIP3   OH227999   6.297   2.015  11.359 -0.2704 -0.2608 -0.3994
 2195TIP3    H128000   6.257   2.091  11.401 -1.1941 -2.0873  2.3287
 2195TIP3    H228001   6.226   1.950  11.355  1.1977 -1.9774  0.1208
 2196TIP3   OH228002   3.905   2.441   1.612  0.0454  0.4549 -0.6103
 2196TIP3    H128003   3.934   2.368   1.557 -0.5618 -0.1659 -0.1225
 2196TIP3    H228004   3.811   2.425   1.624  0.1359  0.6852  0.4473
 2197TIP3   OH228005   6.604   4.404  12.148  0.0914 -0.0859 -0.4865
 2197TIP3    H128006   6.537   4.466  12.117  0.7550  1.0635  0.2868
 2197TIP3    H228007   6.657   4.455  12.208 -0.4638 -1.9257  1.6776
 2198TIP3   OH228008   3.536   2.271  15.155  0.1413 -0.0310  0.4382
 2198TIP3    H128009   3.465   2.335  15.149  0.6311  0.5310  0.5702
 2198TIP3    H228010   3.559   2.269  15.248  0.5200  0.0344  0.3478
 2199TIP3   OH228011   1.115   6.477   2.775 -0.3392 -0.0224 -0.0935
 2199TIP3    H128012   1.089   6.399   2.727 -1.0767  0.2739 -0.1904
 2199TIP3    H228013   1.036   6.503   2.823  0.3408 -0.2494  1.1952
 2200TIP3   OH228014   1.978   1.947   5.571 -0.3401 -0.0414  0.2841
 2200TIP3    H128015   1.952   1.856   5.558  1.0722 -0.6668  1.4976
 2200TIP3    H228016   2.003   1.952   5.663 -2.0262  2.0384  0.7281
 2201TIP3   OH228017   4.024   3.428   2.037 -0.1897 -0.2797  0.6224
 2201TIP3    H128018   4.105   3.416   1.987 -0.5944 -1.4108  0.1990
 2201TIP3    H228019   3.962   3.465   1.974 -0.0858  0.3466  0.8798
 2202TIP3   OH228020   2.661   6.270  12.365 -0.2509 -0.2094 -0.4603
 2202TIP3    H128021   2.636   6.297  12.277  1.4245  0.3208 -0.8195
 2202TIP3    H228022   2.604   6.320  12.423 -0.6768  0.2149 -1.2312
 2203TIP3   OH228023   3.373   4.451   3.437 -0.0112 -0.4986  0.2471
 2203TIP3    H128024   3.366   4.357   3.455  0.0166 -0.5682 -0.1035
 2203TIP3    H228025   3.318   4.492   3.504  0.7994 -0.7014  1.0492
 2204TIP3   OH228026   5.725   3.357   4.879  0.3494  0.6338 -0.0348
 2204TIP3    H128027   5.704   3.279   4.930  1.9976  1.6038  2.3239
 2204TIP3    H228028   5.742   3.324   4.790 -0.4430 -1.4401  0.5157
 2205TIP3   OH228029   0.580   6.606   3.972  0.2171  0.3383  0.4942
 2205TIP3    H128030   0.668   6.598   3.935  0.4708  1.6822  0.7468
 2205TIP3    H228031   0.527   6.542   3.924  1.0335  0.4726 -0.6233
 2206TIP3   OH228032   0.991   5.471   1.591  0.0369 -0.1219 -0.2295
 2206TIP3    H128033   1.066   5.449   1.536  0.4155  0.1823  0.1625
 2206TIP3    H228034   0.964   5.387   1.630  0.6881 -0.1051  0.2738
 2207TIP3   OH228035   6.287   0.743  12.711 -0.5594  0.4505 -0.6096
 2207TIP3    H128036   6.208   0.779  12.752  0.5018  2.3051 -0.1224
 2207TIP3    H228037   6.262   0.731  12.619 -1.3106  1.2950 -0.5295
 2208TIP3   OH228038   6.764   4.764  12.272  0.4255 -0.0284 -0.0509
 2208TIP3    H128039   6.821   4.790  12.200  0.1868  1.3831  0.2401
 2208TIP3    H228040   6.676   4.791  12.244  0.3487  0.6457  0.8039
 2209TIP3   OH228041   2.624   0.692   6.481 -0.0632  0.3697 -0.3665
 2209TIP3    H128042   2.664   0.643   6.409 -1.4180  0.7703 -1.4430
 2209TIP3    H228043   2.697   0.717   6.537  0.9669 -0.4169 -1.3143
 2210TIP3   OH228044   5.018   1.379  10.944  0.5607  0.0357  0.3731
 2210TIP3    H128045   5.019   1.367  11.039  0.1346 -0.2227  0.3513
 2210TIP3    H228046   4.926   1.397  10.924  0.1163 -2.6277 -0.2994
 2211TIP3   OH228047   0.248   1.650   0.785  0.2885 -0.3383 -0.1190
 2211TIP3    H128048   0.273   1.672   0.695 -0.7085  0.1115 -0.3027
 2211TIP3    H228049   0.153   1.638   0.780 -0.0304  1.2824  1.1729
 2212TIP3   OH228050   0.781   2.326  13.715 -0.0930  0.3798  0.7015
 2212TIP3    H128051   0.783   2.346  13.622  1.8795  1.1808  0.8639
 2212TIP3    H228052   0.794   2.410  13.758 -1.0775  0.0381  1.7387
 2213TIP3   OH228053   3.125   1.666   5.448  0.2912  0.6673  0.4419
 2213TIP3    H128054   3.033   1.666   5.475  0.0285 -0.8816 -0.3242
 2213TIP3    H228055   3.160   1.584   5.482  1.2950  1.0863  0.4319
 2214TIP3   OH228056   0.597   5.921  15.778  0.1615  0.3542  0.9220
 2214TIP3    H128057   0.527   5.985  15.765  0.6891  0.8227  0.3562
 2214TIP3    H228058   0.665   5.969  15.825  0.0520 -0.1398  1.5974
 2215TIP3   OH228059   3.127   5.909   4.220  0.0224 -0.3421 -0.2144
 2215TIP3    H128060   3.107   5.821   4.254 -1.3240 -0.4446 -1.1971
 2215TIP3    H228061   3.141   5.962   4.299 -1.4315 -0.9367  0.4847
 2216TIP3   OH228062   1.355   5.295  12.846  0.6732  0.2287 -0.1147
 2216TIP3    H128063   1.351   5.308  12.751  1.7976 -1.4541 -0.4253
 2216TIP3    H228064   1.353   5.201  12.858  1.8465  0.3601  1.4579
 2217TIP3   OH228065   1.455   3.833   3.636  0.3426 -0.3055 -0.0432
 2217TIP3    H128066   1.481   3.925   3.642  0.0898 -0.2414  0.0861
 2217TIP3    H228067   1.454   3.802   3.726  0.5943 -0.4813 -0.1020
 2218TIP3   OH228068   2.116   0.160   3.356 -0.0963 -0.2059 -0.0166
 2218TIP3    H128069   2.211   0.149   3.348 -0.3445 -3.3265  0.1652
 2218TIP3    H228070   2.089   0.089   3.414 -2.4137  1.5518  1.2200
 2219TIP3   OH228071   1.812   1.406   4.750  0.6682 -0.1177 -1.1863
 2219TIP3    H128072   1.893   1.385   4.704  0.8569 -0.7658 -0.5738
 2219TIP3    H228073   1.833   1.485   4.800  1.3437 -0.9940 -0.0224
 2220TIP3   OH228074   6.564   3.861   3.942  0.4492 -0.3287 -0.3765
 2220TIP3    H128075   6.508   3.896   4.012 -0.6325 -1.9562 -0.3737
 2220TIP3    H228076   6.643   3.832   3.987  1.6374  2.4784 -0.4463
 2221TIP3   OH228077   0.297   4.605   3.617  0.5972  0.1634 -0.4144
 2221TIP3    H128078   0.351   4.637   3.690 -0.4988 -0.7451  0.8500
 2221TIP3    H228079   0.343   4.526   3.587  0.7161  0.1752 -0.2686
 2222TIP3   OH228080   6.668   1.476  13.830  0.4803  0.6947 -0.3616
 2222TIP3    H128081   6.585   1.441  13.798 -0.5339  1.7962  0.9632
 2222TIP3    H228082   6.712   1.506  13.750  1.4519 -3.3936 -1.5992
 2223TIP3   OH228083   3.791   4.976   2.754  0.2931 -0.1112 -0.2555
 2223TIP3    H128084   3.841   4.895   2.764 -0.5117 -0.5229  0.5960
 2223TIP3    H228085   3.730   4.977   2.828 -0.3668  0.8025 -0.7733
 2224TIP3   OH228086   1.908   5.491   2.272  0.8605  0.2735  0.2341
 2224TIP3    H128087   1.993   5.527   2.249  1.1744 -0.0876  0.7961
 2224TIP3    H228088   1.884   5.437   2.197  0.9483  0.6741 -0.0867
 2225TIP3   OH228089   1.812   6.051  15.219 -0.4828 -0.6078  0.2560
 2225TIP3    H128090   1.829   6.121  15.156  0.8223 -1.1179  0.0212
 2225TIP3    H228091   1.803   6.097  15.303  0.5301 -0.1552  0.1324
 2226TIP3   OH228092   3.370   6.244   0.800  0.5769  0.0643  0.7860
 2226TIP3    H128093   3.428   6.318   0.783 -0.6257  1.1070  1.1429
 2226TIP3    H228094   3.315   6.272   0.873 -1.0608 -0.4876 -0.1801
 2227TIP3   OH228095   4.637   1.965  13.085  0.1589 -0.2066  0.7804
 2227TIP3    H128096   4.594   1.991  13.167 -1.7696 -0.6617 -0.0261
 2227TIP3    H228097   4.581   2.001  13.016  0.8553 -1.2108 -0.3442
 2228TIP3   OH228098   6.458   1.698   0.038  0.4257  0.6691 -0.3051
 2228TIP3    H128099   6.404   1.650  -0.025  0.5892  0.7120 -0.4779
 2228TIP3    H228100   6.403   1.703   0.117  0.2002  0.6591 -0.4587
 2229TIP3   OH228101   4.316   4.344  11.637  0.4319 -0.2333 -0.3323
 2229TIP3    H128102   4.358   4.279  11.694 -0.5455 -0.7202 -0.1400
 2229TIP3    H228103   4.298   4.296  11.556  0.8248  0.1572 -0.6602
 2230TIP3   OH228104   0.947   2.392  12.031  0.1992  0.1871  0.3093
 2230TIP3    H128105   1.042   2.403  12.036  0.6324 -2.8344  0.7196
 2230TIP3    H228106   0.931   2.351  11.946 -0.6222 -0.1692  0.6211
 2231TIP3   OH228107   5.444   4.139  15.138 -0.5093  0.0028 -0.5871
 2231TIP3    H128108   5.444   4.160  15.231 -0.7780  2.4997 -1.0692
 2231TIP3    H228109   5.398   4.055  15.132 -1.7565  0.4702  1.4099
 2232TIP3   OH228110   3.922   2.096   4.979 -0.4620 -0.1177  0.3017
 2232TIP3    H128111   3.852   2.062   5.035 -0.4879  0.6831  0.7702
 2232TIP3    H228112   3.881   2.167   4.930 -0.6912 -1.3804 -1.4399
 2233TIP3   OH228113   1.638   4.695   3.014 -0.1457 -0.1297  0.2544
 2233TIP3    H128114   1.688   4.710   2.934  1.0738  1.5765  1.2624
 2233TIP3    H228115   1.623   4.600   3.015  2.1759 -0.5826 -0.6589
 2234TIP3   OH228116   3.471   6.091  16.461  0.4861  0.5182 -0.3524
 2234TIP3    H128117   3.499   6.176  16.426  0.6399  0.0559 -1.3859
 2234TIP3    H228118   3.486   6.029  16.389 -2.4778  0.1125 -0.7527
 2235TIP3   OH228119   0.082   5.399   2.796 -0.0632  0.0037 -0.2720
 2235TIP3    H128120   0.089   5.421   2.703 -1.3364  0.5242 -0.2792
 2235TIP3    H228121  -0.012   5.389   2.810  0.1157 -0.0501  0.9607
 2236TIP3   OH228122   3.270   2.180  16.396  0.3046 -0.6164 -0.1038
 2236TIP3    H128123   3.241   2.156  16.484 -2.1976  1.3914 -0.2615
 2236TIP3    H228124   3.220   2.123  16.338 -2.4094  1.7112 -0.3063
 2237TIP3   OH228125   2.091   6.351  11.308 -0.2884 -0.5595 -0.5553
 2237TIP3    H128126   2.157   6.396  11.254  0.5438 -0.3618  0.5880
 2237TIP3    H228127   2.017   6.412  11.311  0.5807  0.5002  0.4489
 2238TIP3   OH228128   0.682   5.878   0.705  0.0845 -0.0249 -0.4345
 2238TIP3    H128129   0.728   5.800   0.738  0.8175 -0.1779 -1.7388
 2238TIP3    H228130   0.689   5.871   0.610 -0.2439  1.4081 -0.5848
 2239TIP3   OH228131   2.114   6.198   5.356  0.4374 -0.1081 -0.6340
 2239TIP3    H128132   2.189   6.181   5.412  0.1569 -1.3345 -0.6084
 2239TIP3    H228133   2.138   6.277   5.307  2.4799 -1.3984 -1.8757
 2240TIP3   OH228134   5.454   1.125  15.588  0.1354 -0.6232 -0.6227
 2240TIP3    H128135   5.434   1.032  15.573 -0.8812 -0.4260 -0.5185
 2240TIP3    H228136   5.490   1.155  15.504 -1.9103 -0.4929 -1.5224
 2241TIP3   OH228137   4.707   3.894   0.315  0.0648  0.2138 -0.4949
 2241TIP3    H128138   4.720   3.833   0.387  0.5270  2.3923  1.3504
 2241TIP3    H228139   4.614   3.916   0.318  0.1390  0.5121 -0.4076
 2242TIP3   OH228140   3.788   3.115   1.781  0.0191  0.3808  0.8067
 2242TIP3    H128141   3.822   3.162   1.705  2.0536  0.4232  1.6725
 2242TIP3    H228142   3.709   3.162   1.805  0.2899  1.4145 -0.2457
 2243TIP3   OH228143   5.220   2.673   4.835 -0.5715 -0.2003  0.1842
 2243TIP3    H128144   5.244   2.697   4.924  0.5517 -0.4564 -0.0399
 2243TIP3    H228145   5.236   2.752   4.783 -0.3652 -0.3204  0.0629
 2244TIP3   OH228146   4.912   0.941  11.917 -0.1383  0.0419 -0.5669
 2244TIP3    H128147   4.886   0.860  11.873 -1.4426  0.3912 -0.4856
 2244TIP3    H228148   4.960   0.991  11.851  0.8141 -0.8396 -0.5711
 2245TIP3   OH228149   5.966   2.034  15.474 -0.3980 -0.6037  0.0061
 2245TIP3    H128150   6.054   2.021  15.439 -0.2929 -0.9186  0.3839
 2245TIP3    H228151   5.953   2.129  15.471  0.9198 -0.2824  2.2285
 2246TIP3   OH228152   2.334   4.596  11.293 -0.7624 -0.6040 -0.1192
 2246TIP3    H128153   2.408   4.535  11.293 -0.6368 -0.4616 -0.6730
 2246TIP3    H228154   2.360   4.664  11.231 -0.5966  0.3883  0.9848
 2247TIP3   OH228155   2.666   3.012   2.047 -0.0220 -0.6679 -0.2665
 2247TIP3    H128156   2.670   3.045   2.136 -2.1460 -0.1701 -0.2985
 2247TIP3    H228157   2.669   2.916   2.056  0.9784 -0.5998  0.2216
 2248TIP3   OH228158   2.675   6.531   0.649 -0.6772  0.3034 -0.8277
 2248TIP3    H128159   2.697   6.452   0.699 -1.5335  0.4884 -0.1306
 2248TIP3    H228160   2.585   6.516   0.619 -1.1993  1.4043  0.1232
 2249TIP3   OH228161   1.320   0.092  15.584  0.2675 -0.1499  0.0639
 2249TIP3    H128162   1.374   0.050  15.651 -0.5225  0.7448  1.2988
 2249TIP3    H228163   1.262   0.023  15.553  2.2001 -1.1877 -1.4333
 2250TIP3   OH228164   6.458   0.969   3.633  0.5312  0.3719  0.4265
 2250TIP3    H128165   6.457   0.961   3.729  0.2975 -3.3788  0.2769
 2250TIP3    H228166   6.501   1.052   3.616  1.5903  0.6704  3.7884
 2251TIP3   OH228167   0.077   5.644  15.369  0.5034 -0.1116  0.6665
 2251TIP3    H128168   0.111   5.554  15.366  0.0091 -0.3324  1.2901
 2251TIP3    H228169   0.154   5.699  15.381  1.0151 -0.2779 -1.5236
 2252TIP3   OH228170   6.789   2.290  15.488  0.1392  0.3716  0.3884
 2252TIP3    H128171   6.733   2.333  15.424 -0.2062  1.2267  1.2444
 2252TIP3    H228172   6.868   2.267  15.439 -1.3988 -2.0410 -1.1657
 2253TIP3   OH228173   0.866   5.931   5.372  0.2026 -0.1461  0.3089
 2253TIP3    H128174   0.806   5.865   5.407  1.3352 -1.7005 -0.5474
 2253TIP3    H228175   0.822   5.964   5.294 -2.0525  2.8885  2.6378
 2254TIP3   OH228176   3.299   1.326   2.865  0.5868  0.1334  0.0016
 2254TIP3    H128177   3.366   1.307   2.800 -1.2756  0.4129 -2.1208
 2254TIP3    H228178   3.222   1.350   2.814 -0.9863  0.3881  2.3339
 2255TIP3   OH228179   4.652   3.081   3.195 -0.7630  0.7159  0.0875
 2255TIP3    H128180   4.578   3.108   3.141  0.7746 -0.1042 -2.6715
 2255TIP3    H228181   4.628   3.106   3.284 -4.3416  0.4174 -0.6405
 2256TIP3   OH228182   1.476   5.566   2.222 -0.1143  0.0861 -0.3415
 2256TIP3    H128183   1.442   5.565   2.311 -2.4506  0.4927 -1.1700
 2256TIP3    H228184   1.398   5.571   2.166  1.2362 -0.8726 -2.4403
 2257TIP3   OH228185   1.315   6.661  10.461  0.6199  0.0672 -0.6718
 2257TIP3    H128186   1.286   6.750  10.441  0.7792  0.7276  1.7191
 2257TIP3    H228187   1.321   6.659  10.557  1.1726 -2.3547 -0.6995
 2258TIP3   OH228188   5.441   6.675  14.218  0.5761 -0.3367 -0.3311
 2258TIP3    H128189   5.454   6.664  14.123  0.2439 -0.6566 -0.3417
 2258TIP3    H228190   5.351   6.708  14.226  0.5322 -0.5108 -0.1134
 2259TIP3   OH228191   0.207   5.662   4.378  0.1914 -0.0659 -0.4629
 2259TIP3    H128192   0.236   5.752   4.364 -0.6214  0.2073 -0.4779
 2259TIP3    H228193   0.152   5.667   4.456  1.1577 -0.7852  0.2883
 2260TIP3   OH228194   5.523   4.448   5.202  0.5036  0.1129 -0.6705
 2260TIP3    H128195   5.459   4.378   5.186 -0.9005  1.6155 -1.9264
 2260TIP3    H228196   5.592   4.433   5.138  0.4185 -0.3584 -0.6545
 2261TIP3   OH228197   4.451   0.600   6.252 -0.2833 -0.1572  0.8207
 2261TIP3    H128198   4.499   0.560   6.179 -0.8481  1.6327 -0.6096
 2261TIP3    H228199   4.400   0.529   6.289 -0.1520 -1.0770 -0.6850
 2262TIP3   OH228200   5.446   4.362  11.609  0.1875  0.9438 -0.0175
 2262TIP3    H128201   5.534   4.387  11.638  0.2438  1.3925 -0.5547
 2262TIP3    H228202   5.453   4.356  11.514  0.8799 -3.7758  0.0915
 2263TIP3   OH228203   5.012   0.962  13.508 -0.0180 -0.0327 -1.0477
 2263TIP3    H128204   4.920   0.942  13.490 -0.1030 -0.0873 -0.5570
 2263TIP3    H228205   5.020   1.056  13.492 -0.6846  0.4293  1.0499
 2264TIP3   OH228206   5.506   6.127   0.744 -0.1405 -0.1367  0.2611
 2264TIP3    H128207   5.412   6.133   0.729 -0.1811 -1.4283 -0.0612
 2264TIP3    H228208   5.522   6.035   0.764  0.7449  0.4735  2.6227
 2265TIP3   OH228209   5.746   2.645   3.005 -0.1649  0.4653  0.1201
 2265TIP3    H128210   5.812   2.715   3.006 -0.0749  0.4980 -2.3139
 2265TIP3    H228211   5.676   2.680   2.950 -0.5590 -0.9720 -0.3235
 2266TIP3   OH228212   2.802   5.523  14.146  0.6905 -0.0964  0.1087
 2266TIP3    H128213   2.846   5.507  14.062 -1.3324 -1.2472 -0.8076
 2266TIP3    H228214   2.778   5.436  14.177 -1.2546  0.4978  0.3652
 2267TIP3   OH228215   0.635   5.094   3.738 -0.3731 -0.5589  0.0400
 2267TIP3    H128216   0.704   5.095   3.805 -0.2088 -0.0101 -0.1321
 2267TIP3    H228217   0.649   5.174   3.688 -1.3200 -0.2999  0.1820
 2268TIP3   OH228218   0.143   3.457  15.898  0.3234  0.9153  0.2431
 2268TIP3    H128219   0.071   3.502  15.853  0.0834  1.3346  1.0302
 2268TIP3    H228220   0.217   3.517  15.892  0.4181  0.7753  0.0135
 2269TIP3   OH228221   6.175   6.089  14.967  0.3617 -0.7128 -0.3422
 2269TIP3    H128222   6.193   6.073  14.875  0.3107 -0.9682 -0.3094
 2269TIP3    H228223   6.185   6.003  15.008  1.8257 -0.3416  0.1257
 2270TIP3   OH228224   3.698   6.301  15.739 -0.1528  0.1618  0.2239
 2270TIP3    H128225   3.640   6.227  15.718  1.1287 -0.4737 -1.3614
 2270TIP3    H228226   3.760   6.303  15.667  0.1834  2.5036  0.5108
 2271TIP3   OH228227   0.849   4.239   3.774  0.6965  0.0731  0.2954
 2271TIP3    H128228   0.840   4.293   3.695  0.9576  0.9271  0.8246
 2271TIP3    H228229   0.942   4.218   3.777  0.3651 -1.6761 -0.6940
 2272TIP3   OH228230   2.602   1.622   4.496  0.6262 -0.2007 -0.0745
 2272TIP3    H128231   2.569   1.560   4.560  0.7324  1.0271  1.2207
 2272TIP3    H228232   2.527   1.678   4.475  0.5068 -0.7785 -1.2950
 2273TIP3   OH228233   5.130   0.340  16.773  0.6653  0.2023 -0.0529
 2273TIP3    H128234   5.192   0.333  16.846  1.6023  1.8263 -0.6355
 2273TIP3    H228235   5.182   0.317  16.696  0.7204  2.0210 -0.6040
 2274TIP3   OH228236   1.590   1.471  15.337  0.1497 -0.0369  0.0381
 2274TIP3    H128237   1.640   1.531  15.282 -0.9759 -0.3614 -1.3905
 2274TIP3    H228238   1.615   1.495  15.426  1.5582  0.9185 -0.5689
 2275TIP3   OH228239   6.346   6.050  13.990  0.9249 -0.0694  0.4206
 2275TIP3    H128240   6.396   5.978  14.027  2.4742  0.5240 -0.4274
 2275TIP3    H228241   6.408   6.123  13.986 -0.5220  1.2424  0.9890
 2276TIP3   OH228242   0.597   2.497  17.053  0.3007 -0.1775 -0.3061
 2276TIP3    H128243   0.599   2.476  16.960 -1.0314 -2.4500  0.1039
 2276TIP3    H228244   0.634   2.420  17.096  1.2363  0.9804  1.0575
 2277TIP3   OH228245   6.009   3.943  13.719  0.2228 -0.8921  0.2898
 2277TIP3    H128246   5.994   4.002  13.793 -1.0428 -1.0650  0.2011
 2277TIP3    H228247   5.952   3.868  13.735  0.1077 -1.0466 -0.7327
 2278TIP3   OH228248   5.630   5.015  15.320 -0.1753 -0.4990 -0.1811
 2278TIP3    H128249   5.646   5.073  15.245 -1.0425 -0.1574 -0.1163
 2278TIP3    H228250   5.536   4.997  15.316 -0.1468 -0.8504  0.5646
 2279TIP3   OH228251   0.511   3.177  16.431  0.1260 -0.4518  0.2184
 2279TIP3    H128252   0.469   3.104  16.477  1.6242 -2.3566 -1.3020
 2279TIP3    H228253   0.475   3.174  16.342  0.7214  0.2531 -0.0610
 2280TIP3   OH228254   2.150   4.376   4.663 -0.0339 -0.3502 -0.3537
 2280TIP3    H128255   2.099   4.456   4.663  0.8608  0.2528 -1.4366
 2280TIP3    H228256   2.085   4.306   4.659 -0.8009  0.3759 -0.9796
 2281TIP3   OH228257   4.676   3.998   6.231 -0.3258  0.2726  0.3893
 2281TIP3    H128258   4.582   4.013   6.218 -0.0629  0.6858 -1.2333
 2281TIP3    H228259   4.707   4.079   6.272 -0.6214  0.2601  0.6410
 2282TIP3   OH228260   6.450   6.732  14.534 -0.0960 -0.3819 -0.2370
 2282TIP3    H128261   6.422   6.686  14.613  1.4715  0.8382  1.0904
 2282TIP3    H228262   6.473   6.663  14.472 -0.4196 -1.3549  0.7099
 2283TIP3   OH228263   5.912   4.944   2.310 -0.4792 -0.0334 -0.4022
 2283TIP3    H128264   5.904   5.025   2.360  0.3941  0.1835 -0.5927
 2283TIP3    H228265   5.825   4.904   2.314 -0.7585  0.6158  0.1955
 2284TIP3   OH228266   6.487   1.930  13.507 -0.1526  0.6726  0.6275
 2284TIP3    H128267   6.499   1.856  13.448 -0.9121  2.2165 -1.6074
 2284TIP3    H228268   6.466   1.891  13.592  1.1010 -1.6455 -0.0570
 2285TIP3   OH228269   5.160   5.658  12.005  0.2316 -0.2037  0.2424
 2285TIP3    H128270   5.114   5.669  12.088  0.7800  1.8531  0.3292
 2285TIP3    H228271   5.212   5.579  12.016 -0.5582 -0.5735  1.4399
 2286TIP3   OH228272   1.967   5.233  16.510  0.0415 -0.1305 -0.6113
 2286TIP3    H128273   1.966   5.208  16.417 -0.4620 -1.6850 -0.2121
 2286TIP3    H228274   1.886   5.284  16.521  0.3686  0.5171 -1.1284
 2287TIP3   OH228275   0.070   6.522   2.951  0.0019  0.2763 -0.4751
 2287TIP3    H128276   0.021   6.523   3.033  0.0615 -2.0500 -0.3408
 2287TIP3    H228277   0.004   6.527   2.883 -0.0557  2.0950 -0.3424
 2288TIP3   OH228278   6.177   4.715  14.961  0.3293 -0.1404 -0.2490
 2288TIP3    H128279   6.143   4.720  15.050 -0.8288  0.6471 -0.7088
 2288TIP3    H228280   6.100   4.698  14.907  1.0389 -0.7547 -1.0907
 2289TIP3   OH228281   4.283   4.270   0.324 -0.4042 -0.5039 -0.1802
 2289TIP3    H128282   4.338   4.348   0.315  0.5242 -1.1927 -0.5735
 2289TIP3    H228283   4.238   4.283   0.408  0.7682 -0.1806  0.4136
 2290TIP3   OH228284   4.795   3.710   0.502 -0.4742  0.0499  0.4950
 2290TIP3    H128285   4.733   3.696   0.574  0.3205  0.8632  1.3629
 2290TIP3    H228286   4.879   3.727   0.545  0.2230 -0.3292 -0.6459
 2291TIP3   OH228287   0.205   2.239  11.856 -0.1092 -0.7100 -0.1903
 2291TIP3    H128288   0.139   2.292  11.900  0.2282 -0.1584 -0.3434
 2291TIP3    H228289   0.277   2.300  11.837  0.6245 -1.3848  0.3387
 2292TIP3   OH228290   5.806   2.399   5.618  0.2763 -0.2720  0.5503
 2292TIP3    H128291   5.868   2.424   5.550 -1.2259 -1.1748 -1.2505
 2292TIP3    H228292   5.856   2.405   5.699  2.8527 -1.3597 -0.8301
 2293TIP3   OH228293   4.822   2.184   1.524 -0.4074 -0.3859 -0.3707
 2293TIP3    H128294   4.777   2.268   1.527 -0.5014 -0.4473  0.0488
 2293TIP3    H228295   4.843   2.170   1.431  0.6658  0.6603 -0.3032
 2294TIP3   OH228296   0.253   6.446  15.996  0.5631 -0.4370 -0.4062
 2294TIP3    H128297   0.285   6.537  15.989 -1.3724  0.1544 -2.3107
 2294TIP3    H228298   0.184   6.451  16.063  0.7045 -0.5917 -0.2481
 2295TIP3   OH228299   5.786   3.084   5.654  0.3338 -0.1677 -0.0262
 2295TIP3    H128300   5.820   3.140   5.724 -0.0101 -0.3860  0.3236
 2295TIP3    H228301   5.695   3.066   5.680  0.1242 -0.0397 -0.6655
 2296TIP3   OH228302   5.864   1.662  11.580 -0.1676 -0.5758 -0.1525
 2296TIP3    H128303   5.831   1.745  11.614 -0.6569 -1.0924  0.6713
 2296TIP3    H228304   5.866   1.673  11.485  2.2342  1.2843  0.0168
 2297TIP3   OH228305   1.024   4.626   5.044 -0.3134  0.1027  0.3704
 2297TIP3    H128306   1.077   4.689   5.092 -1.2906 -0.0413  1.6944
 2297TIP3    H228307   1.029   4.545   5.095 -1.0000 -0.1977 -0.0080
 2298TIP3   OH228308   2.470   1.344   5.251 -0.3537 -0.1871  0.0401
 2298TIP3    H128309   2.561   1.329   5.277 -0.7535 -2.4355  0.3497
 2298TIP3    H228310   2.428   1.380   5.329  0.5529  2.4157 -0.5716
 2299TIP3   OH228311   5.698   5.165   3.778  0.3538  0.1456 -0.0197
 2299TIP3    H128312   5.706   5.257   3.751  0.4949  0.2323  0.3205
 2299TIP3    H228313   5.787   5.139   3.801  0.2732 -0.0040  0.1230
 2300TIP3   OH228314   6.418   1.414   0.404  0.0832 -0.0198  0.1439
 2300TIP3    H128315   6.391   1.466   0.328  0.7263  1.3153  0.7982
 2300TIP3    H228316   6.501   1.374   0.377  0.5542  0.8275  0.2708
 2301TIP3   OH228317   6.543   5.877   3.523 -0.6218  0.0558  0.3104
 2301TIP3    H128318   6.529   5.812   3.454  0.4101  1.3029 -1.1604
 2301TIP3    H228319   6.463   5.929   3.524  0.1896  1.5283 -1.7387
 2302TIP3   OH228320   5.865   4.706  14.036  0.1494 -0.0147 -0.6133
 2302TIP3    H128321   5.871   4.648  14.112  1.1572 -0.6348 -1.1487
 2302TIP3    H228322   5.940   4.765  14.044  0.5884 -0.4492 -1.4080
 2303TIP3   OH228323   0.202   5.494   3.294 -0.5571  0.1457  0.3324
 2303TIP3    H128324   0.275   5.538   3.251 -0.8841 -0.0591 -0.4502
 2303TIP3    H228325   0.198   5.533   3.382 -0.0576  0.7708  0.0827
 2304TIP3   OH228326   2.293   1.089  17.049 -0.0943 -0.0286 -0.1744
 2304TIP3    H128327   2.253   1.042  17.123  1.5145 -1.0756  0.0760
 2304TIP3    H228328   2.367   1.135  17.088  0.2774  0.0833 -0.9967
 2305TIP3   OH228329   4.886   1.477   0.644 -0.4274 -0.9199 -0.0749
 2305TIP3    H128330   4.822   1.444   0.708 -0.1473 -0.0761  0.6582
 2305TIP3    H228331   4.858   1.566   0.625  2.0129  0.5815  2.4385
 2306TIP3   OH228332   1.572   1.282  12.478 -0.2625 -0.1434 -0.0699
 2306TIP3    H128333   1.594   1.268  12.570 -1.0780 -0.3870  0.0932
 2306TIP3    H228334   1.646   1.331  12.443  1.3343 -2.2831  0.0701
 2307TIP3   OH228335   2.227   0.855   3.524 -0.0288  0.2636  0.1521
 2307TIP3    H128336   2.196   0.786   3.465  0.8534  0.0557 -0.0832
 2307TIP3    H228337   2.321   0.839   3.532 -0.4690 -1.7097  4.1610
 2308TIP3   OH228338   6.454   5.338  14.254 -0.6480  0.6742  0.3831
 2308TIP3    H128339   6.501   5.341  14.338 -1.5502  1.2802  0.8833
 2308TIP3    H228340   6.457   5.246  14.228  1.7314  0.8409 -0.1506
 2309TIP3   OH228341   5.075   4.347  15.483 -0.4031 -0.1392  0.2357
 2309TIP3    H128342   5.080   4.440  15.459  0.0885  0.1181  1.2696
 2309TIP3    H228343   4.982   4.332  15.503 -0.2614  0.4995  1.4332
 2310TIP3   OH228344   2.230   1.732   2.117 -0.1104 -0.3837 -0.1954
 2310TIP3    H128345   2.297   1.665   2.134  2.1678  1.9451  0.6497
 2310TIP3    H228346   2.227   1.739   2.022  0.6200 -0.7142 -0.2491
 2311TIP3   OH228347   3.302   4.551  12.458  0.1648  0.3507 -0.2393
 2311TIP3    H128348   3.233   4.616  12.469 -1.6903 -1.0852 -2.2875
 2311TIP3    H228349   3.295   4.495  12.535  0.7553  1.6271  0.7752
 2312TIP3   OH228350   2.355   3.296  15.602 -0.4730  0.4693 -0.3109
 2312TIP3    H128351   2.294   3.234  15.562  0.2345 -0.5303  0.1163
 2312TIP3    H228352   2.363   3.367  15.538  1.2719 -1.4555 -2.4244
 2313TIP3   OH228353   6.135   1.588  12.274  0.2969 -0.5794 -0.4159
 2313TIP3    H128354   6.045   1.610  12.249  0.0695 -1.1986 -0.1468
 2313TIP3    H228355   6.183   1.671  12.265 -0.4528 -0.0735  0.1478
 2314TIP3   OH228356   1.318   0.715  14.956  0.1359 -0.0688  0.0374
 2314TIP3    H128357   1.302   0.710  15.051  0.3025  0.7387  0.1146
 2314TIP3    H228358   1.341   0.625  14.931 -1.0554 -0.5318  0.5447
 2315TIP3   OH228359   2.404   5.634   1.295  0.2971  0.1335 -0.1693
 2315TIP3    H128360   2.495   5.616   1.318  0.1680  0.5578  0.7009
 2315TIP3    H228361   2.364   5.667   1.375 -0.7451 -0.4657 -0.4087
 2316TIP3   OH228362   4.642   4.384  13.706 -0.3601 -0.1783 -0.1226
 2316TIP3    H128363   4.547   4.372  13.710 -0.5610  1.4128  0.9739
 2316TIP3    H228364   4.676   4.322  13.771 -0.9169  1.1634  1.5283
 2317TIP3   OH228365   0.642   1.181  12.339 -0.1399 -0.3350  0.1608
 2317TIP3    H128366   0.595   1.188  12.422 -0.9039  1.6116 -0.3741
 2317TIP3    H228367   0.580   1.216  12.274  0.5753 -1.4665 -1.1903
 2318TIP3   OH228368   4.456   4.509   4.380  1.2472  0.1732 -0.0424
 2318TIP3    H128369   4.550   4.498   4.370  1.2542  1.0327 -1.0899
 2318TIP3    H228370   4.427   4.428   4.422  2.4332 -0.1427  0.2084
 2319TIP3   OH228371   0.827   1.032   3.392 -0.5430 -0.0839  0.5976
 2319TIP3    H128372   0.803   1.087   3.318  1.3347 -2.1569 -1.7584
 2319TIP3    H228373   0.919   1.010   3.376 -0.2046 -1.0228  3.3346
 2320TIP3   OH228374   0.066   4.757   5.988 -0.6458  0.6557 -0.2688
 2320TIP3    H128375   0.075   4.831   5.928 -0.4945  0.7220 -0.1637
 2320TIP3    H228376  -0.022   4.723   5.971 -0.5139  0.5200 -0.7016
 2321TIP3   OH228377   2.532   5.139  14.097  0.3705  0.4059  0.4830
 2321TIP3    H128378   2.515   5.202  14.167  0.7767  0.6064  0.4045
 2321TIP3    H228379   2.550   5.057  14.142 -0.2932  0.3105  0.5817
 2322TIP3   OH228380   2.731   4.668  12.694 -0.1999 -0.1752  0.1584
 2322TIP3    H128381   2.811   4.719  12.679 -0.8745  0.9841  0.3216
 2322TIP3    H228382   2.748   4.583  12.654  0.6442  0.4830 -0.9374
 2323TIP3   OH228383   0.375   4.537   0.726 -0.4146  0.5533 -0.3866
 2323TIP3    H128384   0.467   4.563   0.733  0.2041 -0.5102 -3.0889
 2323TIP3    H228385   0.371   4.486   0.645 -3.2994  0.0675 -0.0489
 2324TIP3   OH228386   1.381   1.770   5.558 -0.0187  0.0820 -0.5445
 2324TIP3    H128387   1.444   1.719   5.506 -0.0076 -0.7165  0.2468
 2324TIP3    H228388   1.337   1.826   5.493  0.8353 -0.0327 -1.2416
 2325TIP3   OH228389   4.696   3.797  11.302  0.3620 -0.5140 -0.0627
 2325TIP3    H128390   4.732   3.873  11.257 -0.8272  1.0717  1.5764
 2325TIP3    H228391   4.773   3.744  11.323  1.4563  1.2167  0.5176
 2326TIP3   OH228392   0.616   6.074  14.902  0.5507 -0.2133  0.2037
 2326TIP3    H128393   0.625   5.979  14.911  0.8927 -0.3218 -1.0890
 2326TIP3    H228394   0.597   6.088  14.809  0.0027  0.9529  0.4718
 2327TIP3   OH228395   6.619   5.380   4.065 -0.1554 -0.3856 -0.2352
 2327TIP3    H128396   6.643   5.460   4.111 -0.5863 -0.9576  1.0462
 2327TIP3    H228397   6.583   5.323   4.134 -1.0655 -1.1828 -1.3298
 2328TIP3   OH228398   5.215   4.121  11.904  0.2333 -0.8932  0.0134
 2328TIP3    H128399   5.306   4.119  11.877  0.0981  1.6581 -0.8698
 2328TIP3    H228400   5.166   4.098  11.825  0.0793 -1.8738  0.3830
 2329TIP3   OH228401   1.355   0.266   3.141 -0.8802  0.0114  0.7856
 2329TIP3    H128402   1.345   0.273   3.046  0.5504  1.2958  0.6929
 2329TIP3    H228403   1.351   0.172   3.158  1.3259 -0.4634 -0.8720
 2330TIP3   OH228404   4.994   0.373   3.390 -0.0224  0.2826  0.2114
 2330TIP3    H128405   4.951   0.334   3.466  0.7018 -1.0935 -0.0389
 2330TIP3    H228406   5.057   0.306   3.362  1.8609  1.9695  0.2241
 2331TIP3   OH228407   1.590   2.019  10.574 -0.3740 -0.3134 -0.4288
 2331TIP3    H128408   1.520   1.975  10.623 -2.0783  1.7283 -0.8267
 2331TIP3    H228409   1.578   1.990  10.483  0.5886 -1.4832 -0.1893
 2332TIP3   OH228410   2.656   5.707   0.843  0.5231  0.7189 -0.4986
 2332TIP3    H128411   2.598   5.783   0.849 -0.1610  0.2852 -1.3593
 2332TIP3    H228412   2.625   5.649   0.913  0.1707  0.6649 -0.6940
 2333TIP3   OH228413   5.507   4.955  11.716 -0.0589 -0.2959  0.3430
 2333TIP3    H128414   5.600   4.976  11.712 -0.1540 -0.0138 -0.4293
 2333TIP3    H228415   5.499   4.898  11.793  0.3905  1.4962  1.7734
 2334TIP3   OH228416   4.621   5.787  14.509  0.1593 -0.1521 -0.2864
 2334TIP3    H128417   4.653   5.728  14.577  0.7256  1.5263  0.9737
 2334TIP3    H228418   4.696   5.797  14.450  1.0691  1.3976  1.0198
 2335TIP3   OH228419   2.434   5.820   3.687 -0.6159  0.3482 -0.3506
 2335TIP3    H128420   2.435   5.725   3.682  0.7720  0.3487 -0.5106
 2335TIP3    H228421   2.371   5.848   3.620  0.0791 -0.4151 -1.3493
 2336TIP3   OH228422   1.624   6.131   4.600  0.3125  0.1601  0.8304
 2336TIP3    H128423   1.553   6.068   4.612  0.8889 -0.9070 -1.0081
 2336TIP3    H228424   1.607   6.170   4.515  2.2269 -0.5348  0.0897
 2337TIP3   OH228425   3.743   6.700  16.224 -0.1557  0.9818  0.3603
 2337TIP3    H128426   3.677   6.749  16.274  0.1226  2.1214 -0.3564
 2337TIP3    H228427   3.696   6.670  16.146 -0.4473 -0.3294  1.0145
 2338TIP3   OH228428   6.301   6.639  14.810  0.6715  0.4842  0.1931
 2338TIP3    H128429   6.352   6.558  14.807 -1.3850 -0.9415  0.9542
 2338TIP3    H228430   6.259   6.637  14.896 -3.2105 -0.1927 -1.5078
 2339TIP3   OH228431   2.588   0.086  12.153 -0.2107  0.2981  0.2696
 2339TIP3    H128432   2.642   0.130  12.218 -0.2766 -0.0403  0.5531
 2339TIP3    H228433   2.583  -0.005  12.182  0.9884 -0.2187 -1.0026
 2340TIP3   OH228434   5.253   3.309  12.119 -0.0183 -0.0569  0.3559
 2340TIP3    H128435   5.238   3.392  12.073  1.2311  2.0311  3.3862
 2340TIP3    H228436   5.348   3.305  12.131  0.0165 -2.3320 -0.2863
 2341TIP3   OH228437   5.123   0.374  13.132 -0.1855 -0.1890  0.0193
 2341TIP3    H128438   5.140   0.399  13.042  0.6050  0.5374  0.3584
 2341TIP3    H228439   5.135   0.279  13.133  1.5493 -0.0111 -0.2903
 2342TIP3   OH228440   5.051   6.243  12.042 -0.1749 -0.1075 -0.4535
 2342TIP3    H128441   4.981   6.183  12.069  0.0790  0.0845  0.6667
 2342TIP3    H228442   5.095   6.197  11.970 -2.0716  0.2167 -1.8843
 2343TIP3   OH228443   5.705   3.848   3.827  0.0837  0.1642  1.1162
 2343TIP3    H128444   5.776   3.872   3.887  0.9410  0.7537 -0.0956
 2343TIP3    H228445   5.627   3.890   3.864  1.0756  2.7588  0.4414
 2344TIP3   OH228446   5.539   0.372  12.731 -0.3513  0.0292 -0.0298
 2344TIP3    H128447   5.635   0.375  12.737 -0.3407 -1.5309  1.2307
 2344TIP3    H228448   5.509   0.418  12.809 -0.6009 -0.4714  0.1722
 2345TIP3   OH228449   2.471   1.361   4.971  0.8918  0.1582 -0.5274
 2345TIP3    H128450   2.522   1.281   4.986  1.3794  0.2220 -1.7497
 2345TIP3    H228451   2.463   1.400   5.058 -1.3476 -2.3407  0.5477
 2346TIP3   OH228452   6.385   4.266   5.083  0.1009 -0.2629 -0.0869
 2346TIP3    H128453   6.433   4.287   5.164  0.2619 -1.4136  0.1380
 2346TIP3    H228454   6.451   4.273   5.014 -0.2732  1.7539 -0.2885
 2347TIP3   OH228455   4.090   1.779   2.173  0.4991 -0.2991 -0.1540
 2347TIP3    H128456   4.168   1.737   2.139  1.0855 -0.2166  1.0442
 2347TIP3    H228457   4.097   1.771   2.268 -1.1660 -0.6723 -0.0270
 2348TIP3   OH228458   1.644   3.587   0.689 -0.1943  0.3211 -0.1478
 2348TIP3    H128459   1.670   3.657   0.629  0.0621  2.0662  1.8893
 2348TIP3    H228460   1.563   3.552   0.652  2.0851 -1.7602 -3.8548
 2349TIP3   OH228461   3.098   6.115   1.118 -0.4763  0.2911  0.0167
 2349TIP3    H128462   3.062   6.115   1.207 -2.4710 -1.4693 -0.7092
 2349TIP3    H228463   3.117   6.024   1.099 -1.4415  0.4207 -1.8396
 2350TIP3   OH228464   5.817   3.821   5.750  0.6570  0.9792 -0.7454
 2350TIP3    H128465   5.732   3.865   5.745  0.7284  1.1960 -0.1313
 2350TIP3    H228466   5.877   3.889   5.780  0.6036  0.2532  1.0936
 2351TIP3   OH228467   1.421   0.386  13.362  0.0135  0.1880  0.0608
 2351TIP3    H128468   1.372   0.417  13.287 -1.1537  0.8108  1.0478
 2351TIP3    H228469   1.509   0.422  13.350  0.7845 -2.2659 -2.5594
 2352TIP3   OH228470   1.784   6.772   1.221  0.1013 -0.1586 -0.5183
 2352TIP3    H128471   1.844   6.844   1.238  1.7400 -0.7357 -3.1560
 2352TIP3    H228472   1.815   6.701   1.277 -0.0711  0.4737  0.3937
 2353TIP3   OH228473   1.907   5.350  16.951 -0.6149  0.1183 -0.1498
 2353TIP3    H128474   1.961   5.283  16.908 -1.6721  0.4354 -2.0633
 2353TIP3    H228475   1.963   5.427  16.954 -0.3428 -0.0616 -0.4980
 2354TIP3   OH228476   2.127   3.114   2.866  0.7890 -0.2676 -0.0320
 2354TIP3    H128477   2.077   3.043   2.906  0.9595  0.1042  0.8654
 2354TIP3    H228478   2.062   3.182   2.847  0.9617  0.4095  1.5629
 2355TIP3   OH228479   1.894   2.386   5.311  0.9575 -0.4899 -0.0192
 2355TIP3    H128480   1.839   2.441   5.367  2.5473 -0.1344  1.2661
 2355TIP3    H228481   1.903   2.437   5.230 -0.3187 -0.4198 -0.1396
 2356TIP3   OH228482   2.047   4.107   5.217 -0.0490  0.7878 -0.3854
 2356TIP3    H128483   2.101   4.185   5.225 -0.7992  1.1879  1.3684
 2356TIP3    H228484   2.015   4.091   5.306 -1.0424 -0.7049 -0.9632
 2357TIP3   OH228485   0.618   0.133  16.838  0.1445  0.3406  0.6030
 2357TIP3    H128486   0.698   0.179  16.861  0.0425 -0.5065  2.8724
 2357TIP3    H228487   0.645   0.070  16.771  1.2848  0.3671  1.0191
 2358TIP3   OH228488   6.423   1.932  10.706  0.2518 -0.1002  0.3759
 2358TIP3    H128489   6.420   1.903  10.797 -1.7552  0.0084  0.3886
 2358TIP3    H228490   6.427   1.850  10.655  0.7034 -0.1782  0.5279
 2359TIP3   OH228491   3.872   1.982  14.111  0.5576  0.2049 -0.4406
 2359TIP3    H128492   3.806   1.928  14.153  2.1568 -1.5327 -0.0486
 2359TIP3    H228493   3.839   2.071  14.120 -2.3893 -0.6664 -1.4904
 2360TIP3   OH228494   3.332   1.250  11.555 -0.2310  0.4994 -0.4950
 2360TIP3    H128495   3.291   1.326  11.514  0.1947  0.3899 -1.1477
 2360TIP3    H228496   3.418   1.245  11.514 -0.2506 -0.3329 -0.4470
 2361TIP3   OH228497   5.113   0.880  12.439 -0.0333  0.5032 -0.2227
 2361TIP3    H128498   5.197   0.877  12.484  0.4771 -1.2136 -1.2027
 2361TIP3    H228499   5.125   0.823  12.363 -1.9045  0.6828 -0.6859
 2362TIP3   OH228500   2.467   6.522  11.859 -0.3455 -0.4085  0.1719
 2362TIP3    H128501   2.435   6.612  11.855 -0.6979 -0.5065  0.7378
 2362TIP3    H228502   2.388   6.468  11.851 -0.0308 -0.6982 -1.3611
 2363TIP3   OH228503   3.468   0.325  16.412 -0.1008  0.0225  0.5179
 2363TIP3    H128504   3.536   0.372  16.366 -0.4430  0.0775  0.0629
 2363TIP3    H228505   3.504   0.310  16.500  0.9615 -0.9591 -0.0579
 2364TIP3   OH228506   0.850   2.192  10.649 -0.5061  0.0528  0.6807
 2364TIP3    H128507   0.939   2.160  10.665 -0.2343 -0.0817 -0.8677
 2364TIP3    H228508   0.861   2.286  10.634 -0.4095 -0.1539 -0.7231
 2365TIP3   OH228509   4.316   4.629  11.548 -0.3878 -0.3961 -0.5642
 2365TIP3    H128510   4.231   4.662  11.578 -0.6828 -0.2767 -1.5139
 2365TIP3    H228511   4.315   4.536  11.573 -1.0725 -0.5512 -1.1305
 2366TIP3   OH228512   1.105   4.307   4.506 -0.0679 -0.7267 -0.0442
 2366TIP3    H128513   1.019   4.277   4.534  0.3143 -2.0839 -0.2619
 2366TIP3    H228514   1.091   4.342   4.418 -0.3886 -0.9640 -0.0875
 2367TIP3   OH228515   1.944   4.056  12.600  0.9820  0.4145  0.2699
 2367TIP3    H128516   1.941   4.001  12.521 -1.1056  1.1698 -0.2332
 2367TIP3    H228517   1.926   3.996  12.672 -1.7272  0.3922 -0.3138
 2368TIP3   OH228518   4.213   0.834   2.284  0.2708  0.0736 -0.3187
 2368TIP3    H128519   4.238   0.747   2.316 -1.4844 -1.2692 -2.3644
 2368TIP3    H228520   4.280   0.855   2.220 -0.3317 -0.6844 -1.2255
 2369TIP3   OH228521   3.772   3.352  16.093  0.5858 -0.3130 -0.5036
 2369TIP3    H128522   3.835   3.281  16.089  2.1713  0.8226  1.8020
 2369TIP3    H228523   3.822   3.427  16.127 -2.0468  0.5104  1.9655
 2370TIP3   OH228524   5.446   4.078   5.489 -0.4434 -0.1362  0.1329
 2370TIP3    H128525   5.509   4.129   5.438  0.1236 -0.3684  0.5828
 2370TIP3    H228526   5.364   4.126   5.481 -0.8024 -1.0565 -2.3794
 2371TIP3   OH228527   1.533   1.281   3.575 -0.5108 -0.1512 -0.1797
 2371TIP3    H128528   1.604   1.326   3.528  0.0056 -1.4689 -0.7181
 2371TIP3    H228529   1.529   1.194   3.535 -0.3898 -1.1685  1.8755
 2372TIP3   OH228530   0.385   5.556   5.095  0.1354  0.4853  0.1875
 2372TIP3    H128531   0.341   5.641   5.090 -0.3755  0.2172  0.1052
 2372TIP3    H228532   0.319   5.493   5.067  0.0568 -0.0889  1.5958
 2373TIP3   OH228533   6.688   1.119  14.329  0.1026 -0.4757  0.3287
 2373TIP3    H128534   6.780   1.121  14.355  0.3487 -1.3152 -0.4043
 2373TIP3    H228535   6.667   1.026  14.323 -0.4998 -0.2982 -0.5048
 2374TIP3   OH228536   5.919   2.329   0.908  0.1811 -0.6629  0.1498
 2374TIP3    H128537   5.997   2.273   0.902  2.1856  1.9813 -0.4292
 2374TIP3    H228538   5.950   2.415   0.879 -3.3680  0.1775 -1.6916
 2375TIP3   OH228539   2.452   1.752  13.123 -0.1187 -0.0402  0.0658
 2375TIP3    H128540   2.371   1.751  13.174  0.3806  0.2412  0.8864
 2375TIP3    H228541   2.438   1.821  13.058 -1.4761 -1.6347 -1.4152
 2376TIP3   OH228542   0.982   3.815   4.938  0.2136  0.0688  0.2521
 2376TIP3    H128543   1.024   3.887   4.986  0.7000 -0.7139  1.0401
 2376TIP3    H228544   1.039   3.739   4.954  1.4791  0.1335 -3.1379
 2377TIP3   OH228545   6.111   5.860   1.530  0.2363  0.1220  0.1081
 2377TIP3    H128546   6.187   5.838   1.584 -0.8360 -0.1341  1.5555
 2377TIP3    H228547   6.064   5.777   1.520  0.0219  0.3257 -0.5880
 2378TIP3   OH228548   3.394   6.563  15.645  0.0336 -0.2515 -0.3063
 2378TIP3    H128549   3.343   6.508  15.586 -2.0026  3.1818 -2.0541
 2378TIP3    H228550   3.349   6.558  15.729 -2.4697  1.4623 -1.4118
 2379TIP3   OH228551   3.678   0.830  14.973  0.1181  0.1427  0.4751
 2379TIP3    H128552   3.761   0.873  14.953  0.5614 -0.2900  1.3822
 2379TIP3    H228553   3.687   0.742  14.937  0.1899 -0.0232  0.9029
 2380TIP3   OH228554   1.438   6.341  15.200  0.0817  0.3868  0.2121
 2380TIP3    H128555   1.434   6.246  15.213 -1.1491  0.6758  2.4352
 2380TIP3    H228556   1.448   6.352  15.105 -2.1029 -1.9300 -0.3974
 2381TIP3   OH228557   4.433   2.820   3.737  0.5555 -0.3750  0.4524
 2381TIP3    H128558   4.519   2.862   3.739  0.5006 -0.2402  2.7203
 2381TIP3    H228559   4.372   2.891   3.717  0.8758 -0.3226 -0.3832
 2382TIP3   OH228560   2.011   5.673   0.018 -0.1995 -0.2979  0.0398
 2382TIP3    H128561   1.969   5.615  -0.045  0.2148 -0.3245 -0.2121
 2382TIP3    H228562   2.092   5.700  -0.024  0.7465 -1.3857  1.1019
 2383TIP3   OH228563   5.302   3.354  11.064  0.0413  0.0511 -0.1617
 2383TIP3    H128564   5.356   3.399  11.000  0.4737 -0.6763 -0.3248
 2383TIP3    H228565   5.216   3.345  11.022 -0.1944  1.1419  0.0679
 2384TIP3   OH228566   5.012   3.436  11.235 -0.1860  0.6956  0.0513
 2384TIP3    H128567   5.082   3.473  11.181  0.1957  0.5487  0.4427
 2384TIP3    H228568   4.942   3.417  11.172  0.6348 -0.4252 -0.5591
 2385TIP3   OH228569   4.212   6.734  14.654 -0.9922  0.0115 -0.3318
 2385TIP3    H128570   4.261   6.715  14.574  0.8061  0.7790  0.5358
 2385TIP3    H228571   4.246   6.818  14.684 -0.2967 -1.0637  2.1721
 2386TIP3   OH228572   5.864   1.791  15.649  0.5266 -0.1475  0.1338
 2386TIP3    H128573   5.950   1.805  15.609  0.6575 -0.2218  0.3878
 2386TIP3    H228574   5.812   1.867  15.623  0.5924 -0.2252 -0.2285
 2387TIP3   OH228575   4.779   5.475  13.443 -0.3734 -0.3468 -0.3749
 2387TIP3    H128576   4.762   5.534  13.515 -1.1335 -1.2407  0.1941
 2387TIP3    H228577   4.761   5.388  13.478  0.8610 -0.9426 -1.1441
 2388TIP3   OH228578   6.675   2.584  10.728 -0.1852 -0.1179  1.0101
 2388TIP3    H128579   6.697   2.502  10.683 -0.9752  0.2824 -0.1678
 2388TIP3    H228580   6.581   2.577  10.744 -0.0347  0.0521  2.0103
 2389TIP3   OH228581   4.668   3.645  16.180  0.1358  0.1639 -0.4352
 2389TIP3    H128582   4.641   3.726  16.223 -1.1877 -0.6883  0.4386
 2389TIP3    H228583   4.732   3.606  16.240 -0.0671  0.0300 -0.3047
 2390TIP3   OH228584   0.389   0.894  13.856  0.1373 -0.8052  0.2795
 2390TIP3    H128585   0.337   0.975  13.854  2.1817  0.6196 -2.4133
 2390TIP3    H228586   0.454   0.908  13.924  0.5567 -0.0650 -0.2559
 2391TIP3   OH228587   3.457   2.099   5.607  0.5094 -0.7468 -0.0186
 2391TIP3    H128588   3.540   2.071   5.570  1.0630 -2.2303  2.1777
 2391TIP3    H228589   3.402   2.021   5.605 -0.9373  0.2395 -1.5556
 2392TIP3   OH228590   0.809   1.050  16.947 -0.5078 -0.0115  0.4601
 2392TIP3    H128591   0.770   1.009  17.024 -1.9262  0.4565  0.0272
 2392TIP3    H228592   0.755   1.127  16.931  0.5191  0.5839 -0.2877
 2393TIP3   OH228593   4.941   4.070  15.617  0.5215  0.2799 -0.4576
 2393TIP3    H128594   4.875   4.029  15.673 -0.0931  1.9372  0.0831
 2393TIP3    H228595   4.891   4.109  15.545  0.9178  1.3196 -0.1825
 2394TIP3   OH228596   0.985   2.782   3.414 -0.0123 -0.5232 -0.6594
 2394TIP3    H128597   1.025   2.836   3.482 -0.1020 -0.7385 -0.4306
 2394TIP3    H228598   0.974   2.696   3.456 -1.7452 -0.1845 -0.3196
 2395TIP3   OH228599   6.585   3.579   2.414  0.1972  0.0597  0.3411
 2395TIP3    H128600   6.553   3.521   2.482  1.3750 -0.0325  0.8435
 2395TIP3    H228601   6.558   3.537   2.332  1.7686 -1.6857  0.6557
 2396TIP3   OH228602   2.975   0.979  13.075 -0.4357  0.2429  0.3121
 2396TIP3    H128603   2.954   1.062  13.033 -0.3373  0.8946  1.5030
 2396TIP3    H228604   3.062   0.956  13.040  0.0914  1.2834  0.8926
 2397TIP3   OH228605   5.823   6.239   5.771 -0.7097 -0.3011 -0.1243
 2397TIP3    H128606   5.813   6.302   5.842 -1.9634  0.6336 -1.1026
 2397TIP3    H228607   5.914   6.250   5.742 -0.6472  0.3864  0.3152
 2398TIP3   OH228608   4.478   0.135  12.951  0.7937  0.4163  0.5956
 2398TIP3    H128609   4.463   0.136  12.856 -0.6248  0.0438  0.7923
 2398TIP3    H228610   4.480   0.041  12.973  0.0679  0.5031  1.0688
 2399TIP3   OH228611   3.455   0.773  14.740 -0.4030  0.3944 -0.9066
 2399TIP3    H128612   3.507   0.705  14.782 -0.5391  0.9589  0.2187
 2399TIP3    H228613   3.520   0.828  14.695 -0.0977  0.6011 -0.2307
 2400TIP3   OH228614   2.405   2.028  12.915  0.4639 -0.0341 -0.5392
 2400TIP3    H128615   2.436   2.051  12.827 -1.1486  0.9165 -0.9067
 2400TIP3    H228616   2.466   2.074  12.974  1.1025 -0.0520 -1.1719
 2401TIP3   OH228617   1.928   5.663  14.593  0.4895  0.0265 -0.0358
 2401TIP3    H128618   1.864   5.670  14.663  1.1683  1.9003  0.4562
 2401TIP3    H228619   2.006   5.625  14.634  0.2947 -0.5592 -0.2052
 2402TIP3   OH228620   5.352   4.830  14.939 -0.2589  0.0720 -0.1767
 2402TIP3    H128621   5.297   4.852  15.015  0.8939 -0.6438  0.8995
 2402TIP3    H228622   5.433   4.878  14.953 -0.6734  1.3741 -1.9173
 2403TIP3   OH228623   0.938   6.166  15.964  0.0774 -0.5861 -0.0599
 2403TIP3    H128624   0.904   6.079  15.982  0.0505 -0.4601  0.5103
 2403TIP3    H228625   0.918   6.217  16.043  2.8653 -0.8825  0.9596
 2404TIP3   OH228626   4.019   0.957   3.414  0.1462  0.1646 -0.5870
 2404TIP3    H128627   4.078   0.884   3.396  0.2834 -0.6052  2.4289
 2404TIP3    H228628   4.071   1.018   3.466 -0.4356  1.6858 -1.7282
 2405TIP3   OH228629   2.852   2.692   1.666 -0.3081  0.2272  0.5348
 2405TIP3    H128630   2.856   2.743   1.585  0.8102  0.0322  0.4456
 2405TIP3    H228631   2.829   2.756   1.734  0.4218  0.7372  0.3170
 2406TIP3   OH228632   5.209   5.046  15.535 -0.0337 -0.7201  0.5804
 2406TIP3    H128633   5.122   5.011  15.515  0.3466 -1.9267  0.9309
 2406TIP3    H228634   5.218   5.033  15.629  0.4823 -0.4941  0.5632
 2407TIP3   OH228635   0.216   1.184   2.295  0.2803  0.1810  0.4447
 2407TIP3    H128636   0.129   1.192   2.334  0.1339 -1.5977  0.5706
 2407TIP3    H228637   0.266   1.134   2.359  0.9593 -0.0859 -0.2778
 2408TIP3   OH228638   1.160   5.915  15.964  0.0477 -0.3381  0.3753
 2408TIP3    H128639   1.241   5.928  15.915 -0.3420 -1.6999 -0.7085
 2408TIP3    H228640   1.160   5.985  16.030  2.3921 -0.6679  0.8241
 2409TIP3   OH228641   5.993   5.311   5.191  0.1374 -0.6117  0.1564
 2409TIP3    H128642   5.926   5.246   5.209 -1.1143  0.3786 -0.7446
 2409TIP3    H228643   6.010   5.353   5.275 -0.1354 -1.0785  0.4451
 2410TIP3   OH228644   6.154   4.427   2.158  0.1823 -0.1143  0.1486
 2410TIP3    H128645   6.200   4.384   2.230  0.5321  1.5293  0.9746
 2410TIP3    H228646   6.069   4.383   2.154 -0.2351  0.3870  2.2650
 2411TIP3   OH228647   4.177   6.648   2.598 -0.1210 -0.4173  0.5091
 2411TIP3    H128648   4.108   6.713   2.587  0.1719 -0.1474  0.2587
 2411TIP3    H228649   4.259   6.697   2.588  0.1190 -0.6556  1.2183
 2412TIP3   OH228650   4.579   0.512   2.944 -0.0690  0.3984 -0.0412
 2412TIP3    H128651   4.597   0.604   2.922  0.9597  0.2477  0.1093
 2412TIP3    H228652   4.666   0.472   2.949 -0.5509 -1.2548 -2.9341
 2413TIP3   OH228653   5.085   0.782  15.722  0.4754 -0.2974 -0.7898
 2413TIP3    H128654   5.141   0.785  15.799  1.0591 -0.2352 -1.2052
 2413TIP3    H228655   5.138   0.736  15.656 -0.2793 -0.9771 -0.9442
 2414TIP3   OH228656   6.244   3.128  13.557 -0.1272 -0.1720 -0.5302
 2414TIP3    H128657   6.276   3.124  13.467  0.4447 -1.9328 -0.2735
 2414TIP3    H228658   6.323   3.136  13.610 -0.2858 -1.5556 -0.0645
 2415TIP3   OH228659   4.570   1.953  16.800 -0.4089  0.0458  0.0502
 2415TIP3    H128660   4.505   1.885  16.820 -2.1779  2.0169  1.5226
 2415TIP3    H228661   4.525   2.012  16.739  0.9376  0.1670 -0.8739
 2416TIP3   OH228662   5.510   3.213  10.383 -0.0912 -0.3344 -0.0258
 2416TIP3    H128663   5.518   3.206  10.288 -1.9182 -0.0589 -0.2388
 2416TIP3    H228664   5.546   3.131  10.416  0.9738 -0.2463 -0.9182
 2417TIP3   OH228665   3.084   0.161   1.313 -0.1176 -0.2893 -0.2323
 2417TIP3    H128666   3.156   0.117   1.359 -0.0766 -1.0825 -1.0168
 2417TIP3    H228667   3.105   0.254   1.319  1.1322 -0.5168 -0.6751
 2418TIP3   OH228668   0.317   0.342   4.480  0.5844 -0.5403 -0.3668
 2418TIP3    H128669   0.240   0.339   4.424 -0.6868 -2.4524  1.3403
 2418TIP3    H228670   0.380   0.283   4.439  0.8574  0.3648 -1.3031
 2419TIP3   OH228671   0.547   5.509   0.553  0.3981  0.4319 -0.0269
 2419TIP3    H128672   0.507   5.584   0.595  0.5533 -0.8290  2.5588
 2419TIP3    H228673   0.514   5.433   0.601 -0.0838 -1.2579 -2.7744
 2420TIP3   OH228674   4.141   6.618  17.229 -0.1509  0.1022  0.1400
 2420TIP3    H128675   4.127   6.528  17.200 -1.1368 -0.0022  0.8952
 2420TIP3    H228676   4.099   6.622  17.315  0.6390  1.0486  0.4925
 2421TIP3   OH228677   5.694   0.101  16.331  0.5214 -0.1143  0.4215
 2421TIP3    H128678   5.695   0.185  16.377 -0.4370 -0.7317  1.6618
 2421TIP3    H228679   5.671   0.123  16.241  3.3581  1.2324 -0.0537
 2422TIP3   OH228680   2.974   4.450  13.617  0.1149  0.6857  0.0534
 2422TIP3    H128681   2.959   4.544  13.628 -2.4744  0.3788 -0.3542
 2422TIP3    H228682   2.931   4.428  13.534  0.8051 -0.8508  0.0603
 2423TIP3   OH228683   1.413   6.762  10.718 -0.2256 -1.2348 -0.4394
 2423TIP3    H128684   1.501   6.724  10.716  0.8258  1.0236 -2.0616
 2423TIP3    H228685   1.427   6.852  10.750 -1.7967 -0.5275 -1.5917
 2424TIP3   OH228686   5.001   5.945   3.462 -0.3417  0.0724  0.4197
 2424TIP3    H128687   5.037   5.858   3.447 -0.3957 -0.0562  1.0094
 2424TIP3    H228688   5.077   5.999   3.482 -0.3035  0.1757  0.0099
 2425TIP3   OH228689   1.440   2.702  13.273  0.5746 -0.0208  0.0701
 2425TIP3    H128690   1.375   2.656  13.220  1.1332  0.2673 -0.8730
 2425TIP3    H228691   1.474   2.634  13.332  0.1254 -0.3971 -0.0927
 2426TIP3   OH228692   1.496   1.149  11.398  0.0610 -0.1684  0.2743
 2426TIP3    H128693   1.551   1.161  11.476 -0.4942  0.6792  0.5582
 2426TIP3    H228694   1.451   1.066  11.413  1.0832 -0.7629  0.1409
 2427TIP3   OH228695   2.324   2.976  16.088  0.0131  0.2967 -0.1856
 2427TIP3    H128696   2.410   3.001  16.053 -0.1683 -1.3732 -2.0286
 2427TIP3    H228697   2.331   2.882  16.103 -0.9926  0.4291  1.2724
 2428TIP3   OH228698   3.579   2.941  16.768 -0.3023  0.6250 -0.4183
 2428TIP3    H128699   3.525   2.923  16.691 -1.2836 -1.0563  0.6058
 2428TIP3    H228700   3.530   3.008  16.816 -0.1090  1.0611 -0.8230
 2429TIP3   OH228701   2.391   0.814   4.722 -0.6866 -0.0906  0.1523
 2429TIP3    H128702   2.324   0.753   4.752 -0.2847 -0.6235 -0.0190
 2429TIP3    H228703   2.373   0.826   4.628 -1.0775  0.4627  0.2922
 2430TIP3   OH228704   4.495   0.850  13.210 -0.2415  0.2846 -0.5196
 2430TIP3    H128705   4.497   0.835  13.305 -0.0441  0.2266 -0.5327
 2430TIP3    H228706   4.585   0.871  13.187 -0.3508  0.6221 -0.6446
 2431TIP3   OH228707   5.460   6.728   4.683  0.2215  0.0454 -0.1128
 2431TIP3    H128708   5.498   6.811   4.655  0.0381 -0.7080 -2.8248
 2431TIP3    H228709   5.531   6.664   4.675 -0.7492 -0.8400 -2.4623
 2432TIP3   OH228710   3.070   2.791  16.728 -0.8890  0.3812  0.2916
 2432TIP3    H128711   3.087   2.843  16.649  1.7478  0.6033  0.9046
 2432TIP3    H228712   3.084   2.700  16.699 -1.4854  0.3279  0.1581
 2433TIP3   OH228713   6.391   2.860   1.410  0.2255 -0.4154 -0.2015
 2433TIP3    H128714   6.450   2.877   1.483 -0.8905  0.2869  0.5598
 2433TIP3    H228715   6.399   2.937   1.354 -0.5221  0.0332  0.2946
 2434TIP3   OH228716   3.203   4.507   3.217 -0.4174  0.0840 -0.0458
 2434TIP3    H128717   3.270   4.476   3.278 -1.4666  0.5115  1.3809
 2434TIP3    H228718   3.252   4.555   3.151  0.8608 -1.3133 -0.1653
 2435TIP3   OH228719   6.755   4.193   3.852  0.3520  0.0464  0.3432
 2435TIP3    H128720   6.784   4.137   3.779 -1.3824 -1.3201  0.6483
 2435TIP3    H228721   6.789   4.280   3.830 -0.8479 -0.1199 -2.5828
 2436TIP3   OH228722   2.196   1.502   0.483 -0.2759 -0.5666 -0.2793
 2436TIP3    H128723   2.243   1.419   0.487  0.7316  0.0016  0.1704
 2436TIP3    H228724   2.122   1.485   0.425 -0.9699 -2.1995  1.0233
 2437TIP3   OH228725   3.013   1.539   5.985  0.0085 -0.3026  0.1450
 2437TIP3    H128726   3.031   1.467   6.045  0.1053 -1.0366 -0.7514
 2437TIP3    H228727   3.056   1.615   6.025  0.9135 -0.9925  0.5117
 2438TIP3   OH228728   0.738   1.379  17.177 -0.3321 -0.0329  0.3816
 2438TIP3    H128729   0.703   1.356  17.091  1.1923  0.6382 -0.4513
 2438TIP3    H228730   0.732   1.475  17.180  0.6379  0.0330  0.5496
 2439TIP3   OH228731   6.756   0.919   6.470 -0.7494  0.7266  0.3542
 2439TIP3    H128732   6.762   0.974   6.391 -0.1123  0.8480  0.4785
 2439TIP3    H228733   6.825   0.953   6.527  0.4789 -0.9749 -0.0417
 2440TIP3   OH228734   2.055   4.966  17.214  0.1298 -0.5676 -0.1751
 2440TIP3    H128735   2.141   5.000  17.240 -0.3962  1.8095 -1.3307
 2440TIP3    H228736   2.075   4.891  17.158  1.5037  0.2707 -0.8743
 2441TIP3   OH228737   4.971   3.069  11.523 -0.0698 -0.0092  0.5038
 2441TIP3    H128738   4.958   3.039  11.613 -0.6941 -0.9958  0.1053
 2441TIP3    H228739   4.912   3.014  11.470  1.1357 -0.2636 -0.6367
 2442TIP3   OH228740   5.668   1.195   7.008  0.0508  0.1170 -0.2646
 2442TIP3    H128741   5.698   1.252   6.937  0.8050  0.5523  0.3773
 2442TIP3    H228742   5.661   1.254   7.084 -2.0842 -0.0514 -0.2836
 2443TIP3   OH228743   1.275   3.257   2.494  0.3509  0.8627  0.2303
 2443TIP3    H128744   1.206   3.323   2.494  0.2460  0.7587 -0.3088
 2443TIP3    H228745   1.228   3.174   2.501  0.4140  0.7894 -0.1859
 2444TIP3   OH228746   3.606   6.644   4.723  0.4604 -0.3770 -0.0093
 2444TIP3    H128747   3.684   6.604   4.685  0.7132  0.3002 -0.2053
 2444TIP3    H228748   3.565   6.690   4.650  0.8835  0.8305  0.4877
 2445TIP3   OH228749   1.938   0.685   6.255  0.0823  0.1761 -0.2653
 2445TIP3    H128750   2.013   0.744   6.242  1.2372 -1.4289 -1.2654
 2445TIP3    H228751   1.971   0.616   6.313 -1.2739  0.5118  0.9684
 2446TIP3   OH228752   6.046   2.516   0.508  0.2500  0.3668 -0.6424
 2446TIP3    H128753   6.125   2.493   0.459 -0.0243  0.0536 -0.9433
 2446TIP3    H228754   5.974   2.488   0.452 -0.0862  1.1389 -0.6079
 2447TIP3   OH228755   5.491   4.337  11.347  0.2249  0.0078 -0.1757
 2447TIP3    H128756   5.586   4.330  11.352  0.3623  1.8709  0.4564
 2447TIP3    H228757   5.472   4.343  11.254  0.7150 -0.3235 -0.3043
 2448TIP3   OH228758   5.494   5.433  14.807 -0.3389  0.0788 -0.1420
 2448TIP3    H128759   5.478   5.524  14.828 -1.2341  0.1129 -0.9031
 2448TIP3    H228760   5.511   5.432  14.713  0.1173 -0.4859 -0.0654
 2449TIP3   OH228761   1.550   3.781  14.677 -0.1806 -0.0995  0.0135
 2449TIP3    H128762   1.567   3.696  14.637 -0.0525  0.0904 -0.3478
 2449TIP3    H228763   1.605   3.783  14.755 -0.0885 -0.3019 -0.0456
 2450TIP3   OH228764   4.736   5.448   5.103  0.3085 -0.1944  0.1943
 2450TIP3    H128765   4.718   5.535   5.068  1.8936  0.6710  1.3667
 2450TIP3    H228766   4.668   5.435   5.170  1.3772  1.1998  1.6414
 2451TIP3   OH228767   5.592   3.132  13.319  0.0013 -0.1692  0.5235
 2451TIP3    H128768   5.653   3.061  13.340 -0.9003 -1.1848 -0.2341
 2451TIP3    H228769   5.649   3.209  13.308  0.8400 -0.2502  3.3544
 2452TIP3   OH228770   3.234   3.348   2.218 -0.3067 -0.1330 -0.2371
 2452TIP3    H128771   3.248   3.346   2.123 -1.6969  0.0441 -0.4668
 2452TIP3    H228772   3.192   3.432   2.235  0.5389  0.1324  0.6490
 2453TIP3   OH228773   0.972   1.554  14.054 -0.2750  0.0474  0.3140
 2453TIP3    H128774   0.924   1.599  13.985 -1.2730 -0.2977  0.7660
 2453TIP3    H228775   1.006   1.475  14.011 -1.4378 -0.5013  0.3443
 2454TIP3   OH228776   4.056   1.372   4.026 -0.0824  0.2943 -0.7230
 2454TIP3    H128777   4.140   1.327   4.024 -0.0680  0.2077  0.6189
 2454TIP3    H228778   3.993   1.307   3.994  0.3344  0.3285 -1.6381
 2455TIP3   OH228779   0.107   0.757  14.846 -0.3314  0.3804 -0.2839
 2455TIP3    H128780   0.098   0.852  14.845 -1.0674  0.3159 -0.4139
 2455TIP3    H228781   0.057   0.727  14.769 -2.8425 -0.3171  1.4880
 2456TIP3   OH228782   5.149   0.074   5.723  0.2588  0.6127  0.7087
 2456TIP3    H128783   5.113   0.017   5.656 -0.7663  0.6337  1.2232
 2456TIP3    H228784   5.222   0.119   5.680  1.1428 -1.1140  0.3202
 2457TIP3   OH228785   4.249   3.551  13.750  0.3414 -0.4272 -0.2960
 2457TIP3    H128786   4.175   3.491  13.762  0.3989 -0.2160  1.2519
 2457TIP3    H228787   4.326   3.497  13.764  0.4479 -0.3494 -0.5732
 2458TIP3   OH228788   4.827   6.351  13.818  0.2062  0.3470 -0.3058
 2458TIP3    H128789   4.767   6.408  13.866 -1.1911 -0.7449 -0.7105
 2458TIP3    H228790   4.914   6.383  13.842 -0.5124  1.8378  0.4505
 2459TIP3   OH228791   2.098   0.412  14.375  0.0431 -0.1503 -0.2115
 2459TIP3    H128792   2.073   0.445  14.460 -0.6592  1.6398 -1.0711
 2459TIP3    H228793   2.194   0.406  14.378  0.1940  1.9142  0.0334
 2460TIP3   OH228794   1.973   3.525   3.206  0.5146  0.0707 -0.3310
 2460TIP3    H128795   1.938   3.545   3.119 -0.0220 -2.6807 -0.8429
 2460TIP3    H228796   2.049   3.468   3.189 -0.1281 -1.2603  0.9671
 2461TIP3   OH228797   4.783   0.331   1.537 -0.3172 -0.1114 -0.2356
 2461TIP3    H128798   4.874   0.342   1.564  0.2147 -1.3868 -1.3838
 2461TIP3    H228799   4.741   0.289   1.612  0.1804 -0.0797  0.0693
 2462TIP3   OH228800   5.882   2.663  11.738 -0.1972 -0.3201  0.0228
 2462TIP3    H128801   5.830   2.742  11.726  1.0180  0.3778 -0.9250
 2462TIP3    H228802   5.819   2.591  11.732 -1.2208  0.5361  0.1932
 2463TIP3   OH228803   3.089   0.973  11.018  0.7180 -0.3285 -0.0342
 2463TIP3    H128804   3.097   1.019  11.101  1.7869 -1.1085  0.3243
 2463TIP3    H228805   3.046   1.035  10.960 -1.1377 -0.1865  1.3965
 2464TIP3   OH228806   5.935   6.175   3.494 -0.1753  0.1599  0.1910
 2464TIP3    H128807   5.881   6.211   3.564 -0.4981 -0.5911  0.3437
 2464TIP3    H228808   5.964   6.251   3.444  0.7936  0.7837  1.6493
 2465TIP3   OH228809   4.591   4.854  14.982 -0.4313 -0.2820  0.1776
 2465TIP3    H128810   4.657   4.793  14.949  0.1395 -0.0787  0.9222
 2465TIP3    H228811   4.606   4.935  14.932 -0.8832 -0.5868 -0.4748
 2466TIP3   OH228812   5.567   4.904  12.392  0.2288 -0.6012 -0.0013
 2466TIP3    H128813   5.496   4.840  12.392  1.6634 -2.3224  1.1542
 2466TIP3    H228814   5.625   4.874  12.322  1.0909 -0.8265  0.7806
 2467TIP3   OH228815   1.349   2.559  12.178  0.2197 -0.9606  0.2315
 2467TIP3    H128816   1.371   2.649  12.154 -0.5843 -1.0903 -1.1530
 2467TIP3    H228817   1.404   2.539  12.253  1.3944  0.2256 -0.2800
 2468TIP3   OH228818   2.046   2.805   5.094 -0.1300  0.7769  0.1182
 2468TIP3    H128819   2.047   2.838   5.184 -1.5550 -1.6093  1.0966
 2468TIP3    H228820   2.016   2.714   5.101  2.9965 -0.6473 -2.4512
 2469TIP3   OH228821   4.766   2.992  13.973  0.4799  0.5087  0.1052
 2469TIP3    H128822   4.708   2.917  13.963  2.2541 -0.6964 -1.7077
 2469TIP3    H228823   4.853   2.955  13.982  1.2701  2.3427  0.5953
 2470TIP3   OH228824   6.144   3.526  16.388  0.4516  0.4652  0.2428
 2470TIP3    H128825   6.171   3.566  16.305 -0.5978  0.8158  0.0495
 2470TIP3    H228826   6.180   3.584  16.455 -1.2982  2.0165 -0.0362
 2471TIP3   OH228827   1.627   1.232   2.484  0.7978 -0.2421  0.6671
 2471TIP3    H128828   1.565   1.163   2.507  0.9083 -1.4056 -2.1613
 2471TIP3    H228829   1.580   1.287   2.421  1.9842 -0.0606 -0.1081
 2472TIP3   OH228830   4.829   6.097  16.501  0.0380  0.4199 -0.3649
 2472TIP3    H128831   4.821   6.185  16.464 -0.4501  1.3432  1.7802
 2472TIP3    H228832   4.899   6.104  16.566 -0.2676 -0.6710  0.1041
 2473TIP3   OH228833   1.723   3.812   5.133 -0.1069  0.0509  0.8855
 2473TIP3    H128834   1.675   3.867   5.072 -0.6603 -0.4268  0.8806
 2473TIP3    H228835   1.707   3.852   5.219  0.5273  0.6192  0.7496
 2474TIP3   OH228836   4.833   6.724  13.157 -0.0121  0.0165  0.3099
 2474TIP3    H128837   4.803   6.812  13.132 -2.3078 -0.2177  1.9676
 2474TIP3    H228838   4.845   6.678  13.074 -1.0690  1.1875 -0.5232
 2475TIP3   OH228839   4.749   4.914  17.147  0.4819 -0.4411  0.2340
 2475TIP3    H128840   4.676   4.883  17.200 -0.5664  0.1016 -0.8433
 2475TIP3    H228841   4.710   4.933  17.061  2.1086 -1.2522 -0.7380
 2476TIP3   OH228842   1.834   2.292  16.259  0.0479 -0.5963  0.0380
 2476TIP3    H128843   1.865   2.383  16.258  1.5220 -1.0800  0.2955
 2476TIP3    H228844   1.751   2.297  16.308  0.1455  0.5949  0.1256
 2477TIP3   OH228845   2.017   1.228  11.974  0.3998 -0.4571 -0.1922
 2477TIP3    H128846   2.010   1.224  11.879 -0.4039 -1.8029 -0.0926
 2477TIP3    H228847   1.985   1.316  11.997 -0.4135 -0.5076 -1.0783
 2478TIP3   OH228848   1.661   6.618  15.033 -0.1410  0.0401  0.5068
 2478TIP3    H128849   1.713   6.622  15.113  0.3294  0.7940  0.1713
 2478TIP3    H228850   1.699   6.545  14.984  0.5271  0.4981  0.3234
 2479TIP3   OH228851   5.847   3.537  13.560  0.0786 -0.2668  0.0811
 2479TIP3    H128852   5.848   3.443  13.575  0.7047 -0.1564  0.7718
 2479TIP3    H228853   5.812   3.574  13.641  0.0473  0.1080 -0.1006
 2480TIP3   OH228854   2.355   0.320   0.361  0.5257 -0.4327  0.1005
 2480TIP3    H128855   2.276   0.321   0.307 -1.7654  0.2087  3.2051
 2480TIP3    H228856   2.386   0.229   0.356  1.1380 -0.1778 -3.0347
 2481TIP3   OH228857   3.361   0.086   5.780  0.3372  0.5761  0.0935
 2481TIP3    H128858   3.445   0.114   5.816  0.4170  0.7241 -0.2038
 2481TIP3    H228859   3.358   0.125   5.692  0.1141  0.2841 -0.0321
 2482TIP3   OH228860   3.033   1.416  14.994 -0.8218 -0.0078  0.4672
 2482TIP3    H128861   2.972   1.405  14.921 -0.6313 -1.6470  0.5021
 2482TIP3    H228862   3.050   1.510  14.998  0.9354 -0.0039 -3.0781
 2483TIP3   OH228863   3.555   0.590  16.308  0.0897  1.0631  0.2269
 2483TIP3    H128864   3.489   0.607  16.241 -0.6028 -0.1416  0.5760
 2483TIP3    H228865   3.556   0.669  16.362 -1.0788  1.1008  0.2123
 2484TIP3   OH228866   3.001   3.111  13.093 -0.2430  0.6312  0.3201
 2484TIP3    H128867   2.921   3.156  13.123 -0.1354 -0.1534  1.8641
 2484TIP3    H228868   3.017   3.044  13.159  1.8117  0.8886  0.1393
 2485TIP3   OH228869   5.081   5.927   5.144  0.3649  0.5203  0.4500
 2485TIP3    H128870   4.995   5.919   5.185  1.4224 -1.7334  2.4252
 2485TIP3    H228871   5.061   5.933   5.050 -1.9236 -1.3521  0.7102
 2486TIP3   OH228872   4.287   2.753  15.728  0.0664 -0.2650  0.2557
 2486TIP3    H128873   4.252   2.826  15.779 -0.1370 -0.5505  0.5288
 2486TIP3    H228874   4.382   2.765  15.731  0.1511 -1.0674  1.9235
 2487TIP3   OH228875   5.094   3.793   5.461 -0.3061  0.7005  0.4828
 2487TIP3    H128876   5.008   3.752   5.451 -0.2693  0.0134  2.5459
 2487TIP3    H228877   5.084   3.852   5.536  0.8540  1.1334  0.3159
 2488TIP3   OH228878   4.651   4.630  13.552  0.2314  0.5662 -0.0276
 2488TIP3    H128879   4.680   4.540  13.569 -0.8833  0.1193 -0.3982
 2488TIP3    H228880   4.720   4.668  13.497  0.6798 -0.0769  0.0819
 2489TIP3   OH228881   0.179   0.581   0.317 -0.5852  0.2884 -0.3103
 2489TIP3    H128882   0.187   0.638   0.240  0.1689 -0.7933 -1.0472
 2489TIP3    H228883   0.098   0.610   0.359 -0.2865  1.8235 -0.7254
 2490TIP3   OH228884   2.328   2.352  15.760  0.2475 -0.5142 -0.2463
 2490TIP3    H128885   2.396   2.336  15.695  1.1690  1.3924  0.1698
 2490TIP3    H228886   2.275   2.423  15.723  1.6732  1.6444  1.6097
 2491TIP3   OH228887   5.123   5.236   1.643  0.5443  0.0478 -0.3853
 2491TIP3    H128888   5.177   5.226   1.564  0.6007 -0.7300 -0.2554
 2491TIP3    H228889   5.159   5.172   1.705 -0.0579  0.0369 -0.0391
 2492TIP3   OH228890   3.969   0.462  16.583 -0.0865  0.2418 -0.0858
 2492TIP3    H128891   4.031   0.406  16.630 -2.9539 -2.4289  0.8050
 2492TIP3    H228892   4.011   0.479  16.499  2.1258 -0.8157  0.7341
 2493TIP3   OH228893   0.670   4.242   6.273 -0.1511  0.0769  0.0514
 2493TIP3    H128894   0.650   4.327   6.311 -1.5809 -0.5688  0.8221
 2493TIP3    H228895   0.705   4.262   6.186 -0.0052  1.4498  0.4057
 2494TIP3   OH228896   5.912   2.406  15.615  0.9035  0.1801  0.0086
 2494TIP3    H128897   5.965   2.485  15.617  2.4967 -0.8400  0.4559
 2494TIP3    H228898   5.886   2.396  15.523  0.4755  1.3367 -0.0024
 2495TIP3   OH228899   1.254   6.472  14.215  0.2731  0.5501  0.6062
 2495TIP3    H128900   1.281   6.546  14.269 -2.2614  0.5980  1.9563
 2495TIP3    H228901   1.181   6.505  14.164  1.0013 -0.2397 -0.9996
 2496TIP3   OH228902   5.156   3.088  15.379 -0.3331  0.0586  0.0155
 2496TIP3    H128903   5.084   3.060  15.323 -1.3898 -0.6288  1.6430
 2496TIP3    H228904   5.230   3.034  15.352 -1.7434 -2.8781  1.5698
 2497TIP3   OH228905   1.155   5.956  13.457 -0.2414  0.3050  0.3521
 2497TIP3    H128906   1.141   5.980  13.548 -1.3748  0.8742  0.0571
 2497TIP3    H228907   1.204   6.029  13.420  2.0581 -0.8579  0.9572
 2498TIP3   OH228908   2.685   3.062   5.608 -0.4327 -0.3619  1.0842
 2498TIP3    H128909   2.736   3.052   5.528  0.7351  0.9433  1.6415
 2498TIP3    H228910   2.726   3.001   5.670 -0.6002 -0.5127  1.0490
 2499TIP3   OH228911   4.470   1.273   6.015  0.0775  0.5642  0.0435
 2499TIP3    H128912   4.498   1.181   6.014 -0.9619  0.2284  0.3529
 2499TIP3    H228913   4.435   1.285   6.104 -0.3563  1.0794 -0.1954
 2500TIP3   OH228914   2.107   5.769  13.247  0.4329 -0.4467 -0.0967
 2500TIP3    H128915   2.158   5.692  13.225  0.2290 -1.2435  2.0039
 2500TIP3    H228916   2.139   5.837  13.188 -0.4206 -2.4396 -3.0841
 2501TIP3   OH228917   6.233   4.283  12.904  0.3742  0.7249 -0.4048
 2501TIP3    H128918   6.222   4.344  12.831  1.1462 -1.0405 -2.0676
 2501TIP3    H228919   6.308   4.229  12.879 -0.1857 -0.8156  1.0831
 2502TIP3   OH228920   5.724   0.024  10.505  0.1057  0.2091  0.5667
 2502TIP3    H128921   5.779   0.083  10.557 -0.0511 -0.0381  1.0161
 2502TIP3    H228922   5.709   0.071  10.423  2.3607 -0.3821 -0.2605
 2503TIP3   OH228923   5.703   3.412   5.283  0.3919 -0.5295 -0.7886
 2503TIP3    H128924   5.701   3.416   5.379  0.7647 -0.0224 -0.8003
 2503TIP3    H228925   5.678   3.500   5.254  0.3420 -0.6624 -1.1609
 2504TIP3   OH228926   0.522   1.541   3.046  0.3237  0.0229 -0.1702
 2504TIP3    H128927   0.543   1.452   3.076  1.7371  0.9336  1.8130
 2504TIP3    H228928   0.480   1.529   2.961 -0.9855 -2.6241  0.7377
 2505TIP3   OH228929   1.176   4.732   2.317 -0.6723  0.8641 -0.2877
 2505TIP3    H128930   1.087   4.717   2.349 -0.6434  0.5479 -0.3549
 2505TIP3    H228931   1.175   4.698   2.227 -0.6408  1.3756 -0.4870
 2506TIP3   OH228932   4.976   1.122  14.136 -0.1897  0.3594 -0.6219
 2506TIP3    H128933   4.895   1.092  14.178  0.9489  1.5185  2.7423
 2506TIP3    H228934   5.005   1.047  14.084 -2.5192 -0.6742 -0.5438
 2507TIP3   OH228935   2.331   5.341   2.184  0.2508 -0.1794  0.2398
 2507TIP3    H128936   2.262   5.276   2.187  0.6969 -0.7744 -1.6337
 2507TIP3    H228937   2.412   5.291   2.190  0.6193  0.0887 -1.7866
 2508TIP3   OH228938   5.246   2.638  12.050 -0.0934  0.5225  0.2745
 2508TIP3    H128939   5.158   2.674  12.048  0.2693  1.4252 -1.0024
 2508TIP3    H228940   5.296   2.701  12.103 -0.1251  0.2420  0.6377
 2509TIP3   OH228941   6.316   5.933  15.777  0.1732  0.2185  0.1236
 2509TIP3    H128942   6.319   5.985  15.857 -0.5653 -1.3035  1.2012
 2509TIP3    H228943   6.223   5.915  15.763  0.0660  2.2589 -2.3553
 2510TIP3   OH228944   1.938   5.922  11.400  0.0935  0.0890 -0.0057
 2510TIP3    H128945   1.993   5.852  11.366 -0.6668 -1.9877  2.6487
 2510TIP3    H228946   1.892   5.956  11.323  2.1564 -0.7551 -1.7013
 2511TIP3   OH228947   4.324   1.073  16.449 -0.1609 -0.4277  0.1796
 2511TIP3    H128948   4.360   1.094  16.362 -0.8937  0.4359  0.0713
 2511TIP3    H228949   4.245   1.022  16.430 -0.4266 -0.0746  0.3234
 2512TIP3   OH228950   1.928   6.216   5.636  0.5496 -0.5504 -0.2754
 2512TIP3    H128951   1.957   6.228   5.545  1.7766  0.8415  0.2516
 2512TIP3    H228952   2.010   6.205   5.685 -0.1443 -2.5429  0.5409
 2513TIP3   OH228953   5.046   6.145  14.776 -0.3653  0.6494 -0.2377
 2513TIP3    H128954   5.126   6.093  14.780 -0.2343  0.8576 -0.1141
 2513TIP3    H228955   4.978   6.083  14.749 -0.4757  0.0857  1.2168
 2514TIP3   OH228956   6.533   2.811   3.444  0.2360  0.0678 -0.1997
 2514TIP3    H128957   6.615   2.783   3.403  0.5242  0.9878 -0.2852
 2514TIP3    H228958   6.465   2.761   3.400  0.5137  1.1684 -1.9698
 2515TIP3   OH228959   1.794   1.347   3.849 -0.5926 -0.9366 -0.3222
 2515TIP3    H128960   1.791   1.343   3.753  1.2631 -1.7082 -0.4044
 2515TIP3    H228961   1.888   1.347   3.869 -0.8900  1.2127  1.4438
 2516TIP3   OH228962   2.599   1.396   0.581  0.2890  0.8019 -0.3107
 2516TIP3    H128963   2.622   1.470   0.525 -1.6778  2.5454  1.0184
 2516TIP3    H228964   2.603   1.431   0.670  1.3029 -1.3055  0.5317
 2517TIP3   OH228965   6.290   6.604  12.531  0.0430 -0.2165 -0.5951
 2517TIP3    H128966   6.223   6.607  12.464  0.2737 -1.6462 -0.9269
 2517TIP3    H228967   6.257   6.540  12.595  0.9398 -0.7480 -0.6394
 2518TIP3   OH228968   3.783   3.482  12.075 -0.2531 -0.2137 -0.3555
 2518TIP3    H128969   3.859   3.509  12.127 -0.7186  1.3515 -0.4433
 2518TIP3    H228970   3.801   3.390  12.053 -0.3598 -1.1888  3.1003
 2519TIP3   OH228971   6.695   4.705   0.877 -0.0802 -0.3203  0.2675
 2519TIP3    H128972   6.651   4.626   0.848 -0.2617  0.4160 -1.5910
 2519TIP3    H228973   6.789   4.683   0.875 -0.1841 -0.8846  1.0905
 2520TIP3   OH228974   4.190   2.316  11.959 -0.0868  0.5643 -0.3459
 2520TIP3    H128975   4.118   2.253  11.969 -1.0527  1.8420  1.0671
 2520TIP3    H228976   4.150   2.392  11.919  0.6138  1.0792 -0.0884
 2521TIP3   OH228977   5.102   5.650   4.813 -0.2655 -0.2706 -0.2242
 2521TIP3    H128978   5.158   5.716   4.853 -0.7665 -0.1548  0.3061
 2521TIP3    H228979   5.066   5.601   4.887 -0.8207 -0.3673 -0.5519
 2522TIP3   OH228980   5.061   6.705  13.662 -0.3181  0.1157  0.3600
 2522TIP3    H128981   5.089   6.778  13.607  1.8686  0.5009  1.8365
 2522TIP3    H228982   5.064   6.629  13.604 -0.2499  0.8451 -0.6095
 2523TIP3   OH228983   4.842   5.037   1.516  0.3876 -0.0444 -0.4636
 2523TIP3    H128984   4.821   5.121   1.476 -1.2529 -0.2452 -0.0689
 2523TIP3    H228985   4.906   4.998   1.456  0.0910  0.8640 -1.4072
 2524TIP3   OH228986   3.153   6.379  12.042 -0.2405 -0.2154  0.4681
 2524TIP3    H128987   3.245   6.369  12.065 -0.0821  0.7805  0.3270
 2524TIP3    H228988   3.112   6.297  12.069  1.0506 -1.5606 -1.3708
 2525TIP3   OH228989   6.057   3.730   0.813 -0.2066  0.2549  1.1706
 2525TIP3    H128990   6.131   3.785   0.788 -0.5044  0.6046  1.0528
 2525TIP3    H228991   6.093   3.642   0.819 -0.3858 -0.1210 -1.9336
 2526TIP3   OH228992   0.950   0.995  16.413  0.1084  1.3834 -0.4873
 2526TIP3    H128993   0.960   0.907  16.378 -0.0908  0.9691  0.4729
 2526TIP3    H228994   1.037   1.033  16.407  0.3354  0.8958 -0.3216
 2527TIP3   OH228995   0.410   3.282  13.831  0.0348 -0.1600 -0.0063
 2527TIP3    H128996   0.505   3.290  13.829  0.1563 -1.3562  0.1185
 2527TIP3    H228997   0.382   3.340  13.902  0.7397 -0.3232  0.4149
 2528TIP3   OH228998   2.612   3.610   5.414  0.6941  0.4410 -0.0729
 2528TIP3    H128999   2.680   3.557   5.455 -1.5140 -0.5163  2.7181
 2528TIP3    H229000   2.588   3.561   5.335 -1.6127 -3.3227  2.6318
 2529TIP3   OH229001   1.413   4.322   5.088 -0.0763  0.5672 -0.6837
 2529TIP3    H129002   1.503   4.299   5.111  0.1673  1.2399 -0.9249
 2529TIP3    H229003   1.367   4.326   5.171  0.3756  1.2403 -0.4487
 2530TIP3   OH229004   0.284   6.201   0.689  0.1894  0.5451  0.1323
 2530TIP3    H129005   0.366   6.248   0.677 -0.5574  1.3757 -2.3766
 2530TIP3    H229006   0.237   6.251   0.755  0.9788  1.1030  0.2764
 2531TIP3   OH229007   2.763   2.531  12.033  1.0746 -0.8748  0.5090
 2531TIP3    H129008   2.681   2.511  12.077  1.3101  0.5006  1.6599
 2531TIP3    H229009   2.745   2.516  11.940 -0.8106  0.3835  0.6093
 2532TIP3   OH229010   5.711   3.233  12.787 -0.4988  0.3513  0.3178
 2532TIP3    H129011   5.657   3.175  12.840  0.5777 -0.6065  0.4089
 2532TIP3    H229012   5.801   3.213  12.813 -0.0362  1.1491 -0.5789
 2533TIP3   OH229013   5.717   3.901  10.093  0.0822  0.3053  0.7447
 2533TIP3    H129014   5.744   3.987  10.122 -1.5065  1.1771 -0.2081
 2533TIP3    H229015   5.667   3.865  10.167 -1.2440  1.1957  0.3071
 2534TIP3   OH229016   4.311   2.226  11.203  0.2842 -0.2969  0.4613
 2534TIP3    H129017   4.248   2.156  11.221  0.5659 -0.1877  2.0815
 2534TIP3    H229018   4.382   2.182  11.156 -0.1109 -0.8257  0.3431
 2535TIP3   OH229019   3.090   2.477   5.200  0.1528  0.1456 -0.6647
 2535TIP3    H129020   3.132   2.438   5.123  0.8592 -2.5595  0.9685
 2535TIP3    H229021   3.068   2.402   5.256 -1.7159  1.9030  1.1111
 2536TIP3   OH229022   4.538   1.527   0.561  0.3974 -0.1447 -0.2896
 2536TIP3    H129023   4.519   1.439   0.529  1.3758  0.3147 -2.2620
 2536TIP3    H229024   4.470   1.582   0.522  0.1824  0.0808  0.3946
 2537TIP3   OH229025   5.280   2.777  15.074 -0.2960  0.4635 -0.4096
 2537TIP3    H129026   5.371   2.794  15.096  0.3569 -0.7613 -1.9997
 2537TIP3    H229027   5.246   2.729  15.149 -0.8743  4.2437  2.0535
 2538TIP3   OH229028   3.844   5.812   1.733  0.4182 -0.4674 -0.4638
 2538TIP3    H129029   3.796   5.785   1.654  2.3109 -2.2613 -1.0934
 2538TIP3    H229030   3.827   5.742   1.796 -1.8773  1.4249  1.1963
 2539TIP3   OH229031   4.039   5.253   1.620 -0.5294  0.0116  0.1956
 2539TIP3    H129032   3.996   5.219   1.698 -1.4017  1.7395  0.5144
 2539TIP3    H229033   3.984   5.222   1.548 -0.3309 -0.6754  0.3295
 2540TIP3   OH229034   1.779   2.807  14.578 -0.1321 -0.6445 -0.3242
 2540TIP3    H129035   1.858   2.755  14.590 -0.1013 -1.4355 -3.2615
 2540TIP3    H229036   1.794   2.887  14.629  2.3033 -1.0107 -0.3946
 2541TIP3   OH229037   6.114   5.184  14.463  0.2017 -0.2729 -0.1160
 2541TIP3    H129038   6.081   5.097  14.443 -2.3447  0.6411 -0.2481
 2541TIP3    H229039   6.084   5.239  14.391 -0.4998  1.1678  1.1891
 2542TIP3   OH229040   3.206   0.596   2.279  0.1097  0.6872 -0.1704
 2542TIP3    H129041   3.238   0.665   2.221  1.4009  0.8418  0.7001
 2542TIP3    H229042   3.280   0.574   2.335 -0.0203 -1.8720 -0.8416
 2543TIP3   OH229043   0.936   6.140  15.202 -0.3272 -0.5074 -0.4138
 2543TIP3    H129044   0.984   6.088  15.138 -0.4102  0.4929 -1.3104
 2543TIP3    H229045   0.977   6.226  15.200 -1.0270 -0.1490  0.0873
 2544TIP3   OH229046   4.495   4.561  12.041 -0.4891  0.3678 -0.4413
 2544TIP3    H129047   4.405   4.576  12.071 -0.0936  2.5871 -0.2021
 2544TIP3    H229048   4.548   4.563  12.121 -0.1257 -0.0615 -0.6680
 2545TIP3   OH229049   3.251   3.747   4.639 -0.4502  0.1448 -0.2661
 2545TIP3    H129050   3.322   3.725   4.578  0.1485  1.0993  0.0581
 2545TIP3    H229051   3.183   3.786   4.584 -0.6071 -0.4979 -0.5376
 2546TIP3   OH229052   5.737   3.939   5.244  0.8122 -0.3958 -0.0326
 2546TIP3    H129053   5.649   3.978   5.244 -0.3793 -2.8505 -0.0885
 2546TIP3    H229054   5.794   4.007   5.278 -1.1064  1.3038 -0.0318
 2547TIP3   OH229055   4.980   0.039   0.417 -0.1087  0.2628 -0.4507
 2547TIP3    H129056   4.951   0.070   0.503  0.5781 -0.0743 -0.0894
 2547TIP3    H229057   4.909  -0.019   0.387 -0.6764  0.9399 -0.4341
 2548TIP3   OH229058   2.927   2.100  11.691  0.7023 -0.2210  0.8297
 2548TIP3    H129059   2.891   2.014  11.710 -0.7977 -0.7909 -3.4683
 2548TIP3    H229060   3.001   2.083  11.632  0.5475  1.3578  0.1129
 2549TIP3   OH229061   1.775   2.735  14.061  0.1600  0.2969  0.6557
 2549TIP3    H129062   1.741   2.813  14.106  0.0082  0.5908  0.0350
 2549TIP3    H229063   1.698   2.681  14.044  0.1080  0.5732  0.0040
 2550TIP3   OH229064   3.137   1.507  14.426 -0.5064 -0.8319 -0.1927
 2550TIP3    H129065   3.104   1.539  14.510  0.9350  0.3251 -0.0142
 2550TIP3    H229066   3.166   1.586  14.380  0.1782 -1.5905 -1.1166
 2551TIP3   OH229067   2.479   5.696  16.990 -0.5216 -0.4289  0.0453
 2551TIP3    H129068   2.481   5.791  16.987 -0.6434 -0.4474 -1.3636
 2551TIP3    H229069   2.534   5.668  16.916  0.2108 -1.4655  0.9397
 2552TIP3   OH229070   1.812   4.247   1.056 -0.1435  0.1468 -0.5329
 2552TIP3    H129071   1.821   4.199   1.138  0.4298 -0.0314 -0.6961
 2552TIP3    H229072   1.901   4.253   1.021 -0.3305  0.5374 -0.9636
 2553TIP3   OH229073   5.442   1.770   5.490  0.3180 -0.1094  0.0578
 2553TIP3    H129074   5.373   1.761   5.556  0.4977  1.9872  0.5974
 2553TIP3    H229075   5.451   1.864   5.477  2.3411 -0.3720 -0.8088
 2554TIP3   OH229076   5.421   4.232  16.009 -0.4825  0.5441  0.1102
 2554TIP3    H129077   5.442   4.292  16.081 -1.8754  0.7931  0.3476
 2554TIP3    H229078   5.466   4.268  15.933  1.8954 -0.3068  1.0277
 2555TIP3   OH229079   1.736   0.470   5.799 -0.0361 -0.2662 -0.6138
 2555TIP3    H129080   1.721   0.399   5.862 -0.9486  0.6692  0.2670
 2555TIP3    H229081   1.671   0.537   5.822  1.3231  1.2184 -0.8672
 2556TIP3   OH229082   1.636   4.145  12.837  0.3742 -0.0889  0.6908
 2556TIP3    H129083   1.606   4.216  12.894  1.1317  0.0458  0.9321
 2556TIP3    H229084   1.672   4.190  12.760 -1.8994 -0.2852 -0.5934
 2557TIP3   OH229085   1.172   0.802   2.828 -0.3496  0.3782 -0.1430
 2557TIP3    H129086   1.223   0.824   2.905 -0.1526 -0.1973 -0.1033
 2557TIP3    H229087   1.156   0.886   2.785  1.3180  0.5140 -0.5898
 2558TIP3   OH229088   3.848   0.353  14.781  0.3678 -0.1684 -0.1534
 2558TIP3    H129089   3.786   0.281  14.770 -1.1145  1.0934 -0.3339
 2558TIP3    H229090   3.913   0.339  14.712  0.5194 -1.7121  0.2614
 2559TIP3   OH229091   2.398   4.805  17.073  0.5162 -0.7332 -0.0249
 2559TIP3    H129092   2.321   4.750  17.089  0.7343 -0.5897  1.6470
 2559TIP3    H229093   2.404   4.810  16.977  0.6209 -3.7650 -0.2733
 2560TIP3   OH229094   3.758   5.773  14.242  0.1556  0.8032 -0.0305
 2560TIP3    H129095   3.706   5.697  14.268 -0.1010  0.8608 -0.3704
 2560TIP3    H229096   3.757   5.772  14.147  4.0030 -1.3994 -0.2317
 2561TIP3   OH229097   6.516   4.726   4.739 -1.1809  0.4132  0.5833
 2561TIP3    H129098   6.576   4.722   4.665  1.3631  1.6103  2.4487
 2561TIP3    H229099   6.430   4.743   4.700  0.4767  3.8642 -1.9816
 2562TIP3   OH229100   2.278   6.181   6.527  0.6116  0.2646  0.2416
 2562TIP3    H129101   2.368   6.167   6.497  0.8665  0.5088  0.8807
 2562TIP3    H229102   2.235   6.226   6.454  1.3877  1.4170  0.4741
 2563TIP3   OH229103   4.444   3.298   5.042  0.2414  0.1424 -0.0850
 2563TIP3    H129104   4.497   3.324   5.117 -1.4836  0.6425  1.0162
 2563TIP3    H229105   4.507   3.282   4.972  1.8520  0.2934  1.2810
 2564TIP3   OH229106   1.371   4.062  16.949 -0.6068 -0.4752  0.4302
 2564TIP3    H129107   1.402   3.995  17.010 -0.2990  0.8888  1.8353
 2564TIP3    H229108   1.291   4.096  16.990 -0.6217  0.1741 -0.1162
 2565TIP3   OH229109   5.688   5.760  14.476  0.2171 -0.1974  0.1359
 2565TIP3    H129110   5.782   5.777  14.469  0.2588 -0.2306  0.6148
 2565TIP3    H229111   5.656   5.763  14.385  0.7501 -0.5757 -0.0700
 2566TIP3   OH229112   0.062   3.014   5.922  0.1624 -0.0571  0.3459
 2566TIP3    H129113   0.095   2.995   6.010  1.4001 -1.7175 -0.4123
 2566TIP3    H229114  -0.022   2.968   5.918  1.3077 -2.2641 -0.1384
 2567TIP3   OH229115   1.925   3.096  15.552  0.0392 -0.1639 -0.4712
 2567TIP3    H129116   2.014   3.125  15.530  0.9718 -0.7802  2.1377
 2567TIP3    H229117   1.925   3.002  15.533 -0.5676  0.0960 -1.8547
 2568TIP3   OH229118   5.999   2.404   5.359  0.3654 -0.0466  0.1591
 2568TIP3    H129119   6.079   2.441   5.320 -0.2373 -0.6286 -1.7345
 2568TIP3    H229120   5.985   2.322   5.311 -2.0806  0.6955 -0.5099
 2569TIP3   OH229121   0.374   2.932   3.533  0.3324 -0.6735  0.2124
 2569TIP3    H129122   0.390   2.919   3.627 -0.3046  0.3952  0.4821
 2569TIP3    H229123   0.459   2.912   3.492  0.4505 -1.7584  0.9375
 2570TIP3   OH229124   0.419   5.544   5.535 -0.4165  0.2418 -0.0286
 2570TIP3    H129125   0.455   5.587   5.613  0.5164 -1.6322  0.6404
 2570TIP3    H229126   0.351   5.486   5.569 -1.5642  1.0116 -0.8993
 2571TIP3   OH229127   0.995   2.695  13.893 -0.4208  0.5608  0.3694
 2571TIP3    H129128   1.046   2.773  13.874  1.3781 -0.1502  2.0142
 2571TIP3    H229129   0.918   2.727  13.940 -0.9712  1.5307 -1.1196
 2572TIP3   OH229130   5.016   0.790  16.433 -0.3221  0.3645  0.3697
 2572TIP3    H129131   4.929   0.785  16.472 -0.6745  0.9162 -0.3182
 2572TIP3    H229132   5.028   0.705  16.391  0.7053 -0.8394  2.9286
 2573TIP3   OH229133   2.788   1.259  15.306  0.1010  0.7122 -0.1410
 2573TIP3    H129134   2.703   1.291  15.276 -1.0584 -0.4124  1.7409
 2573TIP3    H229135   2.810   1.314  15.380  0.4030  0.1850  0.1674
 2574TIP3   OH229136   3.893   1.022   3.741  0.5895 -0.1063 -0.7099
 2574TIP3    H129137   3.869   1.102   3.695 -0.9769 -0.4888 -0.6140
 2574TIP3    H229138   3.892   1.047   3.834 -0.9604 -0.4426 -0.5986
 2575TIP3   OH229139   0.763   3.489   2.536  0.7391 -0.3889  0.6451
 2575TIP3    H129140   0.821   3.467   2.464  1.4296 -0.6544  1.2683
 2575TIP3    H229141   0.700   3.551   2.499  0.0537 -1.7723 -0.6024
 2576TIP3   OH229142   4.127   5.055  11.135 -0.0960 -0.4884 -0.4067
 2576TIP3    H129143   4.086   5.002  11.066  0.5060  0.1268 -1.2608
 2576TIP3    H229144   4.167   4.991  11.194 -2.2668 -1.1082  0.4805
 2577TIP3   OH229145   3.522   4.411   2.947  0.1642 -0.4004 -0.6726
 2577TIP3    H129146   3.610   4.396   2.913  0.7730  0.7168  0.3642
 2577TIP3    H229147   3.518   4.358   3.027  0.4888  0.8033  0.1635
 2578TIP3   OH229148   1.528   2.099   3.364  0.6175 -0.0816  0.1401
 2578TIP3    H129149   1.543   2.072   3.454 -0.6290  1.2779  0.7951
 2578TIP3    H229150   1.447   2.149   3.367  0.6650  0.1818 -1.7069
 2579TIP3   OH229151   5.006   0.593  13.222  0.1357  0.2549  0.3168
 2579TIP3    H129152   5.044   0.505  13.224  0.9638  0.5996  0.5704
 2579TIP3    H229153   4.940   0.592  13.290  0.6186  0.0255  0.7929
 2580TIP3   OH229154   1.569   2.960   2.626 -0.4768  0.3187 -0.2224
 2580TIP3    H129155   1.583   3.052   2.604 -1.9705  0.4648 -0.6970
 2580TIP3    H229156   1.533   2.922   2.546  1.6737 -1.1067 -0.5887
 2581TIP3   OH229157   5.137   2.965   3.051 -0.1643  0.6624 -0.1350
 2581TIP3    H129158   5.163   2.958   2.959 -4.4680  0.1961 -1.5328
 2581TIP3    H229159   5.064   3.027   3.051 -3.4413 -2.7329  2.0474
 2582TIP3   OH229160   3.717   3.926  17.056  0.2338 -0.2799 -0.2963
 2582TIP3    H129161   3.777   3.959  16.989 -0.2731  0.3910 -0.4293
 2582TIP3    H229162   3.662   3.863  17.009  0.5783 -0.6166 -0.2594
 2583TIP3   OH229163   4.100   3.225  15.661  0.0032 -0.8231 -0.6649
 2583TIP3    H129164   4.088   3.291  15.729 -0.8610  1.2421 -2.7148
 2583TIP3    H229165   4.190   3.237  15.631 -0.4463  0.0962 -1.6801
 2584TIP3   OH229166   4.324   2.581   0.348  0.5176 -0.0150  0.1154
 2584TIP3    H129167   4.366   2.650   0.399 -0.0058  1.1454 -0.9661
 2584TIP3    H229168   4.381   2.568   0.272  1.2316 -1.6449  0.8845
 2585TIP3   OH229169   5.214   2.187  14.537 -0.4672 -0.6145 -0.2873
 2585TIP3    H129170   5.245   2.239  14.463 -0.1027 -0.0472  0.2588
 2585TIP3    H229171   5.166   2.115  14.496 -0.8733  0.0706 -1.0574
 2586TIP3   OH229172   0.622   1.493   0.418 -0.2590 -0.2573  0.1645
 2586TIP3    H129173   0.642   1.572   0.468  0.2360 -0.0982 -0.2763
 2586TIP3    H229174   0.708   1.461   0.388 -0.5290 -0.4240 -0.4560
 2587TIP3   OH229175   5.142   5.374   4.727  0.1573 -0.4074  0.1357
 2587TIP3    H129176   5.117   5.395   4.816 -0.4442 -0.1256 -0.0978
 2587TIP3    H229177   5.098   5.439   4.673  1.1724 -0.0656 -0.3107
 2588TIP3   OH229178   0.757   4.593   4.967  0.5417 -0.7561  0.3300
 2588TIP3    H129179   0.700   4.664   4.998  0.6118 -0.8995  0.8019
 2588TIP3    H229180   0.845   4.623   4.989  0.7533 -0.0741 -1.3083
 2589TIP3   OH229181   1.205   6.621  13.693 -0.2648 -0.3165 -0.4301
 2589TIP3    H129182   1.207   6.662  13.607  0.4319  2.2234  0.6984
 2589TIP3    H229183   1.274   6.555  13.690  0.4547  0.4531 -1.4984
 2590TIP3   OH229184   6.099   5.157   3.294 -0.1837 -0.3296 -0.2984
 2590TIP3    H129185   6.017   5.162   3.244 -0.5422 -0.0487  0.3147
 2590TIP3    H229186   6.151   5.229   3.261 -1.5288  1.6754  1.6816
 2591TIP3   OH229187   3.227   4.095   4.314  0.0617 -0.6477  0.0692
 2591TIP3    H129188   3.311   4.120   4.275 -0.7853  1.0064 -0.7969
 2591TIP3    H229189   3.190   4.032   4.253  0.2649 -0.6946 -0.0076
 2592TIP3   OH229190   0.887   5.361  16.286 -0.4165 -0.7602 -0.0833
 2592TIP3    H129191   0.826   5.355  16.359  0.2841  0.6128  0.6496
 2592TIP3    H229192   0.967   5.399  16.323 -0.4989  1.2933 -1.7884
 2593TIP3   OH229193   2.618   5.180   4.618 -0.0046 -0.2313 -0.0264
 2593TIP3    H129194   2.662   5.168   4.534  1.1039  1.0444  0.3510
 2593TIP3    H229195   2.581   5.268   4.614 -0.3335 -0.3279  0.6646
 2594TIP3   OH229196   1.732   2.840   3.157  0.7947 -0.2288  0.3396
 2594TIP3    H129197   1.735   2.887   3.240  0.8642  0.2926  0.0475
 2594TIP3    H229198   1.654   2.785   3.163  1.1604 -0.6843  1.0039
 2595TIP3   OH229199   0.549   0.108   3.275 -0.3156  0.5940  0.3752
 2595TIP3    H129200   0.529   0.201   3.269  1.4736  0.9845 -0.3037
 2595TIP3    H229201   0.626   0.096   3.218  0.8744 -0.8679  2.1623
 2596TIP3   OH229202   5.722   0.197  15.759 -0.1085  0.1892 -0.2898
 2596TIP3    H129203   5.703   0.289  15.744  2.2950  0.7120 -0.5463
 2596TIP3    H229204   5.802   0.181  15.709  0.6937 -1.4800  1.4144
 2597TIP3   OH229205   6.101   4.617   5.140  0.0997 -0.0731  0.0713
 2597TIP3    H129206   6.173   4.634   5.200 -1.0091 -0.6133  1.6232
 2597TIP3    H229207   6.029   4.672   5.173 -0.6531 -0.6742 -0.5168
 2598TIP3   OH229208   3.319   4.907  10.854  0.0834 -0.5051  0.3272
 2598TIP3    H129209   3.286   4.949  10.774  0.5871 -1.6711 -0.5256
 2598TIP3    H229210   3.375   4.836  10.822  0.2602 -1.0216  1.7280
 2599TIP3   OH229211   0.913   3.275  11.105  0.3235 -0.3020 -0.4724
 2599TIP3    H129212   0.887   3.187  11.131  1.6499 -1.1037 -1.7207
 2599TIP3    H229213   0.916   3.272  11.010 -0.8720  1.4975 -0.6136
 2600TIP3   OH229214   3.173   4.863  11.130  0.0355  0.6006  0.1502
 2600TIP3    H129215   3.227   4.836  11.055  1.4655  1.5260  0.8018
 2600TIP3    H229216   3.099   4.802  11.129  2.2193 -2.2799  0.5702
 2601TIP3   OH229217   3.535   1.519   6.079  0.1742 -0.5291  0.2421
 2601TIP3    H129218   3.585   1.546   6.157  2.1009 -1.0480 -0.7566
 2601TIP3    H229219   3.566   1.431   6.060 -1.8197 -1.2568  0.0545
 2602TIP3   OH229220   2.197   5.812   2.017 -0.1464 -0.2135 -0.3942
 2602TIP3    H129221   2.194   5.876   1.945 -2.2784  1.2519  0.8903
 2602TIP3    H229222   2.260   5.850   2.078  1.2361 -1.1755 -1.1679
 2603TIP3   OH229223   0.100   1.188  15.756 -0.0263  0.4555  0.3281
 2603TIP3    H129224   0.022   1.239  15.774  0.5074  1.3569  0.1702
 2603TIP3    H229225   0.121   1.146  15.840 -1.3881 -0.8467  0.0590
 2604TIP3   OH229226   1.727   3.431   1.098  0.0257  0.5443 -0.8471
 2604TIP3    H129227   1.658   3.476   1.049  0.4879  1.9480 -0.2426
 2604TIP3    H229228   1.799   3.422   1.035 -0.4914 -0.4499 -1.3210
 2605TIP3   OH229229   4.849   5.914   3.706 -0.1480  0.0312  0.1211
 2605TIP3    H129230   4.885   5.946   3.624 -1.8992  0.8621 -0.3776
 2605TIP3    H229231   4.777   5.974   3.726 -1.3070 -1.5601  0.9856
 2606TIP3   OH229232   1.115   1.064   4.899  0.3873 -0.6157 -0.2721
 2606TIP3    H129233   1.111   1.098   4.810 -1.1717 -1.7329 -0.6700
 2606TIP3    H229234   1.078   1.134   4.953  2.2163  0.4547 -0.3286
 2607TIP3   OH229235   6.371   1.510  13.735 -0.2931  0.0479 -0.2804
 2607TIP3    H129236   6.388   1.603  13.721 -0.6813  0.0771 -0.5528
 2607TIP3    H229237   6.310   1.507  13.809 -1.2053  0.0719 -1.0122
 2608TIP3   OH229238   4.982   3.380   2.037  0.3670  0.1270 -0.1023
 2608TIP3    H129239   4.894   3.414   2.019 -0.0123  0.3502  1.9472
 2608TIP3    H229240   5.015   3.354   1.951 -0.5904  2.6538 -1.3554
 2609TIP3   OH229241   2.069   4.835   5.278 -0.6737 -0.3741 -0.2211
 2609TIP3    H129242   2.135   4.877   5.224 -0.3759 -0.6413 -0.0698
 2609TIP3    H229243   1.986   4.872   5.248 -0.7081 -1.8107 -2.1026
 2610TIP3   OH229244   1.930   2.285   0.045 -0.0889 -0.3176  0.0661
 2610TIP3    H129245   1.914   2.251  -0.043 -2.0289  1.2603 -0.2717
 2610TIP3    H229246   1.953   2.377   0.031  0.9478 -0.3911  1.1551
 2611TIP3   OH229247   5.365   3.428  15.225 -0.1132 -0.2124  0.5470
 2611TIP3    H129248   5.319   3.493  15.279 -1.8885  0.0733 -1.1799
 2611TIP3    H229249   5.357   3.461  15.135  3.1024 -0.4553  0.0455
 2612TIP3   OH229250   0.328   3.589  11.910  0.2910  0.4279  0.2166
 2612TIP3    H129251   0.394   3.597  11.979 -1.0707 -0.0996  1.6340
 2612TIP3    H229252   0.297   3.679  11.897  0.0043  0.4264  0.8617
 2613TIP3   OH229253   5.616   3.047   4.922  0.1465 -0.2874 -0.1867
 2613TIP3    H129254   5.652   2.960   4.940  0.2476  0.2496  2.7271
 2613TIP3    H229255   5.531   3.047   4.966 -0.9256  0.3844 -2.1374
 2614TIP3   OH229256   4.422   4.314   5.057  0.1672  0.5207  0.0639
 2614TIP3    H129257   4.467   4.392   5.089  0.4123  0.4901 -0.2001
 2614TIP3    H229258   4.472   4.241   5.094 -2.1858  0.3874  3.4335
 2615TIP3   OH229259   1.036   4.924  11.775  0.0351 -0.8096  0.2432
 2615TIP3    H129260   0.996   4.937  11.689  0.9576 -0.2952 -0.1279
 2615TIP3    H229261   1.077   4.838  11.770  1.1505 -0.2699 -0.2910
 2616TIP3   OH229262   3.919   0.549   3.228  0.2565  0.3271 -0.5946
 2616TIP3    H129263   3.921   0.463   3.187 -0.4667 -0.2038  0.4663
 2616TIP3    H229264   3.964   0.538   3.312 -0.2416  0.8758 -0.2468
 2617TIP3   OH229265   3.363   4.378  12.035 -0.4290 -0.1625  0.0989
 2617TIP3    H129266   3.306   4.333  12.097 -0.4737 -0.8637 -0.4442
 2617TIP3    H229267   3.412   4.440  12.088 -0.9290 -0.2987  0.7349
 2618TIP3   OH229268   4.235   1.576  12.592  0.0765 -0.1529 -0.2694
 2618TIP3    H129269   4.209   1.519  12.665  2.2946 -0.5954  0.2456
 2618TIP3    H229270   4.205   1.663  12.618 -0.1098 -0.4836  0.6797
 2619TIP3   OH229271   2.940   2.252  15.266 -0.1406  0.0894 -0.1902
 2619TIP3    H129272   2.972   2.341  15.250 -1.6901  0.8788  0.8954
 2619TIP3    H229273   2.849   2.263  15.292 -0.5375 -1.8805 -0.5925
 2620TIP3   OH229274   5.898   3.428   4.424  0.2565 -0.4328  0.2349
 2620TIP3    H129275   5.891   3.474   4.508  0.2652  0.8380 -0.4344
 2620TIP3    H229276   5.906   3.336   4.447 -2.0013 -0.3533  1.5836
 2621TIP3   OH229277   0.980   2.789   4.231 -0.0939  0.5439 -0.1298
 2621TIP3    H129278   0.925   2.734   4.286  0.8259 -0.7808 -0.4821
 2621TIP3    H229279   0.974   2.877   4.270 -1.0611  0.0652  0.8424
 2622TIP3   OH229280   3.540   6.270  12.305  0.6070  0.3753  0.0794
 2622TIP3    H129281   3.526   6.328  12.380 -0.2162 -0.6194  0.7163
 2622TIP3    H229282   3.523   6.182  12.338  0.8639 -0.1496 -1.1157
 2623TIP3   OH229283   4.432   4.508   3.779 -0.0417 -0.8193 -0.2520
 2623TIP3    H129284   4.525   4.493   3.761  0.2257  1.6061 -1.2531
 2623TIP3    H229285   4.430   4.549   3.865 -0.1485 -0.6038 -0.3556
 2624TIP3   OH229286   1.687   6.768   2.954  0.1137 -0.2443 -0.0159
 2624TIP3    H129287   1.625   6.827   2.911  1.3570 -0.0719 -1.6567
 2624TIP3    H229288   1.717   6.816   3.031 -0.8161  0.1778  0.1034
 2625TIP3   OH229289   0.795   1.244   0.796  0.6337 -0.0835 -0.2809
 2625TIP3    H129290   0.811   1.325   0.747 -0.0942  0.1044 -0.2124
 2625TIP3    H229291   0.818   1.174   0.733  0.5336  0.1653 -0.5978
 2626TIP3   OH229292   2.264   1.785   1.837  1.0731  0.7006 -0.2089
 2626TIP3    H129293   2.182   1.771   1.789  1.0499 -0.9589  0.2735
 2626TIP3    H229294   2.309   1.853   1.786 -0.4885  1.5105 -0.5921
 2627TIP3   OH229295   0.165   0.606   1.587 -0.4290 -0.2236 -0.8317
 2627TIP3    H129296   0.167   0.677   1.523  0.9260  2.1831  1.6718
 2627TIP3    H229297   0.251   0.563   1.577  1.1505  2.1533  1.2691
 2628TIP3   OH229298   6.406   0.071   4.151  0.1458 -0.3169 -0.1249
 2628TIP3    H129299   6.408   0.039   4.241 -0.8282  0.9012  0.3722
 2628TIP3    H229300   6.493   0.108   4.136 -0.1679  0.9133  0.9019
 2629TIP3   OH229301   4.265   1.394   1.286  0.6801  0.3939  0.3788
 2629TIP3    H129302   4.347   1.382   1.239  1.5023  0.3238  1.7883
 2629TIP3    H229303   4.290   1.404   1.378 -0.8689  0.5851  0.8191
 2630TIP3   OH229304   2.788   5.618  15.438 -0.1686 -0.2686 -0.3434
 2630TIP3    H129305   2.876   5.588  15.415  0.6372  1.4928  0.2486
 2630TIP3    H229306   2.782   5.603  15.533  0.1145  1.0203 -0.1016
 2631TIP3   OH229307   6.692   6.534   2.744  0.0853 -0.5734  0.2220
 2631TIP3    H129308   6.627   6.599   2.718  0.1025 -0.8655 -0.5896
 2631TIP3    H229309   6.717   6.491   2.662  0.5313 -1.1787  0.6643
 2632TIP3   OH229310   1.137   6.324  15.092 -0.2187  0.2140 -0.3512
 2632TIP3    H129311   1.196   6.263  15.134  0.2958  1.2114  0.4172
 2632TIP3    H229312   1.108   6.279  15.013  0.0191 -1.0700  0.2678
 2633TIP3   OH229313   5.445   2.840  17.213  0.2158  0.1471  0.3916
 2633TIP3    H129314   5.501   2.763  17.212  0.5080  0.3083 -1.8309
 2633TIP3    H229315   5.503   2.913  17.190 -0.3975  0.7484  0.6887
 2634TIP3   OH229316   4.501   0.353  11.586  0.0132 -0.3526  0.0776
 2634TIP3    H129317   4.522   0.441  11.617  1.6047 -1.1680  1.4435
 2634TIP3    H229318   4.492   0.301  11.666  0.4774 -1.7265 -0.7444
 2635TIP3   OH229319   1.315   2.244   0.406 -0.8632  0.8887  0.3719
 2635TIP3    H129320   1.372   2.297   0.462  2.3556 -0.4967 -1.3661
 2635TIP3    H229321   1.340   2.268   0.317 -0.9800 -1.7841 -0.4676
 2636TIP3   OH229322   2.017   3.191   0.450  0.4868  0.2993 -0.0140
 2636TIP3    H129323   2.099   3.142   0.456  2.1721  2.9857  0.3555
 2636TIP3    H229324   1.992   3.185   0.358  2.2062  1.0550 -0.5655
 2637TIP3   OH229325   1.044   1.177  11.643  0.3811  0.6913  0.0481
 2637TIP3    H129326   1.023   1.184  11.736 -0.0360 -0.9336  0.1078
 2637TIP3    H229327   0.980   1.233  11.600 -1.4594 -0.8912  0.5496
 2638TIP3   OH229328   6.250   0.071  11.425 -0.8397  0.0961 -0.1388
 2638TIP3    H129329   6.329   0.019  11.409  0.2875  1.0141  2.0097
 2638TIP3    H229330   6.234   0.115  11.342  1.5537  0.6823 -0.3753
 2639TIP3   OH229331   5.210   3.609   0.432 -0.0795  0.3656  0.0496
 2639TIP3    H129332   5.164   3.552   0.494 -1.9424  1.0659 -0.6309
 2639TIP3    H229333   5.176   3.696   0.451 -0.1045  0.6938 -1.4449
 2640TIP3   OH229334   2.869   5.532  15.691  0.4699 -0.3481 -0.2003
 2640TIP3    H129335   2.886   5.570  15.777  0.7998 -0.5799 -0.1620
 2640TIP3    H229336   2.950   5.486  15.669 -0.2088 -1.7701  0.1456
 2641TIP3   OH229337   4.386   2.075   3.294  0.2015 -0.5317  0.0614
 2641TIP3    H129338   4.448   2.025   3.347  1.6802 -0.7695 -1.7814
 2641TIP3    H229339   4.336   2.008   3.247 -0.4337 -0.3162  0.4262
 2642TIP3   OH229340   2.969   3.637   5.950  0.7295  0.9134 -0.1211
 2642TIP3    H129341   3.053   3.593   5.965 -0.1333 -0.3667  1.3080
 2642TIP3    H229342   2.967   3.707   6.015 -0.3817 -0.7650  1.8030
 2643TIP3   OH229343   0.957   4.204   4.870 -0.5108 -0.1040  0.4813
 2643TIP3    H129344   0.949   4.238   4.781 -1.3492 -1.3834  0.0267
 2643TIP3    H229345   0.908   4.266   4.924  0.3269  0.8926  0.1327
 2644TIP3   OH229346   4.700   6.484   0.921  0.2914 -0.1319 -0.0498
 2644TIP3    H129347   4.735   6.538   0.850  0.5722 -2.0076 -1.4160
 2644TIP3    H229348   4.652   6.414   0.876  0.6275 -1.4866  1.6096
 2645TIP3   OH229349   4.846   0.276  16.880  0.1658 -0.0515 -0.0922
 2645TIP3    H129350   4.923   0.331  16.863 -0.8122  1.2866 -0.4190
 2645TIP3    H229351   4.800   0.271  16.796 -0.3119 -0.4853  0.1870
 2646TIP3   OH229352   4.623   6.008   4.427  0.5929 -0.3054 -0.0706
 2646TIP3    H129353   4.586   6.071   4.489  3.3159  0.7303  0.6349
 2646TIP3    H229354   4.568   6.016   4.350 -0.0213  1.9226  0.5041
 2647TIP3   OH229355   4.517   5.107   4.836 -0.3649  0.0062  0.1421
 2647TIP3    H129356   4.439   5.053   4.853 -0.5256  0.0592 -0.4000
 2647TIP3    H229357   4.490   5.196   4.855 -1.0347  0.2795 -1.8059
 2648TIP3   OH229358   2.566   4.693   0.074  0.3102  0.1168 -0.2380
 2648TIP3    H129359   2.656   4.709   0.045 -0.0282  1.3934 -0.6505
 2648TIP3    H229360   2.512   4.732   0.006 -0.5311  0.8738  0.8295
 2649TIP3   OH229361   0.579   5.398  16.408  0.4884 -0.2447  0.3826
 2649TIP3    H129362   0.631   5.375  16.331 -1.4214  1.2357 -1.4755
 2649TIP3    H229363   0.642   5.436  16.469  2.1365 -1.8825 -0.2092
 2650TIP3   OH229364   1.253   5.918   5.564  0.3730 -0.0479 -0.2196
 2650TIP3    H129365   1.307   5.963   5.629  2.6628 -1.7859 -0.7674
 2650TIP3    H229366   1.282   5.954   5.480 -0.7340  0.3653 -0.4353
 2651TIP3   OH229367   5.964   2.644   1.404 -0.3663  0.4524 -0.0234
 2651TIP3    H129368   5.995   2.706   1.338 -3.2440  0.3754 -1.5857
 2651TIP3    H229369   5.999   2.559   1.376 -0.0701  0.6960 -0.3931
 2652TIP3   OH229370   3.200   6.114   4.465  0.1476  0.5555  0.6011
 2652TIP3    H129371   3.280   6.086   4.509 -0.2047 -0.5614  0.5669
 2652TIP3    H229372   3.143   6.143   4.536  0.5902  1.3983  0.6213
 2653TIP3   OH229373   5.819   6.088  14.496 -0.0930  0.1172  0.6087
 2653TIP3    H129374   5.734   6.053  14.472 -0.2276  0.6991  0.2056
 2653TIP3    H229375   5.799   6.164  14.551  0.0406  2.0175 -1.8090
 2654TIP3   OH229376   3.806   1.070  16.716  0.2914  0.1122 -0.1815
 2654TIP3    H129377   3.844   1.087  16.803 -0.1507  0.0335  0.0271
 2654TIP3    H229378   3.789   1.157  16.680  1.3202  0.1711 -0.5717
 2655TIP3   OH229379   3.938   2.281   0.790  0.1428  0.0383 -0.6702
 2655TIP3    H129380   3.931   2.197   0.835  2.2569 -0.6365 -1.4935
 2655TIP3    H229381   4.030   2.307   0.801 -0.9613  3.7210  2.0176
 2656TIP3   OH229382   5.030   5.083   4.202  0.2905  0.1502 -0.2230
 2656TIP3    H129383   5.006   5.157   4.258 -0.0382 -0.9110  1.0870
 2656TIP3    H229384   5.111   5.049   4.241 -0.1757 -0.8726 -0.1300
 2657TIP3   OH229385   6.032   0.415   1.469  0.2955  0.5343 -0.2621
 2657TIP3    H129386   6.109   0.468   1.491  2.4344 -2.4773  0.1124
 2657TIP3    H229387   6.053   0.376   1.384 -1.6066  0.8994 -0.9528
 2658TIP3   OH229388   6.073   4.205   1.491 -0.7409  0.9934  0.6306
 2658TIP3    H129389   6.061   4.292   1.530 -0.7493  0.7923  1.0832
 2658TIP3    H229390   6.153   4.171   1.532 -0.0687  1.2636 -0.4226
 2659TIP3   OH229391   1.440   3.943  13.018 -0.3886 -1.0781  0.4861
 2659TIP3    H129392   1.490   3.953  13.099 -1.0507 -0.7489  0.8661
 2659TIP3    H229393   1.501   3.970  12.948  0.3318 -1.8015  0.8259
 2660TIP3   OH229394   3.657   3.676   1.524 -0.6099 -0.6433  0.0269
 2660TIP3    H129395   3.682   3.584   1.515 -1.6189 -1.1240  1.6580
 2660TIP3    H229396   3.706   3.707   1.600 -2.9496 -0.9254  1.7686
 2661TIP3   OH229397   0.455   0.739   0.323 -0.4352  0.1377 -0.2236
 2661TIP3    H129398   0.414   0.798   0.260 -0.8455 -2.2131 -2.2843
 2661TIP3    H229399   0.390   0.671   0.339  0.6986 -0.8004  0.6371
 2662TIP3   OH229400   0.786   2.007   0.569  0.1510  0.1105 -0.3855
 2662TIP3    H129401   0.766   1.922   0.609  0.2550 -0.6417 -1.8651
 2662TIP3    H229402   0.857   2.043   0.622 -1.8543  0.7027  2.1133
 2663TIP3   OH229403   6.243   3.852  13.800  0.6140  0.0559 -0.2758
 2663TIP3    H129404   6.285   3.933  13.829  0.0975  0.1811  0.1270
 2663TIP3    H229405   6.164   3.881  13.753 -0.7784 -0.2407  1.7511
 2664TIP3   OH229406   1.030   0.563  14.908 -0.5523 -0.5031  0.3140
 2664TIP3    H129407   1.037   0.651  14.944 -0.6293 -0.4993  0.3204
 2664TIP3    H229408   1.120   0.530  14.908 -0.7456 -1.1665  2.1878
 2665TIP3   OH229409   5.746   5.980  15.279 -1.0453  0.6575 -0.4779
 2665TIP3    H129410   5.693   5.917  15.327  0.0581  0.2376  0.2184
 2665TIP3    H229411   5.720   5.969  15.187 -0.5306 -1.1507 -0.4362
 2666TIP3   OH229412   1.676   4.562  11.982 -0.0144  0.2268  0.2936
 2666TIP3    H129413   1.602   4.512  11.945  0.0235  0.5226 -0.1928
 2666TIP3    H229414   1.636   4.617  12.049  0.0340 -0.9139  1.3047
 2667TIP3   OH229415   4.706   0.479   6.479 -0.4827  0.6280 -0.7688
 2667TIP3    H129416   4.743   0.411   6.422 -1.0541  0.0647 -0.4836
 2667TIP3    H229417   4.778   0.507   6.534 -0.2381  0.2677 -0.9053
 2668TIP3   OH229418   0.623   2.893   3.431  0.2536 -0.2325  0.0044
 2668TIP3    H129419   0.647   2.813   3.385  0.1185  0.6578 -1.7217
 2668TIP3    H229420   0.695   2.953   3.414  0.6230 -0.1425  1.7603
 2669TIP3   OH229421   0.432   2.042   3.761  0.3578 -0.0760  0.0512
 2669TIP3    H129422   0.363   1.995   3.807  0.6170 -1.3454 -0.7817
 2669TIP3    H229423   0.410   2.032   3.668  1.8415 -0.8700 -0.2593
 2670TIP3   OH229424   0.350   1.487   4.306 -0.1991 -0.1902 -0.3470
 2670TIP3    H129425   0.417   1.440   4.256  1.1276  0.0888  1.1116
 2670TIP3    H229426   0.386   1.575   4.318 -0.4267 -0.2866  1.1862
 2671TIP3   OH229427   1.819   0.493  14.329 -0.2326 -0.0197  0.3730
 2671TIP3    H129428   1.899   0.451  14.298 -0.6795 -0.1724 -0.6282
 2671TIP3    H229429   1.827   0.584  14.300  0.2403  0.3272  1.5729
 2672TIP3   OH229430   0.139   1.957   4.146  0.0693 -0.6410 -1.0197
 2672TIP3    H129431   0.096   1.926   4.227  1.0545 -1.7866 -0.9103
 2672TIP3    H229432   0.208   2.015   4.177 -0.6285  0.2845 -1.1447
 2673TIP3   OH229433   2.258   5.645   5.149  0.2074 -0.1473 -0.3982
 2673TIP3    H129434   2.189   5.682   5.094  1.0199 -0.8233 -1.9234
 2673TIP3    H229435   2.215   5.576   5.200 -0.7658  1.1473  0.6153
 2674TIP3   OH229436   3.450   1.012   0.080  0.1403  0.3005  0.0998
 2674TIP3    H129437   3.507   0.940   0.105 -0.8572 -0.9828 -1.1832
 2674TIP3    H229438   3.381   0.971   0.028 -0.2755  2.2263 -0.9499
 2675TIP3   OH229439   6.651   5.741   3.728 -0.3931 -0.5481 -0.5150
 2675TIP3    H129440   6.645   5.664   3.671 -0.0821 -0.5968 -0.4819
 2675TIP3    H229441   6.629   5.814   3.671  3.2800 -0.1488 -1.6880
 2676TIP3   OH229442   5.886   1.215  13.910  0.2635 -0.1580  0.3311
 2676TIP3    H129443   5.854   1.127  13.891 -0.1237 -0.6418  2.9605
 2676TIP3    H229444   5.833   1.245  13.983  0.6115  2.1637 -0.2920
 2677TIP3   OH229445   4.495   1.311   3.968  0.0474 -0.1381  0.9900
 2677TIP3    H129446   4.508   1.216   3.968 -1.3161 -0.3552  0.3910
 2677TIP3    H229447   4.503   1.337   4.059  0.4811 -0.8262  1.1522
 2678TIP3   OH229448   1.272   2.554  11.554  0.0650 -0.1106 -0.9858
 2678TIP3    H129449   1.205   2.566  11.487  0.0126 -0.4119 -0.9923
 2678TIP3    H229450   1.308   2.466  11.537 -0.4942 -0.5157 -0.1492
 2679TIP3   OH229451   1.070   0.018  12.016  0.4897  0.1125 -0.2252
 2679TIP3    H129452   1.093  -0.001  11.925 -0.4034  0.9862 -0.6413
 2679TIP3    H229453   1.005  -0.048  12.039  0.4616  0.1032 -0.3317
 2680TIP3   OH229454   3.516   1.487   1.675  0.4355  0.3418 -0.1235
 2680TIP3    H129455   3.605   1.523   1.668  0.0135  1.3542 -0.4379
 2680TIP3    H229456   3.459   1.559   1.648 -0.6743  0.7754  3.0291
 2681TIP3   OH229457   6.500   2.464  12.322 -0.2899  0.5191 -0.3738
 2681TIP3    H129458   6.574   2.500  12.372 -0.1191  0.9502 -0.9264
 2681TIP3    H229459   6.437   2.536  12.317 -0.8194  0.1075  0.2189
 2682TIP3   OH229460   1.440   5.561  16.262 -0.2237  0.4803 -0.2581
 2682TIP3    H129461   1.380   5.506  16.212 -0.6151 -0.4076  1.1457
 2682TIP3    H229462   1.416   5.650  16.238 -0.0633  0.0793 -2.0180
 2683TIP3   OH229463   3.947   5.856  12.863  0.1291 -1.2386 -0.4752
 2683TIP3    H129464   3.972   5.798  12.936  4.0093 -2.3438 -2.4159
 2683TIP3    H229465   4.030   5.887  12.827 -1.6952  3.1270 -1.6033
 2684TIP3   OH229466   3.388   5.126  12.746  0.1320 -0.1021 -0.7806
 2684TIP3    H129467   3.310   5.078  12.774  1.0568 -1.4497 -0.4187
 2684TIP3    H229468   3.357   5.185  12.677 -1.1370 -0.8651 -0.8862
 2685TIP3   OH229469   3.813   5.752  13.954  0.4989  0.0625  0.2179
 2685TIP3    H129470   3.736   5.808  13.941 -0.0162 -0.3299  1.4124
 2685TIP3    H229471   3.884   5.800  13.913  0.2331  2.0129  1.8483
 2686TIP3   OH229472   0.386   6.240  14.909  0.3057 -0.5241  0.6423
 2686TIP3    H129473   0.345   6.234  14.996  0.2582  0.6386  0.7179
 2686TIP3    H229474   0.477   6.216  14.924  0.5611  0.7418  1.2461
 2687TIP3   OH229475   2.223   4.790   2.761  0.1702 -0.0002 -0.2379
 2687TIP3    H129476   2.292   4.729   2.785  0.5463  0.6853  0.4467
 2687TIP3    H229477   2.150   4.768   2.819  1.0928  1.6858  1.6952
 2688TIP3   OH229478   0.386   5.505  11.403  0.2668 -0.1228 -0.1894
 2688TIP3    H129479   0.299   5.482  11.436  0.1437 -0.2124 -0.5607
 2688TIP3    H229480   0.368   5.544  11.317  0.5920 -0.1196 -0.2554
 2689TIP3   OH229481   0.301   3.145   1.498  0.8614  0.3903 -0.3036
 2689TIP3    H129482   0.260   3.099   1.425 -0.7890 -3.0635  2.4707
 2689TIP3    H229483   0.389   3.107   1.504  0.2970 -0.8554  0.5986
 2690TIP3   OH229484   2.997   1.457   4.163 -0.1886 -0.0153 -0.1162
 2690TIP3    H129485   2.975   1.424   4.250  0.9848 -0.8413 -0.1155
 2690TIP3    H229486   2.931   1.419   4.105 -0.9543  0.5094  0.3801
 2691TIP3   OH229487   3.768   4.172   6.517  0.1497 -0.1689  0.2956
 2691TIP3    H129488   3.745   4.100   6.576  0.2862 -0.2758  0.2211
 2691TIP3    H229489   3.861   4.157   6.497  0.1800  0.0340  0.2871
 2692TIP3   OH229490   2.973   6.069   1.360  0.1173 -0.6357 -0.0630
 2692TIP3    H129491   3.004   6.094   1.447  0.3590 -0.4914 -0.1901
 2692TIP3    H229492   3.008   5.981   1.346 -1.2283 -1.3170  0.6315
 2693TIP3   OH229493   6.500   5.021   2.572  0.1537 -0.0823  0.3435
 2693TIP3    H129494   6.456   4.938   2.556 -0.7471  0.5972 -0.8667
 2693TIP3    H229495   6.442   5.069   2.630 -0.3465  0.4819 -0.5874
 2694TIP3   OH229496   3.671   3.863   2.381  0.3708 -0.1774 -0.0437
 2694TIP3    H129497   3.666   3.776   2.420  0.5521 -0.3765 -0.4608
 2694TIP3    H229498   3.597   3.910   2.418  0.9043 -0.1605  1.0288
 2695TIP3   OH229499   6.470   5.373   4.726 -0.6881  0.8690 -0.3535
 2695TIP3    H129500   6.441   5.456   4.761 -0.8624  1.0538 -0.9192
 2695TIP3    H229501   6.392   5.336   4.684 -0.1906  1.2476 -1.6498
 2696TIP3   OH229502   1.404   1.917   2.569  0.6944 -0.2312  0.2241
 2696TIP3    H129503   1.322   1.869   2.578  0.4234 -0.0006 -0.8259
 2696TIP3    H229504   1.462   1.856   2.522  0.1455  0.6475 -1.6779
 2697TIP3   OH229505   0.953   3.616   4.231 -0.3665 -0.3405 -0.3391
 2697TIP3    H129506   0.906   3.682   4.179 -0.5945  1.4322  1.9803
 2697TIP3    H229507   1.015   3.577   4.169 -0.3314  1.9375 -1.8647
 2698TIP3   OH229508   2.980   3.641   3.284  0.1071  0.3980  0.2687
 2698TIP3    H129509   2.919   3.670   3.215 -1.7401  0.6674  1.9281
 2698TIP3    H229510   3.001   3.551   3.260  0.1091  0.7106 -1.0327
 2699TIP3   OH229511   5.502   5.868   3.790 -0.0754  0.4960 -0.4100
 2699TIP3    H129512   5.487   5.901   3.878  1.3507 -1.0654  0.4825
 2699TIP3    H229513   5.481   5.942   3.733 -1.4699  1.4025  1.1847
 2700TIP3   OH229514   2.676   4.418   1.641  0.0964  0.1385 -0.3385
 2700TIP3    H129515   2.733   4.460   1.578  1.2640  0.9035  1.1799
 2700TIP3    H229516   2.695   4.324   1.632 -0.6614  0.1014 -1.9387
 2701TIP3   OH229517   5.799   4.951  14.397  0.4021  0.0088 -0.3481
 2701TIP3    H129518   5.806   4.863  14.433 -1.9145 -0.4917 -0.9419
 2701TIP3    H229519   5.782   4.937  14.304  0.7681  1.1198 -0.5978
 2702TIP3   OH229520   1.514   3.548   3.622  0.1112  0.0962  0.1180
 2702TIP3    H129521   1.533   3.569   3.713 -1.0256 -1.8526  0.8818
 2702TIP3    H229522   1.474   3.627   3.586  2.5636  1.6471  0.6095
 2703TIP3   OH229523   5.050   0.381  12.077  0.4144 -0.6418 -0.0167
 2703TIP3    H129524   5.031   0.397  12.169  0.9223  2.8546 -0.3911
 2703TIP3    H229525   5.142   0.356  12.076  0.0464 -2.1216  0.4860
 2704TIP3   OH229526   2.250   2.721  13.853 -0.2019 -0.4303  0.0986
 2704TIP3    H129527   2.286   2.761  13.932 -0.9421  0.5528 -0.0457
 2704TIP3    H229528   2.159   2.701  13.876 -0.3684 -0.3040 -0.4420
 2705TIP3   OH229529   3.385   2.021  10.922  0.4508 -0.2127  0.4245
 2705TIP3    H129530   3.378   2.112  10.892  1.2812  0.3509  1.8785
 2705TIP3    H229531   3.464   2.019  10.975  1.8478 -2.3720 -1.5305
 2706TIP3   OH229532   4.152   1.153   1.648 -0.0911  0.3418  0.6839
 2706TIP3    H129533   4.211   1.221   1.617  0.3838  0.2167  1.2996
 2706TIP3    H229534   4.157   1.158   1.743 -1.8947  1.0350  0.7726
 2707TIP3   OH229535   3.458   0.197  11.593 -0.8521  0.8123  0.2280
 2707TIP3    H129536   3.486   0.164  11.678 -1.2685 -0.3937 -0.0790
 2707TIP3    H229537   3.511   0.149  11.530 -0.4958  1.7487 -0.1997
 2708TIP3   OH229538   1.130   0.033   0.244  0.5096 -0.0176  0.5385
 2708TIP3    H129539   1.215   0.010   0.206  1.0217  1.6788  0.5793
 2708TIP3    H229540   1.066  -0.013   0.189  1.3539  0.3485 -0.7938
 2709TIP3   OH229541   0.276   5.809  14.194 -0.4074  0.3716  0.4654
 2709TIP3    H129542   0.332   5.778  14.123 -0.8887  0.2368  0.1368
 2709TIP3    H229543   0.294   5.902  14.200 -0.2938  0.3657  0.2291
 2710TIP3   OH229544   3.515   1.770  13.718 -0.2037 -0.2161  0.5353
 2710TIP3    H129545   3.525   1.725  13.634  0.0380  0.2100  0.3314
 2710TIP3    H229546   3.430   1.813  13.713 -0.4110 -0.6104  0.7089
 2711TIP3   OH229547   6.274   1.146   2.278  0.3061 -0.1001 -0.4218
 2711TIP3    H129548   6.250   1.238   2.263  1.1126  0.1966  0.0358
 2711TIP3    H229549   6.246   1.128   2.368  1.2687  0.0829 -0.0768
 2712TIP3   OH229550   0.069   4.578  13.067 -0.0652  0.0317 -0.2813
 2712TIP3    H129551   0.023   4.633  13.004  0.3395  0.8455  0.1323
 2712TIP3    H229552   0.142   4.541  13.017 -0.3526 -0.1636 -0.5633
 2713TIP3   OH229553   6.454   6.318  14.575  0.1598 -0.3404  0.2144
 2713TIP3    H129554   6.465   6.347  14.666  0.4421  0.0970  0.0414
 2713TIP3    H229555   6.543   6.300  14.545 -0.0450 -2.0695  0.5305
 2714TIP3   OH229556   5.791   0.819  14.652 -0.4638  0.0977  0.7836
 2714TIP3    H129557   5.847   0.771  14.713 -0.1886 -3.5157 -1.9927
 2714TIP3    H229558   5.840   0.899  14.633  1.4690 -0.7236  1.9846
 2715TIP3   OH229559   1.779   6.172   2.965  0.2449 -0.0648  0.4084
 2715TIP3    H129560   1.873   6.158   2.951  0.4470 -0.6767  2.1525
 2715TIP3    H229561   1.739   6.150   2.881  1.7007  0.8891 -0.5991
 2716TIP3   OH229562   0.519   3.198   0.145 -0.4056  0.2913  0.0022
 2716TIP3    H129563   0.512   3.226   0.053  1.2604  0.6918 -0.0402
 2716TIP3    H229564   0.611   3.171   0.154 -0.2611  1.2802  1.8232
 2717TIP3   OH229565   3.618   1.205  13.144  0.0525  0.4568 -0.1124
 2717TIP3    H129566   3.564   1.129  13.125  1.7285 -0.7648 -0.2571
 2717TIP3    H229567   3.583   1.274  13.087 -0.4119 -0.7072 -1.3061
 2718TIP3   OH229568   6.219   5.418  14.056 -0.3835  0.2598  0.1818
 2718TIP3    H129569   6.287   5.409  14.123 -3.0221 -0.4081  2.9741
 2718TIP3    H229570   6.215   5.512  14.039  0.5755  0.4042  0.6690
 2719TIP3   OH229571   3.346   4.473  10.870  0.7461 -0.4051 -0.3022
 2719TIP3    H129572   3.296   4.448  10.792 -0.8172  1.1266  0.1301
 2719TIP3    H229573   3.403   4.544  10.840  0.7346 -0.3676 -0.2359
 2720TIP3   OH229574   0.382   5.792   3.480  0.0812  0.1378  0.2038
 2720TIP3    H129575   0.384   5.731   3.554 -2.8473 -0.0879  0.2018
 2720TIP3    H229576   0.385   5.878   3.520  0.9444  0.0347  0.3941
 2721TIP3   OH229577   0.360   3.460  16.997 -0.3162 -0.2166 -0.0656
 2721TIP3    H129578   0.272   3.423  16.997 -1.3145  1.9944  0.1814
 2721TIP3    H229579   0.370   3.499  17.084 -0.2308  1.9260 -0.9654
 2722TIP3   OH229580   1.973   1.725   6.569 -0.4411  0.2205  0.3288
 2722TIP3    H129581   1.968   1.780   6.490 -1.3207  0.8981  0.8391
 2722TIP3    H229582   1.886   1.731   6.608  0.7844  2.5384  3.0915
 2723TIP3   OH229583   3.269   2.838  14.341 -0.5307 -0.1535  0.1418
 2723TIP3    H129584   3.233   2.802  14.260  0.4318 -0.9656  0.0478
 2723TIP3    H229585   3.224   2.789  14.410  0.1910 -1.0153  0.0298
 2724TIP3   OH229586   0.331   6.540   5.509  0.2523  0.5283  0.3191
 2724TIP3    H129587   0.280   6.554   5.589 -0.0157 -0.8806  0.4130
 2724TIP3    H229588   0.295   6.460   5.471 -1.0724  2.2022 -2.3375
 2725TIP3   OH229589   5.662   6.644  14.753  0.2441  0.4577 -0.6897
 2725TIP3    H129590   5.666   6.707  14.681 -0.0043  0.6693 -0.5159
 2725TIP3    H229591   5.645   6.560  14.710 -0.9995  0.7544 -0.7869
 2726TIP3   OH229592   1.700   6.086   6.599 -0.2789 -0.8324  0.4224
 2726TIP3    H129593   1.686   5.992   6.604  0.6076 -1.0594 -0.7900
 2726TIP3    H229594   1.613   6.123   6.588 -0.5546 -1.6009 -0.0473
 2727TIP3   OH229595   1.180   1.250   3.251  0.8959 -0.2847  0.5539
 2727TIP3    H129596   1.273   1.257   3.229  0.6540 -0.6926 -0.6740
 2727TIP3    H229597   1.141   1.203   3.177 -0.0409 -1.4317  1.7217
 2728TIP3   OH229598   3.818   5.409   0.385 -0.6949  0.3817  0.1969
 2728TIP3    H129599   3.762   5.450   0.320 -0.1333  0.9175  0.0398
 2728TIP3    H229600   3.902   5.454   0.376  0.1341 -1.2364 -0.4126
 2729TIP3   OH229601   1.930   5.141  15.899  0.5525  0.5688  0.1585
 2729TIP3    H129602   1.860   5.185  15.948  0.4519 -1.0391  1.5750
 2729TIP3    H229603   2.009   5.158  15.950  0.5730 -0.5097  0.5198
 2730TIP3   OH229604   6.276   0.317  11.560  0.4103 -0.5931  0.3053
 2730TIP3    H129605   6.202   0.377  11.566  1.6189  1.0584 -0.6435
 2730TIP3    H229606   6.247   0.250  11.499 -0.6101 -0.4684  0.6284
 2731TIP3   OH229607   5.880   4.036  10.836  0.1695 -0.4512 -0.1377
 2731TIP3    H129608   5.793   4.020  10.801  0.8050 -1.6851 -1.2403
 2731TIP3    H229609   5.911   3.951  10.866  1.2586 -0.1712 -0.3932
 2732TIP3   OH229610   5.946   4.122  10.388  0.0856 -0.5067  0.3465
 2732TIP3    H129611   5.925   4.114  10.295  1.4825 -0.3009 -0.0218
 2732TIP3    H229612   5.925   4.213  10.409 -1.0892 -0.7936  0.4863
 2733TIP3   OH229613   4.006   0.607  16.297  0.2482 -0.1142  0.3825
 2733TIP3    H129614   3.958   0.673  16.348  1.0648  0.3439  0.5807
 2733TIP3    H229615   3.957   0.599  16.216 -0.1492  0.3678  0.5679
 2734TIP3   OH229616   0.930   4.427  11.636  0.0499 -0.2547 -0.0902
 2734TIP3    H129617   0.939   4.487  11.710 -0.6708  1.5062 -1.3640
 2734TIP3    H229618   0.927   4.340  11.676  0.4158  0.5812  1.8761
 2735TIP3   OH229619   6.652   2.090   3.223 -0.2454 -0.1797 -0.8395
 2735TIP3    H129620   6.608   2.019   3.269  0.4259 -0.3121 -0.3830
 2735TIP3    H229621   6.674   2.053   3.137  1.5862 -1.1093 -0.0149
 2736TIP3   OH229622   0.950   5.371  15.176 -0.4560 -0.1718 -0.2147
 2736TIP3    H129623   1.012   5.371  15.249 -0.2433 -1.1202 -0.3855
 2736TIP3    H229624   0.923   5.280  15.168 -2.8588  0.3593  0.6944
 2737TIP3   OH229625   4.300   3.918  11.760  0.3336 -0.4189 -0.6403
 2737TIP3    H129626   4.247   3.989  11.723  0.3470  0.9700  1.7854
 2737TIP3    H229627   4.266   3.839  11.719 -0.8535  0.8073 -2.1695
 2738TIP3   OH229628   2.730   3.979  15.772 -0.3583  0.5453 -0.1210
 2738TIP3    H129629   2.782   3.900  15.786 -0.9711  0.1495 -0.0302
 2738TIP3    H229630   2.754   4.009  15.684 -0.2086  0.1940 -0.1990
 2739TIP3   OH229631   4.294   4.484   5.616 -0.4048  0.4371  0.4817
 2739TIP3    H129632   4.316   4.475   5.708 -2.6083 -2.1304  0.8762
 2739TIP3    H229633   4.218   4.543   5.615  1.1827  2.6353 -0.0694
 2740TIP3   OH229634   2.549   6.544  13.544 -0.4546 -0.0531 -0.0989
 2740TIP3    H129635   2.597   6.612  13.591 -4.2572  2.8481  0.0056
 2740TIP3    H229636   2.527   6.479  13.611  0.9311 -0.0600  0.3787
 2741TIP3   OH229637   4.253   4.920  14.543  0.3356 -0.4211  0.0441
 2741TIP3    H129638   4.274   4.932  14.636 -1.9634  0.9855  0.4560
 2741TIP3    H229639   4.290   4.997  14.500  1.0269 -0.8621 -0.1774
 2742TIP3   OH229640   2.602   0.871  12.512 -0.9255 -0.1968 -0.2034
 2742TIP3    H129641   2.642   0.903  12.593  2.0288 -2.5198 -0.5778
 2742TIP3    H229642   2.642   0.922  12.443 -1.2378 -0.1865 -0.3782
 2743TIP3   OH229643   3.078   0.827  14.942 -0.0483  0.0393  0.2104
 2743TIP3    H129644   3.151   0.884  14.915  1.6614 -1.1745  1.9951
 2743TIP3    H229645   3.047   0.788  14.860  0.3298  1.6805 -0.7601
 2744TIP3   OH229646   4.320   6.067   1.456  0.0648 -0.5797  0.2637
 2744TIP3    H129647   4.387   6.136   1.452 -1.4368  0.9533  0.1544
 2744TIP3    H229648   4.369   5.987   1.472  2.0586  0.2465 -1.2271
 2745TIP3   OH229649   4.912   1.117   0.246  0.0184  0.3678  0.3893
 2745TIP3    H129650   4.828   1.077   0.267 -1.0038  2.7675  1.2099
 2745TIP3    H229651   4.955   1.128   0.331  0.3925  0.6952  0.1616
 2746TIP3   OH229652   0.919   6.768  14.599 -0.2685  0.2692  0.1915
 2746TIP3    H129653   0.880   6.736  14.681 -1.1986  2.6753  0.7675
 2746TIP3    H229654   0.961   6.851  14.623  1.9358 -0.3427 -1.2359
 2747TIP3   OH229655   5.571   3.346   2.801 -0.2139  0.3862 -0.4144
 2747TIP3    H129656   5.611   3.345   2.888 -0.0003  0.6756 -0.5081
 2747TIP3    H229657   5.508   3.418   2.805 -1.0741 -0.3637 -0.1159
 2748TIP3   OH229658   6.204   2.935   3.838  0.3430 -0.0946 -0.2530
 2748TIP3    H129659   6.192   2.921   3.744  0.4813  0.6858 -0.3955
 2748TIP3    H229660   6.279   2.995   3.844 -0.0709  0.3776  0.3210
 2749TIP3   OH229661   0.319   4.824  10.682  0.3622 -0.4178  0.2564
 2749TIP3    H129662   0.290   4.880  10.610 -1.2327 -1.0927  0.3358
 2749TIP3    H229663   0.273   4.858  10.759  0.8993 -0.6239  0.6776
 2750TIP3   OH229664   0.260   5.188   3.208  0.0822 -0.2783  0.6604
 2750TIP3    H129665   0.194   5.179   3.276 -0.3844  1.1058  0.4409
 2750TIP3    H229666   0.315   5.260   3.237 -0.5944  0.8729 -0.7379
 2751TIP3   OH229667   2.277   3.585   3.519 -0.0938 -0.1850  0.0573
 2751TIP3    H129668   2.300   3.512   3.461 -0.6350 -0.5773  0.3309
 2751TIP3    H229669   2.281   3.662   3.463 -0.0768 -0.4937 -0.3705
 2752TIP3   OH229670   0.812   2.522  12.365  0.1683 -0.3353  0.3168
 2752TIP3    H129671   0.798   2.493  12.455  2.2641 -0.1830  0.7587
 2752TIP3    H229672   0.907   2.528  12.357 -0.0127  0.8883 -1.5265
 2753TIP3   OH229673   4.594   0.684  16.217 -0.0607 -0.3967 -0.1852
 2753TIP3    H129674   4.522   0.712  16.160 -0.5198  0.1865  0.6549
 2753TIP3    H229675   4.616   0.597  16.186 -1.0933 -0.5678 -0.5028
 2754TIP3   OH229676   0.583   1.732  16.873  0.2937 -0.4664 -0.3650
 2754TIP3    H129677   0.521   1.665  16.844 -0.6733  0.3678 -0.3010
 2754TIP3    H229678   0.528   1.806  16.899  1.2776 -0.0420  0.6263
 2755TIP3   OH229679   3.445   2.374  15.750 -0.5527  0.3715 -0.0697
 2755TIP3    H129680   3.470   2.444  15.689 -1.1161 -0.0426 -0.8038
 2755TIP3    H229681   3.498   2.389  15.828 -0.4478  1.4356 -0.3340
 2756TIP3   OH229682   5.842   5.610   2.975 -0.5263  0.0757  0.2935
 2756TIP3    H129683   5.880   5.629   2.889  1.2695 -1.3561  0.7182
 2756TIP3    H229684   5.896   5.659   3.037  1.0070 -2.2657  0.9366
 2757TIP3   OH229685   1.994   5.218  11.504 -0.1984 -0.6396 -0.3255
 2757TIP3    H129686   1.906   5.195  11.535 -1.4617 -1.9305 -4.2214
 2757TIP3    H229687   2.042   5.135  11.504  0.2458 -0.3871 -0.3522
 2758TIP3   OH229688   3.659   5.627  13.713  0.4915  0.2873  0.1863
 2758TIP3    H129689   3.632   5.536  13.728  0.1008  0.3097 -0.3344
 2758TIP3    H229690   3.666   5.665  13.801  0.0021 -0.0627  0.3846
 2759TIP3   OH229691   0.614   5.856   3.699  0.3544  0.5171  0.5957
 2759TIP3    H129692   0.559   5.929   3.726 -0.7288  0.7219 -1.8722
 2759TIP3    H229693   0.703   5.885   3.717 -0.1835  1.1939  2.3795
 2760TIP3   OH229694   0.289   2.307  13.074  0.3190 -0.0772  0.2690
 2760TIP3    H129695   0.328   2.346  12.996  1.0790  2.5784  1.8484
 2760TIP3    H229696   0.340   2.228  13.089  0.8238 -0.0914 -1.3322
 2761TIP3   OH229697   2.261   6.279  16.449 -0.2157 -0.1728 -0.1218
 2761TIP3    H129698   2.183   6.334  16.441 -0.6583 -0.7822 -0.0602
 2761TIP3    H229699   2.227   6.191  16.468  0.4030 -0.8238 -1.8258
 2762TIP3   OH229700   6.717   1.269  11.646 -0.6033 -0.0364 -0.3588
 2762TIP3    H129701   6.749   1.197  11.591 -0.0859 -0.3625  0.3652
 2762TIP3    H229702   6.731   1.347  11.593  0.5241 -0.2732 -0.4433
 2763TIP3   OH229703   4.944   3.935  16.908 -0.0689 -0.1103 -0.8827
 2763TIP3    H129704   4.961   3.877  16.982  0.3217  1.2761  0.1741
 2763TIP3    H229705   4.878   3.997  16.941  0.5855  0.9255 -1.4578
 2764TIP3   OH229706   0.857   5.637   5.742 -0.2770 -0.5202  0.0547
 2764TIP3    H129707   0.812   5.670   5.820  0.5470 -0.6490  0.6024
 2764TIP3    H229708   0.908   5.712   5.711 -0.4227 -0.5371 -0.2229
 2765TIP3   OH229709   3.205   3.005  10.701  0.8898 -0.5233 -0.1858
 2765TIP3    H129710   3.300   3.018  10.701  0.9885 -0.7744  2.2724
 2765TIP3    H229711   3.170   3.086  10.738  0.2409 -0.8211 -0.1451
 2766TIP3   OH229712   5.756   2.402   4.028  0.3128 -0.7281 -0.2833
 2766TIP3    H129713   5.745   2.330   3.966  0.5597 -0.5985 -0.4773
 2766TIP3    H229714   5.838   2.444   4.002  0.1981 -0.4093 -0.1347
 2767TIP3   OH229715   2.567   3.368  15.026  0.0389 -0.3343 -0.3118
 2767TIP3    H129716   2.494   3.357  14.966 -0.3372  0.0352  0.0697
 2767TIP3    H229717   2.532   3.341  15.111  0.0999  0.6138  0.0250
 2768TIP3   OH229718   5.484   3.352   1.173  0.5387  0.2657 -0.2089
 2768TIP3    H129719   5.404   3.315   1.135 -0.0837  3.3272 -2.3003
 2768TIP3    H229720   5.537   3.378   1.097  1.6085  2.0360  1.0568
 2769TIP3   OH229721   0.918   5.478  13.887 -0.0506  0.0320  0.1107
 2769TIP3    H129722   0.925   5.450  13.796  1.0725 -1.0119  0.5012
 2769TIP3    H229723   0.827   5.508  13.895 -0.9822 -2.3297 -0.6737
 2770TIP3   OH229724   1.619   3.082  17.169  0.2856 -0.6738 -0.4166
 2770TIP3    H129725   1.572   3.036  17.238  0.6715  0.3832  0.5871
 2770TIP3    H229726   1.646   3.164  17.209  4.1796 -1.7512 -0.4742
 2771TIP3   OH229727   0.698   3.494  11.074  0.1549 -0.1080  0.0777
 2771TIP3    H129728   0.793   3.480  11.081  0.2492  0.0419 -0.7672
 2771TIP3    H229729   0.689   3.587  11.050 -0.0835 -0.5624 -1.8016
 2772TIP3   OH229730   6.045   5.431  15.483 -0.0887 -0.1696  0.2217
 2772TIP3    H129731   6.023   5.453  15.393 -0.5517  1.0627  0.6159
 2772TIP3    H229732   6.117   5.369  15.476 -0.2826 -0.2765 -0.9946
 2773TIP3   OH229733   6.347   2.546  11.678 -0.4812 -0.1234 -0.1721
 2773TIP3    H129734   6.271   2.559  11.621  0.1041  2.6266 -0.4646
 2773TIP3    H229735   6.315   2.569  11.766 -0.6896 -1.8230  0.2417
 2774TIP3   OH229736   6.523   2.694  15.604  0.0649 -0.0596 -0.3264
 2774TIP3    H129737   6.545   2.719  15.694 -1.6084  0.9367 -0.1468
 2774TIP3    H229738   6.519   2.598  15.606  2.8379 -0.2433 -0.0815
 2775TIP3   OH229739   2.299   2.021   3.628  0.1198  0.3641 -0.0911
 2775TIP3    H129740   2.394   2.007   3.627  0.0941  0.0145  0.8625
 2775TIP3    H229741   2.278   2.048   3.539  0.8529 -1.2816 -0.8092
 2776TIP3   OH229742   3.595   6.741  11.397 -0.4355 -0.5438  0.1680
 2776TIP3    H129743   3.539   6.665  11.386  0.2900 -1.3919  1.8606
 2776TIP3    H229744   3.569   6.801  11.328  0.1697 -3.0124 -2.3672
 2777TIP3   OH229745   0.319   4.315  12.692  0.2535  0.3715 -0.2411
 2777TIP3    H129746   0.392   4.375  12.678 -0.4415  0.8533 -2.1357
 2777TIP3    H229747   0.345   4.235  12.646 -0.1358  0.3419 -0.4187
 2778TIP3   OH229748   3.028   5.013   1.500  0.0925  0.1181  0.0002
 2778TIP3    H129749   3.116   5.011   1.537  0.6444  0.5133 -1.2249
 2778TIP3    H229750   2.999   4.922   1.501  0.7548 -0.1004 -0.1359
 2779TIP3   OH229751   6.561   6.148  12.305  0.9187 -0.2130 -0.2006
 2779TIP3    H129752   6.559   6.182  12.216  0.3287  1.7306  0.4949
 2779TIP3    H229753   6.539   6.224  12.360 -1.6446 -1.9757  1.4326
 2780TIP3   OH229754   4.673   2.941   4.968 -0.5744 -0.6926  0.3977
 2780TIP3    H129755   4.601   2.891   5.008  2.1114 -3.8657  1.6805
 2780TIP3    H229756   4.688   2.898   4.884  1.2563 -1.6103  1.1565
 2781TIP3   OH229757   6.023   0.469   0.528  0.2469  0.1033  0.1920
 2781TIP3    H129758   5.956   0.401   0.538  1.0150 -0.6884  0.0864
 2781TIP3    H229759   6.033   0.507   0.616 -0.3617  0.2606  0.1980
 2782TIP3   OH229760   6.678   3.108   0.987 -0.4240 -0.3428 -0.6613
 2782TIP3    H129761   6.658   3.141   0.900 -0.7333  0.1736 -0.4049
 2782TIP3    H229762   6.771   3.127   1.000 -0.4290 -0.2236 -0.7978
 2783TIP3   OH229763   6.473   5.269   5.428  0.2075 -1.0073  0.1603
 2783TIP3    H129764   6.525   5.203   5.474 -1.5741 -1.4400  1.6458
 2783TIP3    H229765   6.419   5.218   5.367 -1.1771 -0.9824  1.3126
 2784TIP3   OH229766   5.688   6.453  10.960 -0.1076  0.2430  0.4700
 2784TIP3    H129767   5.712   6.503  10.882  0.6866 -1.6008 -0.5305
 2784TIP3    H229768   5.721   6.505  11.033  0.4468  1.3027 -0.5106
 2785TIP3   OH229769   6.036   5.373  14.287  0.5250 -0.0843  0.0964
 2785TIP3    H129770   6.058   5.457  14.327 -0.2450  0.6022 -0.8646
 2785TIP3    H229771   6.094   5.368  14.211  1.8287 -1.2767  1.1259
 2786TIP3   OH229772   2.417   2.975   0.276 -0.3882  0.6432 -0.0370
 2786TIP3    H129773   2.506   2.999   0.252  0.8156  0.9784  3.9996
 2786TIP3    H229774   2.424   2.882   0.301 -1.4681  0.3515 -0.7566
 2787TIP3   OH229775   5.410   0.893   2.446  0.5943 -0.3740 -0.4753
 2787TIP3    H129776   5.469   0.905   2.520  1.2692  0.7941 -1.1760
 2787TIP3    H229777   5.433   0.807   2.410  1.4962 -0.1622 -0.4163
 2788TIP3   OH229778   5.701   5.764   5.200  0.6288 -0.2285 -0.0435
 2788TIP3    H129779   5.720   5.675   5.228 -1.6976 -0.6112  0.5254
 2788TIP3    H229780   5.685   5.812   5.281 -0.6322  0.0522 -0.4362
 2789TIP3   OH229781   4.302   6.311  11.350  0.0856 -0.5478 -0.1243
 2789TIP3    H129782   4.354   6.316  11.431 -0.0725  1.2928 -0.0943
 2789TIP3    H229783   4.335   6.383  11.296 -2.1921  0.4791 -0.2438
 2790TIP3   OH229784   3.925   5.937  12.323  0.2483  0.2555  0.2756
 2790TIP3    H129785   3.835   5.945  12.292  0.2786 -0.0841  0.0884
 2790TIP3    H229786   3.977   5.935  12.242  0.3236 -0.7284  0.3429
 2791TIP3   OH229787   5.734   3.785  14.369 -0.2878  0.0825  0.2143
 2791TIP3    H129788   5.747   3.840  14.291 -1.6234 -1.9060 -1.5174
 2791TIP3    H229789   5.781   3.704  14.349  0.1676 -0.1122  1.9456
 2792TIP3   OH229790   3.451   2.669  13.945 -0.0087  0.1055  0.0289
 2792TIP3    H129791   3.432   2.576  13.932 -0.9252  0.3253 -0.3262
 2792TIP3    H229792   3.462   2.703  13.856 -1.2142  0.6229  0.0611
 2793TIP3   OH229793   3.613   5.837  15.172 -0.2234  0.4472  0.5445
 2793TIP3    H129794   3.532   5.797  15.202 -0.1271  0.2050  0.4816
 2793TIP3    H229795   3.678   5.814  15.239 -0.7195  2.6669  1.8922
 2794TIP3   OH229796   2.129   3.076   6.081  0.3605  0.2219 -0.1996
 2794TIP3    H129797   2.051   3.021   6.090  0.7787 -0.3380  0.0715
 2794TIP3    H229798   2.177   3.064   6.163  1.9923 -1.4382 -1.3159
 2795TIP3   OH229799   4.944   4.584  13.681 -0.4361  0.4154  0.4467
 2795TIP3    H129800   4.976   4.503  13.642 -2.1389 -0.4199  0.7007
 2795TIP3    H229801   4.975   4.581  13.772  1.7847  1.3842 -0.2128
 2796TIP3   OH229802   3.351   4.805   1.400 -0.5582  0.7540  0.1151
 2796TIP3    H129803   3.272   4.810   1.346 -1.6275  0.9490  1.6634
 2796TIP3    H229804   3.370   4.712   1.405  0.1455  0.7803 -1.3862
 2797TIP3   OH229805   5.616   4.550   3.621 -0.1277 -0.3177 -0.1268
 2797TIP3    H129806   5.619   4.526   3.529 -0.3937  0.2734 -0.2978
 2797TIP3    H229807   5.522   4.559   3.641 -0.0856 -0.7297  0.2799
 2798TIP3   OH229808   2.579   4.601   4.196  0.2904  0.3774  0.2182
 2798TIP3    H129809   2.539   4.537   4.255  0.4611 -0.3252 -0.4133
 2798TIP3    H229810   2.506   4.633   4.143  0.2820  0.3618  0.2205
 2799TIP3   OH229811   1.006   2.134  13.142  0.4056  0.2168 -0.1403
 2799TIP3    H129812   1.074   2.156  13.205  0.9997  0.1052 -0.7218
 2799TIP3    H229813   1.016   2.199  13.072  1.9721 -1.5686 -1.7263
 2800TIP3   OH229814   1.440   6.763  14.954  0.0253 -0.1846 -0.0619
 2800TIP3    H129815   1.502   6.691  14.947 -2.0025 -1.9069 -1.8421
 2800TIP3    H229816   1.364   6.735  14.902 -2.8597  1.1739  3.0115
 2801TIP3   OH229817   1.555   3.376   5.932  0.1075  0.5087 -0.0614
 2801TIP3    H129818   1.515   3.289   5.938  1.8337 -0.2475  0.9384
 2801TIP3    H229819   1.483   3.437   5.952 -0.5536 -0.7983  1.7316
 2802TIP3   OH229820   4.863   5.963  14.693  0.1915 -0.2237 -0.0027
 2802TIP3    H129821   4.836   6.012  14.615 -0.1849 -0.0749  0.2154
 2802TIP3    H229822   4.796   5.895  14.704 -1.1481  1.2454  1.5634
 2803TIP3   OH229823   0.620   3.502   4.455  0.0535  0.2103  0.4607
 2803TIP3    H129824   0.700   3.465   4.490  1.0928  0.7832 -1.1705
 2803TIP3    H229825   0.554   3.434   4.467  1.3607 -1.2733 -0.3625
 2804TIP3   OH229826   3.133   2.329   3.053 -0.1285  0.1483 -0.3662
 2804TIP3    H129827   3.184   2.387   2.996  2.3217  0.5911  2.0417
 2804TIP3    H229828   3.096   2.387   3.119 -0.2343 -0.6643  0.2982
 2805TIP3   OH229829   3.994   5.631   4.059  0.4102 -0.2063  0.0817
 2805TIP3    H129830   4.054   5.560   4.036  1.2142  0.8542 -1.2842
 2805TIP3    H229831   4.012   5.699   3.993 -0.0627  1.4041  1.5566
 2806TIP3   OH229832   0.943   6.198  12.313  0.1055  0.0581 -0.0485
 2806TIP3    H129833   1.014   6.197  12.377  0.5596 -1.7339 -0.5121
 2806TIP3    H229834   0.871   6.243  12.357  0.9835  0.4183  1.0518
 2807TIP3   OH229835   4.540   1.361   2.971 -0.0332  0.4876  0.3670
 2807TIP3    H129836   4.457   1.320   2.949  0.1969  0.8142 -1.1953
 2807TIP3    H229837   4.606   1.309   2.925  0.5842  0.5777  1.1208
 2808TIP3   OH229838   2.439   1.532  13.808  0.0217 -0.7300 -0.3378
 2808TIP3    H129839   2.380   1.556  13.738  1.5396  2.1142 -0.7872
 2808TIP3    H229840   2.518   1.501  13.764  1.5009  2.3431 -0.0767
 2809TIP3   OH229841   4.424   3.342   2.531 -0.3539  0.3633  0.3791
 2809TIP3    H129842   4.490   3.393   2.578  0.8096 -0.8070  0.0537
 2809TIP3    H229843   4.471   3.266   2.498 -1.4555  0.4373 -1.4750
 2810TIP3   OH229844   4.297   3.133   2.322 -0.0712  0.0041 -0.1140
 2810TIP3    H129845   4.316   3.213   2.273  0.3156 -0.5951 -0.9604
 2810TIP3    H229846   4.219   3.098   2.280  0.1850 -0.4429 -0.2188
 2811TIP3   OH229847   0.061   1.750  13.382 -0.0036  0.5659  0.2662
 2811TIP3    H129848  -0.026   1.711  13.373  1.0601 -2.7917  2.5270
 2811TIP3    H229849   0.107   1.721  13.303 -0.2642  0.2577  0.2205
 2812TIP3   OH229850   0.999   0.564  13.899 -0.1553  0.2857  0.3227
 2812TIP3    H129851   1.085   0.605  13.904  0.3352 -0.5329 -0.8718
 2812TIP3    H229852   1.008   0.498  13.830 -2.3331  1.6670 -1.4620
 2813TIP3   OH229853   3.790   1.287   0.676 -0.1940  0.2816  0.3026
 2813TIP3    H129854   3.797   1.201   0.634  1.6836 -0.4346  1.9247
 2813TIP3    H229855   3.720   1.277   0.740 -1.7096  0.7911 -1.1829
 2814TIP3   OH229856   5.139   0.527  15.109  1.0351 -0.0930  0.0925
 2814TIP3    H129857   5.207   0.586  15.076  0.9474 -0.0383  0.0095
 2814TIP3    H229858   5.160   0.516  15.201  1.4438 -0.4664 -0.0408
 2815TIP3   OH229859   3.291   6.361  13.453 -0.1613 -0.5366  0.3357
 2815TIP3    H129860   3.219   6.383  13.511 -1.7017 -0.9851 -1.3100
 2815TIP3    H229861   3.317   6.272  13.479  0.8097  0.1671  1.8751
 2816TIP3   OH229862   4.556   0.002  14.640 -0.0884 -0.3763  0.0219
 2816TIP3    H129863   4.626   0.060  14.609  0.2425 -0.8596 -0.1502
 2816TIP3    H229864   4.490   0.061  14.677 -0.5183  0.2463 -1.6248
 2817TIP3   OH229865   3.130   5.897   6.472  0.6120 -0.4847 -0.1879
 2817TIP3    H129866   3.201   5.852   6.425  0.2889 -0.1384 -1.0353
 2817TIP3    H229867   3.055   5.838   6.463  0.3089 -0.0024 -0.9087
 2818TIP3   OH229868   3.984   4.386   3.550  0.2881  0.3160  0.1422
 2818TIP3    H129869   3.913   4.400   3.612 -0.1185 -4.0818  0.9767
 2818TIP3    H229870   4.064   4.395   3.602  0.0011 -1.7663  1.0295
 2819TIP3   OH229871   6.376   4.470  15.766 -0.6617  0.0989 -0.2298
 2819TIP3    H129872   6.285   4.484  15.740 -0.4933 -0.7430 -1.3526
 2819TIP3    H229873   6.427   4.522  15.704 -0.3582  0.3539  0.2251
 2820TIP3   OH229874   4.882   1.565  16.541  0.2869  0.5037 -0.0070
 2820TIP3    H129875   4.867   1.659  16.546 -2.9005  0.1478 -0.8806
 2820TIP3    H229876   4.848   1.530  16.623 -0.3860 -0.0362 -0.4996
 2821TIP3   OH229877   6.181   2.402  17.070 -0.3258 -0.1962  0.1056
 2821TIP3    H129878   6.216   2.485  17.037  0.2171 -0.0493  1.0414
 2821TIP3    H229879   6.131   2.367  16.996  0.2186  0.5048 -0.6152
 2822TIP3   OH229880   0.561   2.595   1.427 -0.3682 -0.2779  0.4991
 2822TIP3    H129881   0.507   2.531   1.474 -0.3230 -1.7873 -1.3789
 2822TIP3    H229882   0.510   2.676   1.430 -1.1673 -0.8000  1.6099
 2823TIP3   OH229883   5.276   2.321  16.547  0.3985 -0.4685 -0.6087
 2823TIP3    H129884   5.280   2.235  16.589  0.4787 -0.3501 -0.3741
 2823TIP3    H229885   5.258   2.382  16.618  1.4546 -0.1528 -0.5886
 2824TIP3   OH229886   2.119   5.003  14.698 -0.6651 -0.0079 -0.2642
 2824TIP3    H129887   2.127   5.092  14.663 -4.3797  0.5649  0.0163
 2824TIP3    H229888   2.056   4.961  14.640  0.4948 -2.2988  0.0468
 2825TIP3   OH229889   4.431   4.008  16.554  0.2479  0.0614 -0.0286
 2825TIP3    H129890   4.345   4.050  16.556  0.2227  0.0583 -0.7284
 2825TIP3    H229891   4.439   3.967  16.640 -0.3185  0.3238  0.1589
 2826TIP3   OH229892   4.306   6.073   4.434  0.0727  0.0611 -0.1883
 2826TIP3    H129893   4.339   6.063   4.345  1.5600  1.1899  0.2179
 2826TIP3    H229894   4.346   6.153   4.467 -0.0479 -0.6003  1.6859
 2827TIP3   OH229895   2.163   1.316  16.004  0.4174 -0.2791  1.1733
 2827TIP3    H129896   2.230   1.372  16.042 -0.3312  0.3764  1.5544
 2827TIP3    H229897   2.196   1.294  15.917 -0.0843  2.3303  0.2257
 2828TIP3   OH229898   1.418   1.798  16.706  0.4164  0.2111 -0.5150
 2828TIP3    H129899   1.374   1.716  16.684  0.8414 -0.6744  1.6370
 2828TIP3    H229900   1.355   1.866  16.687  0.5265 -0.4359 -3.6715
 2829TIP3   OH229901   2.447   4.220  10.543 -0.5528 -0.3280 -0.3432
 2829TIP3    H129902   2.406   4.232  10.458 -0.9791 -0.4683 -0.1630
 2829TIP3    H229903   2.376   4.233  10.606 -1.1052 -3.6382 -0.1093
 2830TIP3   OH229904   6.454   6.429   3.010  0.3521  0.0537 -0.3052
 2830TIP3    H129905   6.434   6.409   3.101  1.2280 -1.6046 -0.4236
 2830TIP3    H229906   6.461   6.524   3.007  0.4163  0.1370  1.3830
 2831TIP3   OH229907   6.196   0.783   4.437 -0.2683  0.0931 -0.3801
 2831TIP3    H129908   6.253   0.715   4.402 -0.1461  0.4563 -0.9045
 2831TIP3    H229909   6.241   0.865   4.415 -0.5548  0.3532 -0.0121
 2832TIP3   OH229910   3.342   5.960   4.917 -0.5988  0.4914  0.5677
 2832TIP3    H129911   3.312   5.963   5.008 -0.6830 -1.1366  0.6305
 2832TIP3    H229912   3.409   5.891   4.916 -0.1889  0.8771 -0.4982
 2833TIP3   OH229913   1.516   5.393  13.602  0.5838 -0.1655 -0.0491
 2833TIP3    H129914   1.513   5.421  13.510 -0.6327 -1.2986 -0.3899
 2833TIP3    H229915   1.526   5.298  13.598  1.0362 -0.1761  1.0140
 2834TIP3   OH229916   1.768   5.401  13.140 -0.1066  0.5435 -0.0261
 2834TIP3    H129917   1.749   5.449  13.220 -0.7308  0.4489 -0.1091
 2834TIP3    H229918   1.849   5.440  13.107 -1.0428  2.1619 -0.5447
 2835TIP3   OH229919   4.015   4.919   1.201 -0.2969 -0.2039  0.6133
 2835TIP3    H129920   4.105   4.915   1.231 -0.5810  0.0622  1.5311
 2835TIP3    H229921   4.004   4.840   1.147  0.3733 -0.4253  0.7967
 2836TIP3   OH229922   3.602   6.400   2.066  0.0283 -0.0471 -0.0094
 2836TIP3    H129923   3.554   6.385   1.985  0.4783  0.2294 -0.3313
 2836TIP3    H229924   3.533   6.412   2.132 -0.3340 -1.0643 -0.1941
 2837TIP3   OH229925   3.707   5.568  12.901 -0.3857 -0.0849  0.0826
 2837TIP3    H129926   3.783   5.512  12.913 -0.0771  0.1444 -0.7546
 2837TIP3    H229927   3.632   5.511  12.918 -0.0492 -0.4580  0.3330
 2838TIP3   OH229928   5.904   5.294   1.749  0.6017 -0.1288 -0.7725
 2838TIP3    H129929   5.955   5.362   1.793  0.8151 -0.7696 -0.0018
 2838TIP3    H229930   5.826   5.339   1.718  0.8976  0.5412 -0.5682
 2839TIP3   OH229931   2.542   2.163   4.814  0.3209  0.6642  0.5101
 2839TIP3    H129932   2.488   2.218   4.870  0.0103 -1.2541  2.2089
 2839TIP3    H229933   2.481   2.131   4.747  0.3732  1.8701 -0.1355
 2840TIP3   OH229934   6.521   5.805   3.976 -0.0682 -1.1632 -0.1037
 2840TIP3    H129935   6.517   5.743   4.049  0.3910  0.1229  1.0688
 2840TIP3    H229936   6.564   5.757   3.905 -0.1034 -2.3065  0.6237
 2841TIP3   OH229937   0.799   1.440   5.322  0.6181  0.0077  0.0686
 2841TIP3    H129938   0.836   1.496   5.253  0.9656 -0.6608 -0.3016
 2841TIP3    H229939   0.711   1.418   5.291  0.4828  0.3463  0.2131
 2842TIP3   OH229940   1.059   2.346  16.216 -0.3774 -0.3284 -0.1977
 2842TIP3    H129941   1.149   2.367  16.241 -0.2511 -0.2328 -0.7203
 2842TIP3    H229942   1.032   2.419  16.161 -1.5586  0.7773  1.7505
 2843TIP3   OH229943   6.707   0.845   3.834  0.0247 -0.5009  0.2325
 2843TIP3    H129944   6.801   0.839   3.816 -0.2730 -0.2259 -1.6606
 2843TIP3    H229945   6.672   0.761   3.807 -0.2834 -0.6135  0.9636
 2844TIP3   OH229946   6.010   5.326   1.272 -0.4316  0.5209  0.3846
 2844TIP3    H129947   5.959   5.283   1.340 -1.1447  0.9547  0.1320
 2844TIP3    H229948   5.950   5.332   1.197  0.0056  0.9862  0.0664
 2845TIP3   OH229949   0.263   4.024   4.178 -0.1717  0.0560  0.0083
 2845TIP3    H129950   0.286   4.059   4.092 -0.0749 -0.5575 -0.2218
 2845TIP3    H229951   0.211   3.946   4.159 -0.1461 -0.0873  0.5033
 2846TIP3   OH229952   5.814   5.952   2.878 -0.4197  0.2846  0.2792
 2846TIP3    H129953   5.901   5.981   2.907 -0.1164  0.5798 -0.8650
 2846TIP3    H229954   5.774   5.915   2.956  1.4377 -1.5710  0.4612
 2847TIP3   OH229955   6.060   0.202  16.694 -0.4788  0.5877  0.3589
 2847TIP3    H129956   6.028   0.147  16.765 -1.7346  0.6927 -0.1086
 2847TIP3    H229957   6.141   0.160  16.665 -1.7404 -1.4170 -0.4357
 2848TIP3   OH229958   6.357   5.056   6.553 -0.4055 -0.2584 -0.3138
 2848TIP3    H129959   6.364   5.026   6.462 -1.9100  0.8698 -0.8539
 2848TIP3    H229960   6.427   5.121   6.562 -0.9530  0.4759 -1.0738
 2849TIP3   OH229961   1.698   5.782   0.310 -0.0183 -0.5068 -0.2067
 2849TIP3    H129962   1.740   5.852   0.260 -2.1367  0.7280 -0.4185
 2849TIP3    H229963   1.704   5.705   0.254  1.0284 -0.1277 -0.6432
 2850TIP3   OH229964   4.342   6.220   6.407 -0.0406 -0.2010  0.2660
 2850TIP3    H129965   4.342   6.310   6.438 -1.9210  0.1099 -0.5532
 2850TIP3    H229966   4.264   6.212   6.353 -1.4112 -3.0435  2.4145
 2851TIP3   OH229967   2.045   3.414   5.254 -0.3636  0.2967 -0.2190
 2851TIP3    H129968   2.058   3.331   5.209  0.1042 -0.4705  1.2550
 2851TIP3    H229969   2.098   3.477   5.205  0.0991 -0.4946 -0.7547
 2852TIP3   OH229970   0.241   5.409   6.160  0.0517 -0.5550  0.5936
 2852TIP3    H129971   0.171   5.475   6.163  0.2299 -0.1748 -1.5423
 2852TIP3    H229972   0.293   5.425   6.238 -1.9700 -0.5714  2.0366
 2853TIP3   OH229973   5.201   2.389  14.738  0.4410 -0.0771 -0.0051
 2853TIP3    H129974   5.201   2.303  14.696 -0.2992  0.2505 -0.7281
 2853TIP3    H229975   5.174   2.372  14.828 -0.9561 -0.4784 -0.4722
 2854TIP3   OH229976   4.418   0.282   1.063  0.0668 -0.2443  0.2127
 2854TIP3    H129977   4.398   0.238   1.145  2.3341 -0.8323  0.5141
 2854TIP3    H229978   4.418   0.375   1.084  0.1985 -0.3709  0.7674
 2855TIP3   OH229979   1.970   0.011  12.409  0.0085 -0.0870 -0.1080
 2855TIP3    H129980   1.943   0.040  12.322 -0.8327 -1.3986 -0.3230
 2855TIP3    H229981   1.901   0.042  12.467 -0.9592 -1.6749 -0.3570
 2856TIP3   OH229982   0.259   6.225   4.822 -0.3460  0.2442  0.2037
 2856TIP3    H129983   0.298   6.290   4.880  2.3997  0.3060 -1.4918
 2856TIP3    H229984   0.278   6.141   4.863  0.1096  0.3622  0.2450
 2857TIP3   OH229985   1.797   6.501   6.189 -0.4107  0.1963 -0.0469
 2857TIP3    H129986   1.811   6.437   6.120  0.2499 -0.0272  0.2796
 2857TIP3    H229987   1.755   6.575   6.146 -0.9914 -0.3709 -0.4656
 2858TIP3   OH229988   2.643   1.536  16.768 -0.1038 -0.1884 -0.0412
 2858TIP3    H129989   2.665   1.604  16.832 -1.4310  0.1102  0.1211
 2858TIP3    H229990   2.677   1.455  16.806 -1.8462 -0.2100  1.6318
 2859TIP3   OH229991   1.317   5.786   2.495  0.5309 -0.3548 -0.6098
 2859TIP3    H129992   1.257   5.845   2.451  1.7779 -0.0328 -1.9250
 2859TIP3    H229993   1.287   5.698   2.470  0.2030 -0.2184 -0.6985
 2860TIP3   OH229994   5.425   5.898   5.734 -0.1444 -0.8959  0.4945
 2860TIP3    H129995   5.435   5.947   5.816  0.5247  0.5039 -0.3911
 2860TIP3    H229996   5.471   5.950   5.669 -2.7443 -0.6354 -1.3009
 2861TIP3   OH229997   2.665   1.047  11.487  0.0562  0.0841 -0.2469
 2861TIP3    H129998   2.731   0.979  11.500 -0.8245 -0.6756  0.3843
 2861TIP3    H229999   2.713   1.129  11.497  0.8132 -0.4524  0.7288
 2862TIP3   OH230000   2.177   0.524   0.765 -0.2567  0.1714 -0.2349
 2862TIP3    H130001   2.108   0.465   0.793  0.6755 -0.6709  0.3711
 2862TIP3    H230002   2.225   0.545   0.846  1.0604 -0.4230 -0.8199
 2863TIP3   OH230003   2.792   2.160   4.938  0.1656  0.1931  0.7274
 2863TIP3    H130004   2.714   2.127   4.894  2.1060 -2.1112 -1.3293
 2863TIP3    H230005   2.785   2.256   4.932 -2.4563  0.0582  0.6698
 2864TIP3   OH230006   2.108   4.586  11.106 -0.0145 -0.5748 -0.4328
 2864TIP3    H130007   2.133   4.503  11.065 -0.0270 -1.4160  1.1659
 2864TIP3    H230008   2.176   4.601  11.172 -0.8961 -0.1776  0.4065
 2865TIP3   OH230009   5.845   0.714   6.442  0.1607 -0.4311  0.1529
 2865TIP3    H130010   5.873   0.622   6.442  0.4878 -0.3408  1.0550
 2865TIP3    H230011   5.767   0.715   6.497  0.2462 -0.1505  0.2722
 2866TIP3   OH230012   3.524   3.788  11.458 -0.2992 -0.3877 -0.5033
 2866TIP3    H130013   3.484   3.830  11.534  1.0070 -0.1598  0.0964
 2866TIP3    H230014   3.451   3.754  11.408 -1.1776 -1.1860  1.2286
 2867TIP3   OH230015   3.268   0.497   1.915 -0.1644  0.7914  0.0399
 2867TIP3    H130016   3.311   0.576   1.947  0.7106  0.3695 -0.0615
 2867TIP3    H230017   3.262   0.509   1.820  0.8028  0.3503 -0.0870
 2868TIP3   OH230018   3.555   5.782  16.403  0.3808 -0.1445  0.1925
 2868TIP3    H130019   3.599   5.698  16.418 -1.3092 -0.6705  2.6919
 2868TIP3    H230020   3.546   5.820  16.490 -1.0206  1.5271 -0.6459
 2869TIP3   OH230021   1.336   1.755  13.895 -1.1103  0.0971  0.1331
 2869TIP3    H130022   1.369   1.839  13.864 -0.8454  0.4168  1.2417
 2869TIP3    H230023   1.313   1.707  13.816  1.3791  0.1123 -0.6845
 2870TIP3   OH230024   3.449   2.724  15.902 -0.1446 -0.6490 -0.0883
 2870TIP3    H130025   3.490   2.781  15.838 -1.5257 -2.3748 -2.6774
 2870TIP3    H230026   3.363   2.763  15.918  0.5127  0.2550  1.4955
 2871TIP3   OH230027   0.544   1.759   0.801 -0.2466 -0.2479 -0.3320
 2871TIP3    H130028   0.462   1.806   0.792 -0.7463 -0.4309  2.3745
 2871TIP3    H230029   0.578   1.787   0.886  1.5766 -1.5635 -0.5700
 2872TIP3   OH230030   2.951   5.532   1.455  0.2423 -0.1981 -0.6674
 2872TIP3    H130031   2.946   5.568   1.544 -2.9420  0.5141 -1.0167
 2872TIP3    H230032   2.928   5.439   1.466 -1.0936  0.0955 -0.7930
 2873TIP3   OH230033   6.204   5.256   4.671 -0.1650 -0.0356 -0.1810
 2873TIP3    H130034   6.259   5.177   4.663 -1.8966 -1.1867 -1.5842
 2873TIP3    H230035   6.148   5.238   4.747 -1.7735 -1.0408 -1.5264
 2874TIP3   OH230036   1.948   3.745   1.165 -0.2185  0.6062  0.3533
 2874TIP3    H130037   1.882   3.700   1.112 -0.3349  0.8890  0.2573
 2874TIP3    H230038   1.987   3.810   1.106 -0.4274  0.9992  0.6430
 2875TIP3   OH230039   2.250   5.914  15.144 -0.0361  0.1373  0.0868
 2875TIP3    H130040   2.291   6.000  15.131 -0.3704  0.0974 -1.3819
 2875TIP3    H230041   2.160   5.935  15.169 -0.1118  0.2273 -0.2482
 2876TIP3   OH230042   1.029   5.530   0.852 -0.2887  0.5336 -0.3508
 2876TIP3    H130043   1.042   5.490   0.766 -1.4274 -1.4699  0.3392
 2876TIP3    H230044   1.117   5.550   0.883  0.2846 -0.8783 -1.0048
 2877TIP3   OH230045   1.293   1.255  17.232 -0.0233  0.3308  0.4536
 2877TIP3    H130046   1.224   1.315  17.203 -0.3436 -0.4450 -0.4501
 2877TIP3    H230047   1.319   1.208  17.153 -0.1865 -1.1366  1.2358
 2878TIP3   OH230048   0.533   3.667   5.099 -0.1694  0.0683 -0.4845
 2878TIP3    H130049   0.492   3.730   5.040  1.4197  0.6951 -1.0008
 2878TIP3    H230050   0.474   3.592   5.099 -1.2981  0.9164 -1.1515
 2879TIP3   OH230051   4.451   2.689   2.384  0.1241  0.3555  0.1404
 2879TIP3    H130052   4.446   2.646   2.470  3.2164 -0.3657  0.0570
 2879TIP3    H230053   4.461   2.782   2.405 -0.8338  0.3886  0.4916
 2880TIP3   OH230054   5.873   4.427   5.347  0.1625 -0.2486  0.4940
 2880TIP3    H130055   5.855   4.419   5.253 -0.4761 -3.5076  0.7571
 2880TIP3    H230056   5.961   4.392   5.358  0.2241  0.0910  1.1189
 2881TIP3   OH230057   4.507   1.234  11.668 -0.6240  0.4630 -0.2874
 2881TIP3    H130058   4.508   1.311  11.726  1.4083  0.5092 -0.3352
 2881TIP3    H230059   4.499   1.270  11.580 -0.8440  0.5452 -0.2352
 2882TIP3   OH230060   0.892   5.724  15.594 -0.3917  0.0430 -0.2074
 2882TIP3    H130061   0.902   5.802  15.650  2.1270  0.5362 -1.2190
 2882TIP3    H230062   0.932   5.750  15.511 -0.1455 -2.1162 -0.8014
 2883TIP3   OH230063   1.736   1.299  16.537  0.3463  0.3137  0.6892
 2883TIP3    H130064   1.683   1.260  16.468 -1.1923  2.6000  0.4750
 2883TIP3    H230065   1.788   1.226  16.572  0.9664 -0.9831 -2.6284
 2884TIP3   OH230066   3.742   1.971  14.676  0.3316  0.1535  0.3109
 2884TIP3    H130067   3.831   1.958  14.644 -0.0652 -0.4744 -0.5750
 2884TIP3    H230068   3.731   1.906  14.745 -0.1146 -1.1955 -0.9902
 2885TIP3   OH230069   1.074   5.043   2.406 -0.4411  0.3721 -0.2244
 2885TIP3    H130070   0.999   5.021   2.351  0.5902 -0.2946 -1.4310
 2885TIP3    H230071   1.051   5.009   2.493 -1.8059  0.8044 -0.4007
 2886TIP3   OH230072   4.035   6.292   0.158 -0.1159 -0.2694  0.1088
 2886TIP3    H130073   3.954   6.329   0.192 -0.2189 -0.3258 -0.0766
 2886TIP3    H230074   4.032   6.309   0.064 -0.4824 -1.3432 -0.0837
 2887TIP3   OH230075   5.689   0.649  15.076  0.3924 -0.3318 -0.3034
 2887TIP3    H130076   5.673   0.693  14.992 -0.3987  0.9023  0.4596
 2887TIP3    H230077   5.709   0.721  15.136 -3.0636 -0.7047  1.5077
 2888TIP3   OH230078   1.464   6.356   2.081 -0.1803 -0.5918 -0.2602
 2888TIP3    H130079   1.478   6.449   2.064  1.4295 -0.8539 -0.5721
 2888TIP3    H230080   1.373   6.350   2.108 -1.2619  0.6505 -3.2258
 2889TIP3   OH230081   2.064   5.441   5.822 -0.1199  0.6200  0.3266
 2889TIP3    H130082   2.033   5.398   5.742 -0.6542  0.1823  0.7625
 2889TIP3    H230083   2.032   5.531   5.814  0.0391  0.6464 -0.0634
 2890TIP3   OH230084   3.599   1.058  15.180 -0.0049 -0.2177  0.3832
 2890TIP3    H130085   3.569   1.012  15.102 -1.2124  1.5726 -0.2779
 2890TIP3    H230086   3.529   1.046  15.244 -0.9525  1.6536 -0.2239
 2891TIP3   OH230087   6.399   4.046   0.953  0.2677 -0.2749  0.3519
 2891TIP3    H130088   6.381   4.013   1.040  0.6422  2.1212  1.4246
 2891TIP3    H230089   6.437   4.133   0.967 -2.4381  1.5522 -2.1713
 2892TIP3   OH230090   6.705   0.434   2.870 -0.2354 -0.2728  0.1537
 2892TIP3    H130091   6.648   0.399   2.938  1.3540 -1.8508  0.7494
 2892TIP3    H230092   6.774   0.481   2.917  0.5679 -0.9017 -0.3467
 2893TIP3   OH230093   6.415   4.820   1.267 -0.8370 -0.1821  0.4778
 2893TIP3    H130094   6.492   4.877   1.273  0.4891 -1.7387 -0.7208
 2893TIP3    H230095   6.387   4.808   1.357  0.7024 -0.0480  1.0000
 2894TIP3   OH230096   2.710   4.862  14.536  0.2305 -0.0905 -0.6004
 2894TIP3    H130097   2.801   4.834  14.540 -0.1517 -1.5972 -1.6066
 2894TIP3    H230098   2.661   4.794  14.582 -0.4224  0.6053 -0.2342
 2895TIP3   OH230099   3.751   1.664   1.885  0.0141 -0.0939  0.3215
 2895TIP3    H130100   3.796   1.741   1.919 -0.5338 -0.0915  1.0849
 2895TIP3    H230101   3.788   1.591   1.934  0.1319 -0.2451  0.0047
 2896TIP3   OH230102   3.407   6.595   4.458 -0.1011  0.3251  0.0160
 2896TIP3    H130103   3.313   6.583   4.450 -0.1925  1.3767 -0.8033
 2896TIP3    H230104   3.442   6.508   4.477 -1.4300  0.2515  2.5129
 2897TIP3   OH230105   5.424   6.637  15.657 -0.6058  0.4761  0.1679
 2897TIP3    H130106   5.403   6.727  15.632  1.1378  0.9232  0.2421
 2897TIP3    H230107   5.489   6.645  15.726 -0.5991 -0.8529  0.3442
 2898TIP3   OH230108   5.061   1.682  15.606 -0.0596  0.0059  0.1694
 2898TIP3    H130109   5.016   1.654  15.526 -2.7249 -1.3224  1.9818
 2898TIP3    H230110   5.143   1.633  15.606 -1.0352 -1.7319 -0.7127
 2899TIP3   OH230111   3.931   5.867  17.085  0.3913 -0.6514 -0.0369
 2899TIP3    H130112   4.023   5.864  17.109  0.4013 -0.3767 -0.0410
 2899TIP3    H230113   3.931   5.886  16.991  0.3093  1.7539  0.3847
 2900TIP3   OH230114   0.047   0.047  10.556 -0.1751 -0.2113  0.8449
 2900TIP3    H130115   0.040   0.047  10.652 -0.1765  1.6199  0.8813
 2900TIP3    H230116   0.137   0.075  10.538 -0.1711 -0.5563  0.3037
 2901TIP3   OH230117   0.059   3.476  12.494  0.6345 -0.7971  0.2194
 2901TIP3    H130118   0.043   3.426  12.574 -0.0010 -0.1838  0.4964
 2901TIP3    H230119   0.073   3.566  12.525 -1.1948 -0.2449 -0.4488
 2902TIP3   OH230120   0.740   1.493  11.306  0.1794 -0.5179 -0.0417
 2902TIP3    H130121   0.727   1.582  11.274  0.6082  0.0742  1.3594
 2902TIP3    H230122   0.797   1.452  11.242  1.6787  0.8855  0.3405
 2903TIP3   OH230123   1.501   2.564  14.061 -0.2666  0.2613  0.6006
 2903TIP3    H130124   1.493   2.498  13.993  0.2444 -0.5365  1.2888
 2903TIP3    H230125   1.419   2.613  14.058  0.9773  2.4820 -2.8198
 2904TIP3   OH230126   6.357   5.888  11.607  0.1115 -0.1845 -0.2050
 2904TIP3    H130127   6.355   5.908  11.513 -0.3548  1.7646  0.1764
 2904TIP3    H230128   6.271   5.915  11.640  0.7091  0.3623  0.9871
 2905TIP3   OH230129   6.153   5.188  11.007  0.0433  0.2867  0.3985
 2905TIP3    H130130   6.155   5.119  10.941 -0.5716  0.9811 -0.3649
 2905TIP3    H230131   6.127   5.266  10.959 -0.5036  0.7900  1.4784
 2906TIP3   OH230132   0.142   3.276   1.095 -0.2803 -0.6027 -0.2938
 2906TIP3    H130133   0.146   3.336   1.170  0.1774 -0.4054 -0.4748
 2906TIP3    H230134   0.186   3.197   1.124  3.0159  0.6591 -1.4399
 2907TIP3   OH230135   1.366   1.066   0.840  0.4006 -0.1663  0.1099
 2907TIP3    H130136   1.350   0.990   0.897  0.7893  0.8919  1.7008
 2907TIP3    H230137   1.320   1.138   0.883 -0.9426  0.3367 -1.9789
 2908TIP3   OH230138   2.463   4.983  11.420 -0.4177  0.0402 -0.2933
 2908TIP3    H130139   2.490   4.938  11.500  1.3054  0.4202 -0.6198
 2908TIP3    H230140   2.481   5.076  11.437  0.2439  0.0963 -1.2113
 2909TIP3   OH230141   3.704   4.220   5.065  0.3876  0.1821  0.3731
 2909TIP3    H130142   3.729   4.182   4.981 -1.2135  0.2285 -0.1604
 2909TIP3    H230143   3.742   4.307   5.065  0.5883  0.0966 -0.2013
 2910TIP3   OH230144   0.149   1.906  13.056  0.7861 -0.3401 -0.0343
 2910TIP3    H130145   0.054   1.898  13.066  0.5848  1.3941 -0.2427
 2910TIP3    H230146   0.185   1.833  13.106 -0.6095  0.0543  1.6568
 2911TIP3   OH230147   0.452   2.676   4.005  0.5126  0.0264 -0.1505
 2911TIP3    H130148   0.424   2.586   4.023 -1.1917  0.4199 -0.6079
 2911TIP3    H230149   0.535   2.685   4.052 -1.2315 -0.5136  3.4459
 2912TIP3   OH230150   0.818   2.691   1.598 -0.3328  0.3449  0.1516
 2912TIP3    H130151   0.831   2.666   1.690  0.0536 -0.7746 -0.1821
 2912TIP3    H230152   0.749   2.756   1.601 -0.4311  0.2247  1.2325
 2913TIP3   OH230153   0.999   2.240  16.735  0.2529  0.3046 -0.1848
 2913TIP3    H130154   1.064   2.271  16.672  1.7796  0.8071  1.5563
 2913TIP3    H230155   0.988   2.313  16.796  1.4086 -1.3016  2.0710
 2914TIP3   OH230156   1.450   3.699   4.400  0.4129 -0.0895  0.5868
 2914TIP3    H130157   1.390   3.760   4.441  0.6748  0.3196  0.3730
 2914TIP3    H230158   1.477   3.640   4.470  0.3946  0.2335  0.8666
 2915TIP3   OH230159   2.600   3.038  14.840 -0.3479 -0.2127  0.0868
 2915TIP3    H130160   2.652   2.965  14.805  0.5028  0.2485  0.3600
 2915TIP3    H230161   2.660   3.083  14.899 -1.7405 -0.9422  2.1284
 2916TIP3   OH230162   5.716   5.585  16.337  0.2200  0.0594 -0.5505
 2916TIP3    H130163   5.632   5.543  16.353 -0.6335  2.5047  2.2311
 2916TIP3    H230164   5.759   5.587  16.422  1.1969  2.6805 -1.0122
 2917TIP3   OH230165   5.180   3.808   0.067 -0.1661 -0.0900  0.2394
 2917TIP3    H130166   5.098   3.848   0.039 -0.8721 -0.3815  1.7802
 2917TIP3    H230167   5.248   3.870   0.041 -0.8755  0.1729 -1.0256
 2918TIP3   OH230168   1.569   6.177  16.934 -0.8237  0.1727  0.7094
 2918TIP3    H130169   1.495   6.237  16.926  0.0870  1.2862  0.4038
 2918TIP3    H230170   1.575   6.159  17.028  0.2222  2.3325  1.1077
 2919TIP3   OH230171   3.084   6.265   3.286  0.0947 -0.1447 -0.5320
 2919TIP3    H130172   3.145   6.219   3.343  0.2014  0.4743 -0.1427
 2919TIP3    H230173   2.998   6.229   3.307  0.4013 -1.6331 -1.6789
 2920TIP3   OH230174   1.717   5.694  11.870 -0.0704  0.4189  0.0411
 2920TIP3    H130175   1.674   5.667  11.789 -0.1028  0.3460  0.0821
 2920TIP3    H230176   1.646   5.716  11.929 -0.1770 -1.7756  0.8528
 2921TIP3   OH230177   3.627   1.231  14.866  0.1275  0.2884 -0.0566
 2921TIP3    H130178   3.541   1.253  14.900 -0.1682  0.3410 -0.8176
 2921TIP3    H230179   3.611   1.162  14.801  0.5310  0.9763 -0.9121
 2922TIP3   OH230180   4.213   0.350  12.319 -0.1663 -0.1452 -0.2607
 2922TIP3    H130181   4.244   0.267  12.357 -1.2147 -0.7253 -0.6176
 2922TIP3    H230182   4.267   0.417  12.361  0.5970 -0.9928  0.1589
 2923TIP3   OH230183   2.198   2.074   0.467 -0.8967  0.0391  0.1060
 2923TIP3    H130184   2.224   2.128   0.393 -1.5148  0.5686  0.2708
 2923TIP3    H230185   2.103   2.065   0.458 -1.0633  0.6054  1.1572
 2924TIP3   OH230186   5.215   2.362  16.818 -0.0586 -0.0492  0.2172
 2924TIP3    H130187   5.266   2.358  16.899 -1.3796  2.1153  1.2596
 2924TIP3    H230188   5.176   2.275  16.809 -0.1626 -0.2281  2.0976
 2925TIP3   OH230189   4.973   3.809   0.737 -0.4634  0.2845  0.4711
 2925TIP3    H130190   4.962   3.723   0.776 -0.0288  0.4279  0.9370
 2925TIP3    H230191   5.044   3.849   0.789 -1.4181  1.3419  1.0075
 2926TIP3   OH230192   2.167   2.421  14.972 -0.3969  0.1517 -0.9008
 2926TIP3    H130193   2.254   2.383  14.981 -0.6113 -0.2384 -0.4579
 2926TIP3    H230194   2.139   2.396  14.884 -0.3937 -0.4253 -0.7415
 2927TIP3   OH230195   4.758   1.374   1.012  0.7381 -0.0354  0.1406
 2927TIP3    H130196   4.778   1.464   1.039 -1.5161  0.9245 -1.0701
 2927TIP3    H230197   4.686   1.383   0.950  1.0555 -2.6451 -0.7434
 2928TIP3   OH230198   3.880   6.471   4.909 -0.1235  0.2131  0.2930
 2928TIP3    H130199   3.928   6.520   4.843 -2.5137  1.1480 -0.8774
 2928TIP3    H230200   3.789   6.499   4.898 -0.8869 -0.9974  2.7618
 2929TIP3   OH230201   2.875   1.958  11.310  0.2656 -0.4586  0.0328
 2929TIP3    H130202   2.807   2.006  11.357  2.1143  1.3163  1.0396
 2929TIP3    H230203   2.913   2.023  11.251  1.7981 -1.0884  0.2915
 2930TIP3   OH230204   0.961   3.667  13.944  0.0391  0.2773 -0.6507
 2930TIP3    H130205   1.008   3.704  14.019 -2.3421  2.0874  0.0794
 2930TIP3    H230206   0.938   3.743  13.890 -0.6688 -0.7129 -1.7924
 2931TIP3   OH230207   4.664   3.509  16.573  0.3708  0.4294 -0.4551
 2931TIP3    H130208   4.707   3.579  16.622  1.2658 -0.4359  0.0327
 2931TIP3    H230209   4.717   3.499  16.494  2.0234 -1.5944  0.7932
 2932TIP3   OH230210   2.830   6.121  15.020 -0.5887 -0.2995 -0.0318
 2932TIP3    H130211   2.782   6.156  15.095 -0.8021 -0.7806  0.0594
 2932TIP3    H230212   2.809   6.028  15.019 -1.1737 -0.1863 -1.1158
 2933TIP3   OH230213   3.012   3.582  16.102 -0.3610 -0.1515 -0.1402
 2933TIP3    H130214   2.981   3.497  16.071 -1.4548  0.8389 -1.9182
 2933TIP3    H230215   2.932   3.631  16.121  0.1753 -0.7509  4.8429
 2934TIP3   OH230216   5.201   4.169  11.600 -0.2127  0.1043  0.1898
 2934TIP3    H130217   5.132   4.136  11.543 -0.4073 -0.7461  0.9044
 2934TIP3    H230218   5.276   4.112  11.584  0.0120  0.4131  0.1341
 2935TIP3   OH230219   1.383   4.123  16.392  0.2489  0.2382  0.6123
 2935TIP3    H130220   1.374   4.051  16.455 -1.8651  2.1418  2.6912
 2935TIP3    H230221   1.323   4.100  16.321  0.5268 -0.6277  0.6422
 2936TIP3   OH230222   3.741   3.034  13.924 -0.6424  0.4369  0.1128
 2936TIP3    H130223   3.663   3.090  13.921  1.2156  3.2093 -0.7900
 2936TIP3    H230224   3.734   2.980  13.845 -1.4620  0.9467 -0.1810
 2937TIP3   OH230225   0.503   2.250   3.928 -0.5383  0.3841 -0.5878
 2937TIP3    H130226   0.467   2.216   3.847 -2.3146 -1.9388  1.0482
 2937TIP3    H230227   0.549   2.176   3.967 -0.5233  1.1711  0.9820
 2938TIP3   OH230228   3.592   0.334  14.517  0.0350 -0.4790  0.0506
 2938TIP3    H130229   3.671   0.387  14.533 -0.7352  0.2452  1.6203
 2938TIP3    H230230   3.621   0.244  14.530  0.9855 -0.3637 -1.0663
 2939TIP3   OH230231   5.233   4.136  16.945 -0.0739 -0.5552  0.3403
 2939TIP3    H130232   5.187   4.158  16.863  0.6534 -0.2549  0.0056
 2939TIP3    H230233   5.172   4.162  17.014 -0.4854 -0.3295 -0.0999
 2940TIP3   OH230234   5.821   0.541  17.137  0.1294  0.7333 -0.6081
 2940TIP3    H130235   5.897   0.566  17.189  1.5110  0.8493 -2.5536
 2940TIP3    H230236   5.845   0.565  17.047 -1.3442 -1.1342 -1.5825
 2941TIP3   OH230237   4.563   4.310   5.356  0.0462  0.2670 -0.1669
 2941TIP3    H130238   4.592   4.234   5.306 -1.9925 -0.3427 -0.5333
 2941TIP3    H230239   4.570   4.384   5.295 -0.9669 -0.2096 -0.8946
 2942TIP3   OH230240   3.700   0.133  12.079  0.3526  0.6832 -0.1759
 2942TIP3    H130241   3.679   0.175  12.163 -3.6817  1.4315 -1.3244
 2942TIP3    H230242   3.640   0.058  12.075  1.7713 -0.4436 -1.6852
 2943TIP3   OH230243   1.557   4.266   4.747  0.5282  0.9553  0.4254
 2943TIP3    H130244   1.624   4.200   4.731 -0.7292 -0.5291  0.9564
 2943TIP3    H230245   1.579   4.303   4.833  1.0989  1.0424  0.2426
 2944TIP3   OH230246   3.643   2.117   4.393 -0.2153 -0.0488 -0.6437
 2944TIP3    H130247   3.612   2.073   4.472 -2.4165  0.1216 -1.3194
 2944TIP3    H230248   3.638   2.210   4.414  0.3714 -0.0331 -0.5800
 2945TIP3   OH230249   1.945   1.153  10.251  0.0580  0.2512  0.4079
 2945TIP3    H130250   1.862   1.118  10.219 -0.1086  1.2824 -0.3363
 2945TIP3    H230251   1.934   1.248  10.248  0.9393  0.3933  1.1903
 2946TIP3   OH230252   0.575   0.189   1.125  0.3817 -0.1804  0.3259
 2946TIP3    H130253   0.510   0.246   1.084 -0.8137 -0.4672  1.7084
 2946TIP3    H230254   0.654   0.201   1.073  0.0409  2.3477  0.2533
 2947TIP3   OH230255   6.551   4.884  12.452 -0.3086  0.4065 -0.3891
 2947TIP3    H130256   6.557   4.915  12.362  0.0031  1.5221  0.0010
 2947TIP3    H230257   6.620   4.931  12.499 -1.2433  0.7599  0.6824
 2948TIP3   OH230258   3.373   1.140  12.375  0.1757 -0.6108 -0.2985
 2948TIP3    H130259   3.391   1.145  12.469 -1.5175  2.2286  0.0062
 2948TIP3    H230260   3.308   1.071  12.366  0.1996 -0.7652  0.6605
 2949TIP3   OH230261   6.011   0.310   3.789 -0.0860  0.9196  0.5357
 2949TIP3    H130262   5.935   0.314   3.732 -0.2868  2.6811  0.8668
 2949TIP3    H230263   6.060   0.233   3.759 -2.2103 -0.5419  0.6352
 2950TIP3   OH230264   3.416   5.359   5.413  0.3715  0.5605 -0.0565
 2950TIP3    H130265   3.472   5.433   5.388 -0.4116  1.9088  1.8627
 2950TIP3    H230266   3.466   5.313   5.480 -0.5502  1.5576  1.4019
 2951TIP3   OH230267   6.718   4.496   3.250 -0.3081 -0.6616 -0.3162
 2951TIP3    H130268   6.754   4.442   3.320  0.1638 -2.4312 -1.8470
 2951TIP3    H230269   6.794   4.519   3.196 -0.7207  0.3052 -0.5060
 2952TIP3   OH230270   2.388   3.329  14.830 -0.3325  0.1477  0.0689
 2952TIP3    H130271   2.369   3.261  14.894 -1.7836  0.5624  0.1145
 2952TIP3    H230272   2.302   3.354  14.795  0.2486  1.3342 -0.5812
 2953TIP3   OH230273   2.232   4.550  13.080 -0.4760 -0.3975 -0.2876
 2953TIP3    H130274   2.291   4.496  13.028 -0.4591 -2.3976  1.6582
 2953TIP3    H230275   2.257   4.640  13.059  0.6149 -1.1338 -2.4057
 2954TIP3   OH230276   0.015   1.407  10.950 -0.1413 -0.6085 -0.3684
 2954TIP3    H130277  -0.040   1.455  10.888  0.9902 -0.9509 -1.6935
 2954TIP3    H230278   0.008   1.316  10.923  0.4251 -0.7494 -0.0524
 2955TIP3   OH230279   3.269   3.600   1.773 -0.1162  0.0862 -0.0128
 2955TIP3    H130280   3.360   3.624   1.760 -0.3646  1.2587  0.2902
 2955TIP3    H230281   3.233   3.671   1.827 -0.9940 -0.7866  0.5909
 2956TIP3   OH230282   6.023   1.337   5.912  0.2172 -0.0179  0.2041
 2956TIP3    H130283   6.020   1.270   5.843  0.0279 -1.1970  1.3166
 2956TIP3    H230284   5.941   1.385   5.901  0.2432 -0.1191 -0.4683
 2957TIP3   OH230285   3.294   0.989   3.469  0.0249  0.2924  0.1911
 2957TIP3    H130286   3.239   0.936   3.527  0.0981  1.4746  1.3838
 2957TIP3    H230287   3.384   0.965   3.493  0.1102 -1.8816 -1.9833
 2958TIP3   OH230288   0.101   1.570   5.366 -0.1362  0.5380  0.3283
 2958TIP3    H130289   0.091   1.546   5.458 -1.4669 -1.4626 -0.2993
 2958TIP3    H230290   0.018   1.611   5.342  0.1908  1.0149 -0.0243
 2959TIP3   OH230291   1.571   1.138  11.733 -0.1020 -0.2199  0.8158
 2959TIP3    H130292   1.607   1.062  11.686  0.6216  1.0150 -0.6848
 2959TIP3    H230293   1.630   1.210  11.711 -1.2477  0.9791  1.5527
 2960TIP3   OH230294   6.019   0.763  11.846 -0.2456 -0.1122  0.2908
 2960TIP3    H130295   6.078   0.839  11.842 -0.7526  0.3491  1.2773
 2960TIP3    H230296   6.008   0.737  11.754  0.5220  0.5437 -0.0066
 2961TIP3   OH230297   2.625   3.826  15.473 -0.0039 -0.4941 -0.1342
 2961TIP3    H130298   2.711   3.807  15.435  0.6375  1.9604 -0.1224
 2961TIP3    H230299   2.628   3.786  15.560  1.2837 -0.1386  0.0028
 2962TIP3   OH230300   4.929   6.488  11.706  0.3650  0.1124 -0.1775
 2962TIP3    H130301   4.985   6.530  11.771  0.0707 -1.0928  0.8718
 2962TIP3    H230302   4.840   6.502  11.738  0.1698  0.1419 -0.7171
 2963TIP3   OH230303   1.543   0.067   1.151  0.1697 -0.2688 -0.0462
 2963TIP3    H130304   1.563   0.058   1.244  0.6407  0.3276 -0.0856
 2963TIP3    H230305   1.612   0.016   1.107 -1.2323 -2.3232 -0.0208
 2964TIP3   OH230306   1.836   6.427  16.161 -0.0099  0.0739  0.4283
 2964TIP3    H130307   1.759   6.375  16.139  0.7405 -0.6380 -0.6285
 2964TIP3    H230308   1.892   6.368  16.211 -0.8194  1.0788  2.6161
 2965TIP3   OH230309   3.467   3.130   4.966 -0.1713  0.7491 -0.4695
 2965TIP3    H130310   3.409   3.194   5.008 -0.4517 -0.2160  0.6861
 2965TIP3    H230311   3.547   3.133   5.019 -0.5936 -0.6151  0.2858
 2966TIP3   OH230312   0.622   5.795   2.462  0.8470 -0.3936 -0.1606
 2966TIP3    H130313   0.560   5.816   2.532 -0.9385 -0.4838 -1.6463
 2966TIP3    H230314   0.708   5.810   2.501 -0.1219  1.3519  1.4843
 2967TIP3   OH230315   4.674   6.214  14.752  0.1106  0.1916  0.0707
 2967TIP3    H130316   4.635   6.162  14.682  0.5348 -0.6052  0.4201
 2967TIP3    H230317   4.692   6.152  14.822 -0.3594  0.9800  0.9215
 2968TIP3   OH230318   0.812   5.346   5.672 -0.6263  0.4457 -0.0567
 2968TIP3    H130319   0.725   5.324   5.639 -0.7576  0.2132  0.4351
 2968TIP3    H230320   0.806   5.438   5.698 -1.6591 -0.3076  2.8236
 2969TIP3   OH230321   4.745   4.249  10.445  0.1855  0.4495 -0.0955
 2969TIP3    H130322   4.662   4.267  10.491 -0.0448 -1.5479  0.3676
 2969TIP3    H230323   4.785   4.335  10.433 -1.9771  1.4829 -0.3742
 2970TIP3   OH230324   5.077   3.937  11.455  0.6927  0.0842 -0.3248
 2970TIP3    H130325   5.048   3.929  11.546 -0.4870  0.8028 -0.6023
 2970TIP3    H230326   5.077   3.848  11.421 -2.4237  0.0508 -0.5921
 2971TIP3   OH230327   0.941   4.487  15.848  0.0936  0.6327  0.2636
 2971TIP3    H130328   0.891   4.532  15.916  0.4937  1.3091  0.1144
 2971TIP3    H230329   1.018   4.541  15.835 -0.1288  0.6820 -0.9644
 2972TIP3   OH230330   2.369   0.378  14.310 -0.8695 -0.0215  0.3054
 2972TIP3    H130331   2.411   0.396  14.225 -1.1267 -2.9890 -0.5365
 2972TIP3    H230332   2.410   0.440  14.370  0.8544  0.7579 -1.5625
 2973TIP3   OH230333   4.501   3.625   5.444 -0.0235  0.8757 -0.1614
 2973TIP3    H130334   4.441   3.619   5.369  1.3808  0.9572 -1.3391
 2973TIP3    H230335   4.558   3.699   5.423  2.5891 -1.1170 -0.7211
 2974TIP3   OH230336   2.400   5.829   0.666 -0.1685  0.6062 -0.2886
 2974TIP3    H130337   2.465   5.798   0.603 -0.0348  0.3802 -0.0411
 2974TIP3    H230338   2.452   5.878   0.731  0.0240 -1.1463  0.9461
 2975TIP3   OH230339   3.322   2.333  13.467 -0.1402  0.4392  0.3644
 2975TIP3    H130340   3.248   2.287  13.507  0.4678 -0.0364  0.9467
 2975TIP3    H230341   3.352   2.275  13.397 -0.0743  0.4572  0.3774
 2976TIP3   OH230342   0.655   6.481  16.452 -0.6447 -0.0649 -0.1867
 2976TIP3    H130343   0.704   6.563  16.450  0.1890 -0.5340  0.3621
 2976TIP3    H230344   0.625   6.469  16.362 -0.5673  0.7146 -0.3268
 2977TIP3   OH230345   2.722   2.432   6.149  0.3256  0.2363  0.4362
 2977TIP3    H130346   2.632   2.411   6.173 -0.2475  1.8023 -0.2256
 2977TIP3    H230347   2.760   2.348   6.123 -1.0235 -0.4069  0.4712
 2978TIP3   OH230348   6.597   6.405  16.521  0.1348  0.0733 -0.1958
 2978TIP3    H130349   6.535   6.384  16.590 -0.3845  0.5288 -0.5145
 2978TIP3    H230350   6.682   6.381  16.557  0.1689  2.4013  1.5431
 2979TIP3   OH230351   3.759   5.366  12.224  0.0138 -0.0900  0.0768
 2979TIP3    H130352   3.791   5.276  12.232 -3.3650 -1.7096 -2.2681
 2979TIP3    H230353   3.785   5.392  12.135  0.6688  1.2041  0.6185
 2980TIP3   OH230354   4.399   4.632  14.419  0.3454  0.1841  0.8777
 2980TIP3    H130355   4.344   4.689  14.366 -0.0652 -0.6674  0.3545
 2980TIP3    H230356   4.434   4.688  14.488  0.3574  1.1619  0.0869
 2981TIP3   OH230357   2.530   1.828  10.682 -0.2804  0.4837  0.5805
 2981TIP3    H130358   2.493   1.844  10.769  1.4251  1.2927  1.2071
 2981TIP3    H230359   2.553   1.916  10.650  1.6425  0.0080  0.5218
 2982TIP3   OH230360   5.885   1.713  16.598  0.5079 -0.2333 -0.0115
 2982TIP3    H130361   5.898   1.740  16.688 -0.8447 -0.3284  0.2348
 2982TIP3    H230362   5.970   1.726  16.556  1.0821  0.0522  1.2046
 2983TIP3   OH230363   0.817   0.034   1.989  0.2555  0.5214 -0.4970
 2983TIP3    H130364   0.905   0.030   2.026  0.7733 -1.5406 -1.7711
 2983TIP3    H230365   0.824  -0.010   1.904 -1.9178  0.6803 -0.8342
 2984TIP3   OH230366   5.072   2.647  14.688  0.1858 -0.7059  0.1284
 2984TIP3    H130367   4.991   2.597  14.684 -0.2349  0.0123 -0.6617
 2984TIP3    H230368   5.141   2.581  14.687 -0.3740 -1.3436  1.1863
 2985TIP3   OH230369   2.123   2.965  15.264  0.1025 -0.1161  0.3561
 2985TIP3    H130370   2.052   3.000  15.210  1.3235  0.3680 -1.0125
 2985TIP3    H230371   2.079   2.925  15.339 -1.6726 -0.6664 -0.9142
 2986TIP3   OH230372   3.691   6.393  15.286 -0.7148 -0.0474  0.5140
 2986TIP3    H130373   3.758   6.446  15.243 -1.2855 -0.3323 -0.7941
 2986TIP3    H230374   3.715   6.303  15.263 -1.6938 -0.1325 -0.2320
 2987TIP3   OH230375   1.051   4.126  14.891  0.0974 -0.3850 -0.0824
 2987TIP3    H130376   1.069   4.075  14.812 -0.5518  1.1961 -1.3038
 2987TIP3    H230377   1.120   4.193  14.892 -1.1819  0.9892 -0.5951
 2988TIP3   OH230378   0.731   6.223   1.414  0.0971  0.1378  0.3411
 2988TIP3    H130379   0.768   6.296   1.364  1.4935  0.6528  2.0399
 2988TIP3    H230380   0.807   6.173   1.444 -0.8037 -1.5817 -0.0953
 2989TIP3   OH230381   0.658   1.912  13.959  0.1756  0.0888 -0.3054
 2989TIP3    H130382   0.645   1.957  13.876 -0.3517  0.3990 -0.0574
 2989TIP3    H230383   0.577   1.863  13.974 -0.5518  1.5645  0.9512
 2990TIP3   OH230384   4.538   1.924   2.458 -0.0550  0.0673 -0.0024
 2990TIP3    H130385   4.445   1.909   2.437 -0.8250  0.4818  2.7700
 2990TIP3    H230386   4.549   2.018   2.448 -0.1965  0.1489  0.5952
 2991TIP3   OH230387   2.261   3.757   3.308 -0.1183  0.2635 -0.1579
 2991TIP3    H130388   2.300   3.843   3.323  1.8220 -0.8630  2.1056
 2991TIP3    H230389   2.167   3.772   3.310  0.0215  1.9458  4.0444
 2992TIP3   OH230390   5.303   1.659   0.678 -0.1161 -0.3649  0.7969
 2992TIP3    H130391   5.394   1.689   0.682 -0.1850 -0.1452  0.6934
 2992TIP3    H230392   5.255   1.720   0.733 -0.2446 -0.3205  0.6366
 2993TIP3   OH230393   2.632   1.782  15.903  0.1724  0.7468  0.2023
 2993TIP3    H130394   2.702   1.747  15.958  0.9029 -0.0988 -1.1996
 2993TIP3    H230395   2.558   1.722  15.917  0.4388  0.3838  0.0679
 2994TIP3   OH230396   6.339   2.037  12.799  0.5780 -1.1014  0.3576
 2994TIP3    H130397   6.357   2.127  12.774  1.2121 -1.0507  0.9749
 2994TIP3    H230398   6.257   2.041  12.848  0.2047 -0.9735 -0.2671
 2995TIP3   OH230399   5.561   2.740  10.293  0.2366 -0.2414  0.4209
 2995TIP3    H130400   5.607   2.657  10.278 -1.3365 -1.0879  0.0734
 2995TIP3    H230401   5.524   2.730  10.381 -1.3243 -0.6051 -0.2532
 2996TIP3   OH230402   0.945   0.700  12.503 -0.3163 -0.3349 -0.1320
 2996TIP3    H130403   1.000   0.754  12.560 -0.3980 -0.6110  0.2092
 2996TIP3    H230404   0.880   0.762  12.468 -0.1123 -0.1159 -0.1260
 2997TIP3   OH230405   3.677   4.072   3.967  0.2018 -0.1764 -0.4801
 2997TIP3    H130406   3.724   4.155   3.976  0.5211 -0.1446 -2.1011
 2997TIP3    H230407   3.746   4.006   3.961  0.0479 -0.2495 -1.7685
 2998TIP3   OH230408   2.780   3.098  11.768  0.4154 -0.2250  0.0374
 2998TIP3    H130409   2.742   3.087  11.855 -2.0567  2.2577 -0.5945
 2998TIP3    H230410   2.790   3.009  11.734 -1.5302 -1.1280  1.6705
 2999TIP3   OH230411   2.119   2.796  16.578 -0.0761 -0.4821 -0.2122
 2999TIP3    H130412   2.184   2.860  16.548 -0.5311  0.2717  0.3787
 2999TIP3    H230413   2.086   2.833  16.660  0.7378 -2.2042  0.9548
 3000TIP3   OH230414   5.055   1.674  12.115 -0.4554 -0.2689  0.4642
 3000TIP3    H130415   5.072   1.591  12.161 -0.7210 -1.2774 -1.1711
 3000TIP3    H230416   5.130   1.728  12.135  0.2235 -1.2885  0.7563
 3001TIP3   OH230417   1.068   4.778  15.613 -0.2409 -0.4329  0.0577
 3001TIP3    H130418   1.018   4.707  15.574 -0.6853 -0.1284  0.0693
 3001TIP3    H230419   1.034   4.786  15.702 -0.4299  0.0182 -0.0520
 3002TIP3   OH230420   0.923   0.282   3.179 -0.3772 -0.1333 -0.1548
 3002TIP3    H130421   0.855   0.217   3.163 -0.3732 -0.5486  1.3242
 3002TIP3    H230422   0.989   0.236   3.231  0.5893  0.5187 -0.7796
 3003TIP3   OH230423   1.566   4.317   3.784  0.3021 -0.2104  0.1037
 3003TIP3    H130424   1.530   4.231   3.762  1.1490  0.2247 -3.8921
 3003TIP3    H230425   1.531   4.375   3.717  2.3592  1.8345  0.6527
 3004TIP3   OH230426   5.792   4.340   0.349 -0.2204  0.5745 -0.0979
 3004TIP3    H130427   5.758   4.252   0.362  2.0438 -0.8233 -2.6957
 3004TIP3    H230428   5.879   4.338   0.389 -0.0566  1.5618 -0.3860
 3005TIP3   OH230429   4.448   4.488   4.044 -0.3412  0.0326 -0.0529
 3005TIP3    H130430   4.496   4.409   4.019  1.4394  0.9216  0.3719
 3005TIP3    H230431   4.399   4.463   4.122  0.1157 -0.6978  0.0077
 3006TIP3   OH230432   5.028   2.568   5.708  0.3755 -0.1748  0.2069
 3006TIP3    H130433   4.945   2.557   5.662  0.1654 -0.0127  0.5399
 3006TIP3    H230434   5.016   2.647   5.760  1.3538  0.8507 -1.0566
 3007TIP3   OH230435   1.524   0.521   0.843 -0.3303 -0.2419 -0.2655
 3007TIP3    H130436   1.564   0.499   0.759 -0.8153  0.2564 -0.6302
 3007TIP3    H230437   1.536   0.616   0.852 -0.2948 -0.2870  0.2246
 3008TIP3   OH230438   4.564   1.144  10.876  0.6855 -0.4619  0.0798
 3008TIP3    H130439   4.509   1.222  10.877  0.8693 -0.2161 -2.2720
 3008TIP3    H230440   4.503   1.071  10.885  0.2880 -0.1054  0.3065
 3009TIP3   OH230441   6.354   1.147   4.749  0.3628 -0.2520 -0.0544
 3009TIP3    H130442   6.319   1.211   4.688  0.1114 -1.2850 -1.0362
 3009TIP3    H230443   6.449   1.158   4.746  0.2682  0.9923  0.8492
 3010TIP3   OH230444   6.648   4.061  14.109  0.1772 -0.0808 -0.3522
 3010TIP3    H130445   6.705   4.107  14.047 -2.0562  1.6768 -1.2283
 3010TIP3    H230446   6.584   4.126  14.135 -0.2752 -1.4215  2.1589
 3011TIP3   OH230447   5.706   3.166  12.265  0.4008  0.5399  0.3155
 3011TIP3    H130448   5.704   3.196  12.355  0.8606  1.1751  0.1234
 3011TIP3    H230449   5.792   3.194  12.232  1.1742 -1.6212  0.3434
 3012TIP3   OH230450   5.247   2.105  13.917  0.0840  0.3007  0.2710
 3012TIP3    H130451   5.261   2.011  13.921 -0.2986  0.1685 -1.0452
 3012TIP3    H230452   5.303   2.134  13.844 -0.5623  0.9246  0.0121
 3013TIP3   OH230453   2.422   2.251   3.509 -0.1106 -0.0790  0.4349
 3013TIP3    H130454   2.392   2.223   3.423  1.3548 -0.9079  0.1787
 3013TIP3    H230455   2.344   2.289   3.549 -1.9348 -3.3195  0.3072
 3014TIP3   OH230456   1.627   6.596  12.847  0.0522 -0.8076  0.1089
 3014TIP3    H130457   1.676   6.678  12.846  0.4397 -0.9966 -2.0318
 3014TIP3    H230458   1.653   6.553  12.928  1.5452  0.2043  0.2032
 3015TIP3   OH230459   0.616   4.037  11.371  0.3624  0.2699  0.7038
 3015TIP3    H130460   0.689   4.009  11.315  0.5629 -0.2510  1.2150
 3015TIP3    H230461   0.656   4.050  11.457 -0.0676  0.4212  0.8810
 3016TIP3   OH230462   6.578   6.119  11.025  0.1211 -0.3298 -0.3871
 3016TIP3    H130463   6.594   6.168  10.944  0.2116 -1.3302 -0.9933
 3016TIP3    H230464   6.665   6.088  11.051 -0.0109 -0.6634 -0.3407
 3017TIP3   OH230465   0.338   4.656   6.035  0.7624  0.4290  0.3670
 3017TIP3    H130466   0.246   4.683   6.040  0.4818 -0.6470  1.4702
 3017TIP3    H230467   0.383   4.714   6.096  0.2811 -0.9786  2.1603
 3018TIP3   OH230468   4.694   2.821   1.880 -0.1891 -0.0053  0.0821
 3018TIP3    H130469   4.629   2.849   1.944  0.4620  1.9170 -0.0407
 3018TIP3    H230470   4.765   2.785   1.933 -1.3817 -2.4354  0.2091
 3019TIP3   OH230471   2.561   4.978   2.222 -0.3027 -0.2461  0.0124
 3019TIP3    H130472   2.542   4.947   2.311  1.2058  0.5091  0.6280
 3019TIP3    H230473   2.549   4.900   2.167  0.8415 -1.2949  1.1759
 3020TIP3   OH230474   1.801   2.999  16.475  0.0980 -0.0859  0.3707
 3020TIP3    H130475   1.860   2.947  16.420 -0.4486 -0.8061  0.4440
 3020TIP3    H230476   1.833   3.089  16.467  0.1134 -0.1961 -1.0041
 3021TIP3   OH230477   6.083   5.284   3.774  0.0126  0.1486 -0.2617
 3021TIP3    H130478   5.990   5.297   3.754  0.2541  0.2064 -1.3984
 3021TIP3    H230479   6.109   5.210   3.719  0.2312 -1.0597  1.3578
 3022TIP3   OH230480   3.921   3.443   0.481  0.0168 -0.4196 -0.2373
 3022TIP3    H130481   3.954   3.492   0.406 -0.2443 -1.4942 -1.0707
 3022TIP3    H230482   3.871   3.371   0.443  0.3232 -1.2904  0.9572
 3023TIP3   OH230483   3.499   4.560  14.890 -0.1154 -0.4240 -0.5110
 3023TIP3    H130484   3.559   4.495  14.927 -0.5246 -1.0271 -0.8819
 3023TIP3    H230485   3.478   4.618  14.963  0.4809 -0.5436 -0.2406
 3024TIP3   OH230486   4.359   0.086  13.568 -0.1640  0.1280 -0.2321
 3024TIP3    H130487   4.442   0.080  13.616 -0.2388  0.7080 -0.0300
 3024TIP3    H230488   4.367   0.020  13.499 -0.0004 -0.6198  0.4814
 3025TIP3   OH230489   1.056   1.627   5.295  0.6276  0.0478 -0.1903
 3025TIP3    H130490   0.991   1.649   5.228  0.0286  0.5212  0.5242
 3025TIP3    H230491   1.031   1.540   5.324  0.0457  0.3839  0.3610
 3026TIP3   OH230492   2.672   0.931   0.890 -0.3989  0.3328  0.2088
 3026TIP3    H130493   2.757   0.927   0.847 -0.8966  2.2218 -1.0768
 3026TIP3    H230494   2.692   0.935   0.984  0.8141 -1.0927  0.0513
 3027TIP3   OH230495   4.729   0.780   3.294 -0.4853 -0.4932 -0.1243
 3027TIP3    H130496   4.708   0.783   3.201  3.8642  0.4958 -1.3110
 3027TIP3    H230497   4.798   0.714   3.301  0.8198  0.9853  1.9802
 3028TIP3   OH230498   6.538   5.502   5.283  0.3004 -0.4653  0.2355
 3028TIP3    H130499   6.505   5.437   5.345 -0.5765  0.8637  1.2243
 3028TIP3    H230500   6.591   5.452   5.221 -0.1547 -2.0702  1.0937
 3029TIP3   OH230501   2.768   3.187   3.146 -0.1929  0.6543 -0.1429
 3029TIP3    H130502   2.736   3.217   3.231  0.5372  0.5343  0.1841
 3029TIP3    H230503   2.801   3.099   3.162 -0.0903  0.6129 -0.5611
 3030TIP3   OH230504   1.339   6.075  15.236  0.3693 -0.1085 -0.7948
 3030TIP3    H130505   1.304   6.017  15.169 -1.1988  1.1331 -1.1272
 3030TIP3    H230506   1.394   6.019  15.290 -1.5323 -2.0492 -0.7206
 3031TIP3   OH230507   3.631   6.112  10.434 -0.4694  0.1956  0.2716
 3031TIP3    H130508   3.686   6.161  10.496  0.9020 -0.6190 -0.2356
 3031TIP3    H230509   3.689   6.043  10.402 -1.3599  0.1842 -1.4054
 3032TIP3   OH230510   4.202   5.799  16.676 -0.2688  0.1307  0.0432
 3032TIP3    H130511   4.270   5.835  16.732 -0.4313 -0.4563  0.6359
 3032TIP3    H230512   4.193   5.708  16.705 -0.1953 -0.2471 -1.0994
 3033TIP3   OH230513   1.463   3.367  12.203  0.2115  0.6012  0.1150
 3033TIP3    H130514   1.430   3.297  12.259  0.5639 -0.2575 -0.7450
 3033TIP3    H230515   1.386   3.397  12.153 -0.5468  2.6240  2.2791
 3034TIP3   OH230516   0.524   5.074  13.863 -0.1137 -0.2903  0.6179
 3034TIP3    H130517   0.453   5.065  13.800  0.7704 -1.8475 -0.1895
 3034TIP3    H230518   0.584   5.003  13.843  0.8377 -0.0419  2.3946
 3035TIP3   OH230519   0.720   5.687   0.217 -0.3843 -0.2796 -0.1377
 3035TIP3    H130520   0.780   5.666   0.145  2.7353  3.0819  1.2018
 3035TIP3    H230521   0.667   5.760   0.183 -0.3539 -0.0584  0.2893
 3036TIP3   OH230522   1.718   1.021   1.644  0.4140  0.3248 -0.0555
 3036TIP3    H130523   1.671   1.103   1.657  0.0748  0.1576 -0.2006
 3036TIP3    H230524   1.667   0.957   1.694 -0.6330 -0.2316 -1.7455
 3037TIP3   OH230525   0.050   2.545   2.342 -0.5045  0.1818  0.0265
 3037TIP3    H130526   0.051   2.488   2.266  2.1088  0.1798 -0.0245
 3037TIP3    H230527  -0.013   2.614   2.320  1.5091  1.2438 -3.0233
 3038TIP3   OH230528   5.209   2.609   2.503 -0.2681  0.3611  0.2665
 3038TIP3    H130529   5.270   2.679   2.479 -1.4129  1.2689 -0.0674
 3038TIP3    H230530   5.135   2.654   2.543 -1.6135 -0.5165 -1.1151
 3039TIP3   OH230531   2.811   3.643  13.897  0.0710  0.2804  0.2220
 3039TIP3    H130532   2.771   3.699  13.832  0.4973  2.1655  1.5010
 3039TIP3    H230533   2.784   3.554  13.873 -0.7754  1.0299 -1.7551
 3040TIP3   OH230534   0.605   2.295   5.696 -0.1387 -0.6270 -0.3568
 3040TIP3    H130535   0.530   2.325   5.645 -0.4507 -1.2367 -0.2556
 3040TIP3    H230536   0.578   2.306   5.787  0.7173  1.2503 -0.2631
 3041TIP3   OH230537   0.489   0.075  16.346 -0.0288  0.4865  0.4144
 3041TIP3    H130538   0.449   0.095  16.262  0.9096  0.2475 -0.0982
 3041TIP3    H230539   0.481   0.156  16.396 -0.1338  0.7857 -0.0831
 3042TIP3   OH230540   3.981   6.253   4.460  0.2216 -0.1018  0.4780
 3042TIP3    H130541   3.887   6.268   4.446  0.2665  0.2097  0.5058
 3042TIP3    H230542   3.992   6.159   4.449 -0.1013 -0.1434  0.5046
 3043TIP3   OH230543   1.979   0.393   6.002 -0.0576  0.0915 -0.1434
 3043TIP3    H130544   1.941   0.316   6.044 -0.8250  0.8868  0.6636
 3043TIP3    H230545   1.920   0.412   5.929 -0.4670  0.5317  0.2971
 3044TIP3   OH230546   4.184   2.444  14.253  0.1378  0.2886 -0.2695
 3044TIP3    H130547   4.191   2.520  14.311  0.9170  1.3799 -1.7360
 3044TIP3    H230548   4.265   2.445  14.202 -0.4445 -0.7362 -1.2626
 3045TIP3   OH230549   4.259   5.397   6.133 -0.5822  0.1099  0.1790
 3045TIP3    H130550   4.190   5.352   6.181 -1.5011  2.3473  1.0835
 3045TIP3    H230551   4.335   5.394   6.192 -0.4687 -0.7368 -0.0111
 3046TIP3   OH230552   4.782   3.216   4.373  0.2502  0.0863  0.1819
 3046TIP3    H130553   4.784   3.191   4.281  1.3749 -1.7524  0.6463
 3046TIP3    H230554   4.701   3.267   4.383  0.1652  0.4136 -1.8104
 3047TIP3   OH230555   1.118   1.115   1.198  0.0941  0.0141  0.6228
 3047TIP3    H130556   1.127   1.022   1.177 -0.5730  0.6324 -2.9521
 3047TIP3    H230557   1.032   1.139   1.166 -0.4766  1.5826  3.0565
 3048TIP3   OH230558   3.470   2.639  12.666 -0.1097  0.0631  0.5705
 3048TIP3    H130559   3.445   2.732  12.660  2.0682  0.6975  0.3024
 3048TIP3    H230560   3.541   2.638  12.731  0.6238 -1.2500 -0.2243
 3049TIP3   OH230561   0.203   3.637   0.373 -0.1225 -0.6764  0.3152
 3049TIP3    H130562   0.266   3.679   0.432 -1.1015  1.0110  0.2104
 3049TIP3    H230563   0.145   3.588   0.432 -0.4070  0.0653  0.6598
 3050TIP3   OH230564   0.950   0.465   2.161 -0.2967  0.5059 -0.1159
 3050TIP3    H130565   1.042   0.491   2.161  0.0122 -0.5397  0.3996
 3050TIP3    H230566   0.903   0.544   2.187  0.5441  0.7676  0.6627
 3051TIP3   OH230567   2.562   1.415   2.662  0.0092 -0.4056  0.7573
 3051TIP3    H130568   2.523   1.327   2.669  1.3060 -1.3214 -1.9305
 3051TIP3    H230569   2.619   1.421   2.738 -0.4778 -1.6806  1.2694
 3052TIP3   OH230570   6.752   2.583   1.671  0.5727  0.3839  0.1398
 3052TIP3    H130571   6.799   2.655   1.713  1.5071  0.2581 -0.6390
 3052TIP3    H230572   6.821   2.534   1.626 -0.5465  1.7577 -3.3849
 3053TIP3   OH230573   2.215   1.771   4.642  0.3604  0.2816 -0.2499
 3053TIP3    H130574   2.273   1.696   4.651  0.3696  0.4959  2.1764
 3053TIP3    H230575   2.180   1.764   4.553 -0.0234 -2.8573  0.0290
 3054TIP3   OH230576   2.115   5.758  15.543  0.1968  0.4451 -0.2221
 3054TIP3    H130577   2.186   5.748  15.479  0.8898 -2.7372  0.8832
 3054TIP3    H230578   2.035   5.761  15.490  0.8259 -0.9981 -1.3260
 3055TIP3   OH230579   4.033   2.899   5.390  0.0708  0.0159 -0.1753
 3055TIP3    H130580   3.939   2.893   5.406  0.1525  1.9865  1.4256
 3055TIP3    H230581   4.053   2.993   5.399  1.6547  0.2165 -3.8751
 3056TIP3   OH230582   2.531   0.710  15.290 -0.1327  0.4383  0.1887
 3056TIP3    H130583   2.542   0.804  15.273  1.7512  0.0454 -1.0079
 3056TIP3    H230584   2.459   0.706  15.353 -1.2108  2.6010 -0.7634
 3057TIP3   OH230585   4.748   0.696  13.806  0.0145  0.0913 -0.0183
 3057TIP3    H130586   4.711   0.614  13.772 -0.1292  0.6877 -1.3921
 3057TIP3    H230587   4.767   0.748  13.727 -0.4569  1.6134  0.8273
 3058TIP3   OH230588   1.684   2.025  12.348 -0.4078  0.3415 -0.1490
 3058TIP3    H130589   1.617   2.059  12.289  0.0271 -1.3825 -1.7105
 3058TIP3    H230590   1.766   2.063  12.316 -0.2490 -0.0648 -0.2212
 3059TIP3   OH230591   5.906   5.830   6.295  0.1337  0.1206  0.6943
 3059TIP3    H130592   5.898   5.893   6.367  0.9052  0.2293  0.6871
 3059TIP3    H230593   5.833   5.852   6.237  0.4356  1.0812  0.6464
 3060TIP3   OH230594   4.992   0.611   1.781 -0.3093 -0.4198  0.5695
 3060TIP3    H130595   5.059   0.650   1.725 -1.6910  0.6926 -0.3806
 3060TIP3    H230596   5.041   0.571   1.853  1.4893 -1.2399 -1.0179
 3061TIP3   OH230597   1.120   6.485   5.280  0.1728 -0.7259  0.1768
 3061TIP3    H130598   1.033   6.518   5.303  1.1996  0.4462  2.6872
 3061TIP3    H230599   1.123   6.397   5.319 -0.0556 -0.9807 -0.3709
 3062TIP3   OH230600   5.096   2.597  16.761 -0.1699  0.0164  0.8057
 3062TIP3    H130601   5.108   2.654  16.837 -0.5751 -0.9438  1.6249
 3062TIP3    H230602   5.152   2.522  16.779  1.0478  0.5329 -0.6892
 3063TIP3   OH230603   0.204   0.208  17.028 -0.0673  0.1593  0.8025
 3063TIP3    H130604   0.240   0.274  16.969 -1.3718 -0.1002 -0.3274
 3063TIP3    H230605   0.275   0.147  17.042  0.3790  0.4298 -0.2093
 3064TIP3   OH230606   5.999   3.997   1.760 -0.6911  0.2606 -0.0489
 3064TIP3    H130607   5.951   4.074   1.792 -0.9039 -0.2750  0.9638
 3064TIP3    H230608   5.966   3.924   1.813  1.4305 -0.0886  0.9024
 3065TIP3   OH230609   3.019   2.985   4.967  0.1881 -0.4784 -0.1342
 3065TIP3    H130610   3.027   2.987   4.872  1.2988  2.7711 -0.1045
 3065TIP3    H230611   3.109   2.977   4.999 -0.2246 -2.3052  0.7142
 3066TIP3   OH230612   6.524   1.378   3.103 -0.1280 -0.3714  0.0895
 3066TIP3    H130613   6.535   1.473   3.105  1.4256 -0.5325  0.5077
 3066TIP3    H230614   6.430   1.365   3.089 -0.6073  1.2216  1.5075
 3067TIP3   OH230615   1.644   0.443  11.700  0.2305  0.1741  0.2095
 3067TIP3    H130616   1.674   0.499  11.628  1.7769  1.0224  1.4395
 3067TIP3    H230617   1.550   0.430  11.683  0.4251  0.8251 -1.6102
 3068TIP3   OH230618   1.217   2.571   5.175  0.3390  0.1114  0.3548
 3068TIP3    H130619   1.263   2.602   5.253 -0.9894 -0.2087  1.3009
 3068TIP3    H230620   1.149   2.637   5.159  1.2873  0.7655 -1.2325
 3069TIP3   OH230621   0.220   5.754   5.414  0.4191  0.6578  0.1955
 3069TIP3    H130622   0.180   5.672   5.382 -1.1027  1.0350  1.0580
 3069TIP3    H230623   0.288   5.774   5.348 -0.7769 -0.0285 -1.3190
 3070TIP3   OH230624   0.242   1.295  14.170  0.5330 -0.2114 -0.0671
 3070TIP3    H130625   0.228   1.336  14.084 -1.3027  3.4918  1.7566
 3070TIP3    H230626   0.202   1.356  14.232 -1.7693 -4.4643  3.2060
 3071TIP3   OH230627   6.654   0.176   4.069 -0.3058  0.5943  0.1735
 3071TIP3    H130628   6.692   0.092   4.092 -0.0087  0.3021 -1.2674
 3071TIP3    H230629   6.703   0.203   3.991 -1.1743  1.5524 -0.0558
 3072TIP3   OH230630   6.593   6.790  14.206 -0.0137 -0.6386  0.3104
 3072TIP3    H130631   6.646   6.769  14.283  1.7119 -0.3634 -0.7597
 3072TIP3    H230632   6.542   6.710  14.190 -0.0863 -0.8459  1.4561
 3073TIP3   OH230633   1.470   5.596  13.089  0.2006 -0.0530 -0.1721
 3073TIP3    H130634   1.559   5.621  13.065  0.4527 -2.1643 -1.8559
 3073TIP3    H230635   1.416   5.628  13.016 -0.2718  0.3379  0.3433
 3074TIP3   OH230636   4.289   6.319   5.013  0.0142  0.3187  0.6727
 3074TIP3    H130637   4.268   6.367   4.932 -0.1517  0.9704  1.0942
 3074TIP3    H230638   4.253   6.231   4.998 -0.0218  0.4342  0.0384
 3075TIP3   OH230639   1.547   4.648   4.862  0.0833  0.0058 -0.0487
 3075TIP3    H130640   1.579   4.565   4.897  1.2324  0.3447 -0.2664
 3075TIP3    H230641   1.623   4.687   4.818 -0.9941  0.1703 -1.8582
 3076TIP3   OH230642   5.669   1.021   0.027 -0.1637  0.0606  0.5013
 3076TIP3    H130643   5.751   1.065   0.050 -1.1358  1.7567  0.9470
 3076TIP3    H230644   5.604   1.061   0.085 -1.1591 -1.9434  0.8448
 3077TIP3   OH230645   5.984   2.130   5.198  0.2156  0.2743 -0.3477
 3077TIP3    H130646   6.071   2.103   5.226  0.3684  1.1277  0.0270
 3077TIP3    H230647   5.993   2.147   5.104  1.3567  3.6103  0.2343
 3078TIP3   OH230648   4.254   6.400  12.306  0.7951  0.1153 -0.3975
 3078TIP3    H130649   4.323   6.343  12.341  0.4783 -0.6348 -0.9479
 3078TIP3    H230650   4.289   6.488  12.316  1.2517 -0.1551  0.5967
 3079TIP3   OH230651   3.741   0.266  13.727 -0.5804  0.3395 -0.3300
 3079TIP3    H130652   3.712   0.290  13.815 -0.8836 -0.1930 -0.2780
 3079TIP3    H230653   3.836   0.266  13.731 -0.5968 -0.3593  0.1916
 3080TIP3   OH230654   5.504   3.442  13.375 -0.2522  0.3741  0.0814
 3080TIP3    H130655   5.509   3.512  13.440  0.2907 -0.4861  0.9875
 3080TIP3    H230656   5.586   3.450  13.326 -0.2226  0.4146  0.1367
 3081TIP3   OH230657   5.179   5.928  13.578  0.3007 -0.2917 -0.1422
 3081TIP3    H130658   5.086   5.950  13.583 -0.2073 -2.4282  1.6654
 3081TIP3    H230659   5.182   5.844  13.533  1.1022 -1.1824  1.4614
 3082TIP3   OH230660   0.759   1.085   2.204 -0.1548  0.7586  0.2413
 3082TIP3    H130661   0.683   1.141   2.222  0.4217  1.2479  1.3122
 3082TIP3    H230662   0.742   1.048   2.117 -1.4173  1.1661  0.2851
 3083TIP3   OH230663   2.580   6.361  14.983  0.2227  0.3887 -0.0217
 3083TIP3    H130664   2.595   6.355  15.077  0.4747  0.3337 -0.0628
 3083TIP3    H230665   2.569   6.270  14.955 -1.7593  0.5087  0.2440
 3084TIP3   OH230666   1.509   6.327  14.188  0.3475 -0.2899  0.8895
 3084TIP3    H130667   1.555   6.382  14.124  0.9491  0.2467  1.7529
 3084TIP3    H230668   1.427   6.374  14.205 -0.0655 -0.7202  0.1065
 3085TIP3   OH230669   0.006   6.718   1.725  0.7931  0.1093 -0.4854
 3085TIP3    H130670  -0.029   6.789   1.672 -0.2890 -0.0541 -0.0288
 3085TIP3    H230671   0.017   6.645   1.664 -0.3911 -0.0601 -0.5318
 3086TIP3   OH230672   6.274   2.110  11.796 -0.3402  0.8563  0.7997
 3086TIP3    H130673   6.272   2.015  11.796  2.0044  0.7680  1.4497
 3086TIP3    H230674   6.249   2.134  11.707 -0.9039 -0.3445  0.6140
 3087TIP3   OH230675   2.429   4.811   4.058  0.4045  0.3150  0.3957
 3087TIP3    H130676   2.501   4.847   4.109 -0.2428  3.1234 -0.5350
 3087TIP3    H230677   2.404   4.880   3.998 -1.7514 -1.3076 -0.7282
 3088TIP3   OH230678   1.528   2.636  15.002  0.2748  0.0752 -0.1362
 3088TIP3    H130679   1.610   2.629  14.952 -0.3368 -1.5855 -0.9868
 3088TIP3    H230680   1.539   2.714  15.055  1.4508  1.2569 -1.9992
 3089TIP3   OH230681   1.193   0.338   5.906 -0.4332  0.6989 -0.5285
 3089TIP3    H130682   1.178   0.428   5.936 -0.3471  1.0260 -1.4092
 3089TIP3    H230683   1.287   0.333   5.891 -0.4912  0.5950 -0.8718
 3090TIP3   OH230684   0.912   0.043   0.723 -0.3946 -0.2542  0.8866
 3090TIP3    H130685   0.839   0.098   0.695  1.2265  0.4748 -2.5361
 3090TIP3    H230686   0.905  -0.035   0.669  0.9800 -0.4382  0.9274
 3091TIP3   OH230687   1.939   0.585  11.252 -0.0277 -0.3320 -0.2675
 3091TIP3    H130688   1.865   0.623  11.298  0.3168  1.4389 -1.0923
 3091TIP3    H230689   1.907   0.570  11.163  0.1769 -0.9540 -0.2402
 3092TIP3   OH230690   0.158   3.419  12.267 -0.0973  0.1319 -0.0703
 3092TIP3    H130691   0.113   3.441  12.348 -0.2033 -0.3837  0.0124
 3092TIP3    H230692   0.152   3.324  12.261 -1.5266  0.2741 -1.5008
 3093TIP3   OH230693   5.170   4.224   6.236  0.0220  0.1859  0.4762
 3093TIP3    H130694   5.096   4.256   6.287  0.7788  1.0043  1.0840
 3093TIP3    H230695   5.226   4.180   6.301 -0.0925 -0.7389 -0.0362
 3094TIP3   OH230696   0.144   3.116   2.798  0.2177 -0.4490  0.2469
 3094TIP3    H130697   0.098   3.111   2.714 -0.8631 -2.5236  0.8778
 3094TIP3    H230698   0.111   3.196   2.838 -1.2213 -0.7419 -0.2648
 3095TIP3   OH230699   5.867   3.599   4.874  0.2264 -0.0374  0.4023
 3095TIP3    H130700   5.923   3.563   4.943  0.3363  0.6121  0.6566
 3095TIP3    H230701   5.793   3.539   4.870 -0.6972  0.8636  2.3561
 3096TIP3   OH230702   2.007   4.446  12.486  0.0392 -0.0797 -0.0851
 3096TIP3    H130703   1.943   4.416  12.422  1.2631 -1.3478 -0.7582
 3096TIP3    H230704   2.085   4.465  12.436  1.1152 -1.3637  1.0317
 3097TIP3   OH230705   4.054   1.864   3.461 -0.0308  0.3277  0.3357
 3097TIP3    H130706   4.130   1.892   3.512 -0.4610  0.8704  0.6985
 3097TIP3    H230707   4.066   1.770   3.450  0.3866  0.3085  0.9061
 3098TIP3   OH230708   6.329   5.897   5.360 -0.4470  0.3164  0.6257
 3098TIP3    H130709   6.371   5.966   5.412  1.7821 -1.1482  0.9119
 3098TIP3    H230710   6.332   5.930   5.270  0.3750  0.6940  0.7812
 3099TIP3   OH230711   4.402   1.931  17.138  0.3922 -0.0541 -0.1579
 3099TIP3    H130712   4.307   1.937  17.151  0.3479 -0.6714 -0.2034
 3099TIP3    H230713   4.414   1.951  17.045  0.4558  1.5117  0.1487
 3100TIP3   OH230714   3.261   4.685  10.541 -0.1034 -0.5851  0.3019
 3100TIP3    H130715   3.328   4.752  10.555 -1.0068  0.7001 -1.2016
 3100TIP3    H230716   3.187   4.714  10.595 -0.1106 -0.9829  0.5099
 3101TIP3   OH230717   3.949   2.608   2.433  0.0352  0.5201 -0.6890
 3101TIP3    H130718   3.951   2.703   2.446 -0.7412  0.3657  0.8056
 3101TIP3    H230719   3.969   2.572   2.519 -0.9429 -0.6645 -0.9292
 3102TIP3   OH230720   2.016   0.124   2.633  1.1220 -0.2191 -0.0439
 3102TIP3    H130721   1.951   0.054   2.623 -0.2614  1.1748 -1.1978
 3102TIP3    H230722   2.097   0.086   2.599  0.6920 -1.6257  0.4042
 3103TIP3   OH230723   5.292   6.101   4.309 -0.1501  0.2133  0.1487
 3103TIP3    H130724   5.301   6.119   4.215  0.6969 -2.2311 -0.3127
 3103TIP3    H230725   5.378   6.123   4.346 -0.0082 -0.2042  0.0744
 3104TIP3   OH230726   2.764   1.299  16.895 -0.0044  0.2962  0.2571
 3104TIP3    H130727   2.751   1.206  16.876 -1.7922  0.8326 -1.5301
 3104TIP3    H230728   2.708   1.315  16.971 -0.0268  0.0054  0.3053
 3105TIP3   OH230729   5.185   4.596  10.686 -0.0497 -0.8733 -0.0161
 3105TIP3    H130730   5.238   4.571  10.762 -0.6470  1.9757  1.4924
 3105TIP3    H230731   5.107   4.542  10.692  0.1893 -1.1284  1.0662
 3106TIP3   OH230732   6.577   5.049  15.481  0.1186  0.0308  0.1491
 3106TIP3    H130733   6.626   5.011  15.554 -2.7319 -2.6454  0.8899
 3106TIP3    H230734   6.573   4.979  15.415  1.7280  2.0202 -2.2469
 3107TIP3   OH230735   0.576   6.229  16.499  0.4029  0.3583  0.0438
 3107TIP3    H130736   0.583   6.324  16.510  0.6377  0.2739  0.6495
 3107TIP3    H230737   0.607   6.213  16.410 -0.2549  0.9177 -0.3023
 3108TIP3   OH230738   4.111   1.165   5.890  0.1523  1.2947 -0.2138
 3108TIP3    H130739   4.018   1.147   5.904  0.4071 -0.3647 -0.5170
 3108TIP3    H230740   4.155   1.131   5.968  0.7523 -0.5414 -1.2960
 3109TIP3   OH230741   5.221   0.759  13.494  0.4340 -0.0023  0.1945
 3109TIP3    H130742   5.139   0.807  13.504 -0.5264 -0.9014 -2.4774
 3109TIP3    H230743   5.269   0.809  13.428  1.3915 -0.3144  0.6435
 3110TIP3   OH230744   1.295   3.915   4.541 -0.1416 -0.6954  0.2859
 3110TIP3    H130745   1.224   3.935   4.481 -0.2642 -0.4268  0.5222
 3110TIP3    H230746   1.316   3.998   4.583  1.3897 -0.4178 -0.9388
 3111TIP3   OH230747   1.238   3.794  16.849  0.2235  0.6425 -0.1144
 3111TIP3    H130748   1.224   3.763  16.938 -0.8007  1.1783 -0.0686
 3111TIP3    H230749   1.168   3.753  16.798 -0.1571  1.5807 -0.3596
 3112TIP3   OH230750   5.737   3.332   6.284 -0.2648  0.0773  0.0239
 3112TIP3    H130751   5.725   3.400   6.350  0.3800 -0.8966  1.1844
 3112TIP3    H230752   5.785   3.376   6.213 -1.0529  1.1594  0.1268
 3113TIP3   OH230753   5.245   6.721   3.937 -0.2478 -0.7791  1.0241
 3113TIP3    H130754   5.340   6.713   3.928 -0.2783 -0.5392  0.4519
 3113TIP3    H230755   5.228   6.703   4.030  0.2840 -1.5047  0.9933
 3114TIP3   OH230756   5.839   2.655  12.409 -0.5807  0.2132  0.1031
 3114TIP3    H130757   5.912   2.716  12.415 -0.2022 -0.1629 -0.5769
 3114TIP3    H230758   5.837   2.612  12.495 -0.7326  1.0286  0.5226
 3115TIP3   OH230759   0.073   3.929  14.858  0.3085  0.1162 -0.2869
 3115TIP3    H130760   0.057   4.008  14.807  0.7733 -0.7349 -1.8162
 3115TIP3    H230761  -0.012   3.886  14.863 -0.1957  1.2398  1.5439
 3116TIP3   OH230762   3.432   4.726   4.685 -0.2130  0.2820 -0.4246
 3116TIP3    H130763   3.516   4.682   4.678  0.0224  0.7932 -1.0106
 3116TIP3    H230764   3.442   4.787   4.758 -1.1557 -1.8805  1.6449
 3117TIP3   OH230765   5.381   4.938  16.756  0.2387 -0.0790 -0.0880
 3117TIP3    H130766   5.439   5.011  16.775  1.5517 -0.9755 -0.4705
 3117TIP3    H230767   5.437   4.874  16.711 -1.4348 -0.2997 -1.9986
 3118TIP3   OH230768   0.546   3.877   2.045 -0.5245  0.2887 -0.0946
 3118TIP3    H130769   0.607   3.836   1.984 -1.7866 -0.0973 -1.1580
 3118TIP3    H230770   0.576   3.967   2.053  1.3567 -0.3817  1.0290
 3119TIP3   OH230771   1.126   2.074  11.680  0.0788  0.2678 -0.1492
 3119TIP3    H130772   1.191   2.095  11.747 -0.9690 -0.0465  1.0155
 3119TIP3    H230773   1.135   2.143  11.614  1.9531 -0.0904 -0.3122
 3120TIP3   OH230774   5.383   3.109   3.179 -0.0840  0.0395 -0.0532
 3120TIP3    H130775   5.331   3.030   3.194  1.1883 -0.7684  0.2022
 3120TIP3    H230776   5.436   3.119   3.259  0.9621  0.2145 -0.7547
 3121TIP3   OH230777   1.152   0.342   5.527  0.1534 -0.3802 -0.0546
 3121TIP3    H130778   1.087   0.411   5.511 -0.7898 -0.7504  1.9091
 3121TIP3    H230779   1.113   0.264   5.487  1.1669  0.1219 -2.1724
 3122TIP3   OH230780   1.797   4.010  15.262 -0.1138  0.0011 -0.0232
 3122TIP3    H130781   1.766   4.060  15.186  0.4211 -0.8602 -0.8350
 3122TIP3    H230782   1.781   4.068  15.337 -1.2092  0.6275 -0.7109
 3123TIP3   OH230783   1.887   2.171  14.476 -0.5022 -0.7790 -0.0666
 3123TIP3    H130784   1.817   2.198  14.535 -3.2636 -1.6478 -2.6632
 3123TIP3    H230785   1.894   2.076  14.489 -0.7660 -0.8945 -0.7140
 3124TIP3   OH230786   6.345   4.824   0.527  0.3895 -0.1170  0.2672
 3124TIP3    H130787   6.363   4.916   0.545 -1.6444  0.2037  0.8450
 3124TIP3    H230788   6.432   4.785   0.515  1.2594  2.0344 -0.9701
 3125TIP3   OH230789   3.429   0.064   3.466  0.5293 -0.1937  0.8217
 3125TIP3    H130790   3.439   0.091   3.375 -0.3289 -0.4581  0.6383
 3125TIP3    H230791   3.517   0.037   3.493  0.5340 -1.5359 -0.3923
 3126TIP3   OH230792   5.216   5.803  14.980  0.0755 -0.0407  0.4171
 3126TIP3    H130793   5.204   5.754  15.062  1.3851 -0.6842  0.2415
 3126TIP3    H230794   5.213   5.895  15.007 -0.0983 -0.2378  1.0990
 3127TIP3   OH230795   6.720   0.465   4.095  0.0753  0.2118  0.0410
 3127TIP3    H130796   6.696   0.377   4.063  0.3306 -0.0149  0.4702
 3127TIP3    H230797   6.808   0.479   4.060  1.2154 -0.8869  2.2882
 3128TIP3   OH230798   3.432   0.727   0.442  0.3108  0.6095 -0.2426
 3128TIP3    H130799   3.440   0.726   0.538 -0.9804 -1.2163 -0.1079
 3128TIP3    H230800   3.499   0.789   0.413  2.0562 -0.2491  1.7180
 3129TIP3   OH230801   4.383   1.796   0.898  0.1915  0.1195 -0.5046
 3129TIP3    H130802   4.314   1.731   0.888  1.2981 -1.2289  0.2704
 3129TIP3    H230803   4.397   1.831   0.810 -0.7573 -0.3348 -0.8399
 3130TIP3   OH230804   0.936   5.689  16.989 -0.0732  0.3536  0.0989
 3130TIP3    H130805   0.968   5.689  16.899 -0.0969 -0.0062  0.0902
 3130TIP3    H230806   0.989   5.756  17.033 -0.2742  0.7428 -0.2527
 3131TIP3   OH230807   2.013   3.521   2.062 -0.4814  0.1732  0.3316
 3131TIP3    H130808   1.974   3.500   2.147  0.1096  0.4132  0.6644
 3131TIP3    H230809   2.074   3.592   2.080 -1.6983  1.5114 -0.6038
 3132TIP3   OH230810   3.263   2.312   1.258  0.1461  0.3884  0.0060
 3132TIP3    H130811   3.318   2.374   1.307  0.9632  0.9242 -1.5221
 3132TIP3    H230812   3.325   2.260   1.207 -0.5553 -1.4651  0.9420
 3133TIP3   OH230813   6.580   1.687   4.976 -0.1954  0.3383  0.0435
 3133TIP3    H130814   6.552   1.660   4.889  1.0550 -0.9897  0.0227
 3133TIP3    H230815   6.532   1.768   4.992 -1.4173 -0.0706 -1.3432
 3134TIP3   OH230816   3.023   3.798   1.835  0.7218 -0.7595 -0.3519
 3134TIP3    H130817   3.005   3.704   1.833 -0.3737 -0.6765  1.9790
 3134TIP3    H230818   2.991   3.826   1.921  1.3736  1.6850 -0.8444
 3135TIP3   OH230819   5.631   5.458   1.595  0.2465  0.1048  0.0753
 3135TIP3    H130820   5.604   5.472   1.504  1.5975  0.6227 -0.2726
 3135TIP3    H230821   5.665   5.543   1.623  2.3621 -0.7079  0.1530
 3136TIP3   OH230822   0.389   4.833  10.991 -0.7185 -0.2485  0.0162
 3136TIP3    H130823   0.299   4.860  10.975 -0.7564 -0.4290 -0.0846
 3136TIP3    H230824   0.394   4.743  10.957 -0.1060  0.2623 -1.3275
 3137TIP3   OH230825   0.967   5.632   4.769  0.3836 -0.3891  0.1702
 3137TIP3    H130826   0.924   5.578   4.703 -0.3269 -0.7671  0.9158
 3137TIP3    H230827   0.978   5.718   4.728 -1.2425 -0.2361 -0.0005
 3138TIP3   OH230828   3.009   1.807  16.124  0.2145  0.1045  0.1466
 3138TIP3    H130829   3.088   1.755  16.108 -0.0867  0.3918 -3.0334
 3138TIP3    H230830   2.937   1.743  16.121  0.1543  0.1549  0.5336
 3139TIP3   OH230831   3.103   5.813  13.038 -0.1283 -0.4568 -0.3437
 3139TIP3    H130832   3.167   5.884  13.044  0.2246 -0.7548 -0.5779
 3139TIP3    H230833   3.047   5.837  12.964 -0.4546 -0.0622  0.0269
 3140TIP3   OH230834   3.792   6.508   1.606 -0.2684 -0.1477 -0.1257
 3140TIP3    H130835   3.753   6.552   1.530 -1.0118  0.4617  0.5872
 3140TIP3    H230836   3.757   6.419   1.602 -2.2748  0.5351  0.8131
 3141TIP3   OH230837   5.376   4.316   5.760  0.4236 -0.0778 -0.1189
 3141TIP3    H130838   5.377   4.332   5.854  0.4419  0.8434 -0.2732
 3141TIP3    H230839   5.394   4.222   5.752  2.0986  0.1272  0.7230
 3142TIP3   OH230840   5.170   0.317   0.937  0.5536  0.2981  0.2411
 3142TIP3    H130841   5.175   0.367   1.018  0.3657 -0.0132  0.4498
 3142TIP3    H230842   5.210   0.232   0.959  0.4742  0.2022  0.0175
 3143TIP3   OH230843   2.424   0.050   2.235  0.5877 -0.6380  0.0490
 3143TIP3    H130844   2.426   0.058   2.330  0.8231 -0.8431  0.0611
 3143TIP3    H230845   2.428   0.140   2.203  1.7811 -0.6200  0.2069
 3144TIP3   OH230846   3.043   3.090   1.479  0.2031  0.5760 -0.0396
 3144TIP3    H130847   3.099   3.130   1.413  1.9098 -0.9841  0.3595
 3144TIP3    H230848   2.962   3.141   1.477  0.3469  0.8367 -3.0013
 3145TIP3   OH230849   3.007   0.528  17.073  0.1397  0.2213  0.3588
 3145TIP3    H130850   3.083   0.470  17.084  0.1630 -0.3065 -1.9953
 3145TIP3    H230851   2.932   0.475  17.099  0.1758 -0.8791 -1.6481
 3146TIP3   OH230852   3.216   4.073   1.743 -0.2458  0.4733  0.2597
 3146TIP3    H130853   3.243   4.129   1.815 -1.1470  2.0689 -0.5860
 3146TIP3    H230854   3.255   3.988   1.762  0.5916  1.2010  1.9416
 3147TIP3   OH230855   5.342   4.757  12.402  0.0326 -0.6483 -0.3231
 3147TIP3    H130856   5.251   4.784  12.419  0.0338 -1.3026  0.8392
 3147TIP3    H230857   5.339   4.661  12.401  0.5977 -0.6638 -0.9903
 3148TIP3   OH230858   4.731   1.672   0.961  0.4727 -0.5767  0.1601
 3148TIP3    H130859   4.664   1.605   0.951  0.1296 -0.0328 -1.8513
 3148TIP3    H230860   4.692   1.737   1.020 -0.6408 -0.4793 -0.6443
 3149TIP3   OH230861   6.609   2.142   2.905 -0.0219  0.3702  0.7373
 3149TIP3    H130862   6.692   2.171   2.943  0.3627 -0.7336  0.7594
 3149TIP3    H230863   6.614   2.047   2.906  0.5636  0.1921 -3.2650
 3150TIP3   OH230864   0.506   1.150   1.154 -0.7163 -0.3116  0.2125
 3150TIP3    H130865   0.563   1.091   1.105  1.3058  2.0326 -0.4927
 3150TIP3    H230866   0.418   1.115   1.142  0.4737 -4.1241  1.3736
 3151TIP3   OH230867   6.481   4.125   5.818  0.7925  0.2813  0.3808
 3151TIP3    H130868   6.478   4.126   5.722  0.6407 -0.0772  0.3797
 3151TIP3    H230869   6.392   4.147   5.845  0.0370 -2.3642  0.4050
 3152TIP3   OH230870   0.278   5.069   4.106 -0.2326 -0.1830  0.2278
 3152TIP3    H130871   0.289   5.022   4.189 -0.4149  0.4096  0.5904
 3152TIP3    H230872   0.346   5.032   4.049  1.8179  1.3799  1.5116
 3153TIP3   OH230873   0.458   1.767   3.987 -0.6699 -0.1635  0.0201
 3153TIP3    H130874   0.389   1.829   3.964 -1.7863 -1.0596  0.7833
 3153TIP3    H230875   0.513   1.814   4.050  1.3730  1.6753 -2.8960
 3154TIP3   OH230876   6.139   3.877  16.258  0.7582  0.3446  0.1678
 3154TIP3    H130877   6.204   3.946  16.270  0.0355  1.3035 -1.1397
 3154TIP3    H230878   6.184   3.810  16.206  1.4647 -0.2064  1.4544
 3155TIP3   OH230879   5.851   3.784   3.528 -0.6453  0.2284 -0.3520
 3155TIP3    H130880   5.783   3.819   3.586 -0.5202  0.0495 -0.0949
 3155TIP3    H230881   5.921   3.850   3.531  0.4472 -0.9216  1.6971
 3156TIP3   OH230882   5.314   5.864   3.158 -0.8121  0.7295 -0.4726
 3156TIP3    H130883   5.220   5.877   3.167 -1.1133 -0.9809 -0.8934
 3156TIP3    H230884   5.339   5.814   3.236 -0.0909  1.8129  0.0214
 3157TIP3   OH230885   1.916   2.438   1.970 -0.8712  0.0159  0.3954
 3157TIP3    H130886   1.886   2.529   1.975  2.0278  1.0626  0.8030
 3157TIP3    H230887   1.882   2.406   1.887  0.2337  2.4078 -1.0793
 3158TIP3   OH230888   5.539   1.367   5.545  0.1460  0.3458  0.6397
 3158TIP3    H130889   5.463   1.407   5.586  1.6423  2.3828  1.6290
 3158TIP3    H230890   5.518   1.364   5.452  0.2575  4.4695  0.3337
 3159TIP3   OH230891   0.857   0.735   5.081  0.1823  0.3515  0.1896
 3159TIP3    H130892   0.806   0.816   5.080 -0.6277 -0.1393  0.3275
 3159TIP3    H230893   0.839   0.696   5.167 -0.4913 -0.6030 -0.3524
 3160TIP3   OH230894   3.168   4.423  15.703 -0.1374 -0.4092  0.7824
 3160TIP3    H130895   3.250   4.457  15.669  0.0830 -0.3451  1.3544
 3160TIP3    H230896   3.104   4.437  15.633 -0.1113  1.4075  1.0597
 3161TIP3   OH230897   3.472   5.322  16.166  0.2429  0.0691  0.4372
 3161TIP3    H130898   3.539   5.265  16.128  0.1168 -0.4033  0.9237
 3161TIP3    H230899   3.423   5.355  16.090  0.2994 -0.4862  0.1555
 3162TIP3   OH230900   2.345   5.330  14.889 -0.4286 -0.9078 -0.2958
 3162TIP3    H130901   2.392   5.253  14.857 -0.3673 -0.2149 -1.9922
 3162TIP3    H230902   2.407   5.374  14.947 -0.6499 -2.3671  1.1061
 3163TIP3   OH230903   6.213   2.459   5.954  0.1075 -0.3530 -0.0379
 3163TIP3    H130904   6.268   2.515   6.008 -0.8642 -0.5476  1.2030
 3163TIP3    H230905   6.177   2.395   6.016 -1.8195  0.0121 -0.7193
 3164TIP3   OH230906   1.080   3.532   4.471 -0.1842  0.0128 -0.5765
 3164TIP3    H130907   1.043   3.563   4.388 -1.7028 -0.6533 -0.1787
 3164TIP3    H230908   1.111   3.612   4.514  3.1243  0.1820 -2.8414
 3165TIP3   OH230909   4.157   0.152   5.035 -0.4212 -0.6220  0.3211
 3165TIP3    H130910   4.213   0.195   5.099 -1.3271 -0.3554  0.9493
 3165TIP3    H230911   4.208   0.152   4.954  0.2952  0.0347  0.7655
 3166TIP3   OH230912   0.433   1.876  14.494  0.1051  0.4351 -0.2180
 3166TIP3    H130913   0.385   1.954  14.522 -0.5681  0.5702 -1.6721
 3166TIP3    H230914   0.485   1.851  14.571 -2.1107  0.4051  1.3704
 3167TIP3   OH230915   3.362   3.514   6.608  0.1996 -0.1328  0.1469
 3167TIP3    H130916   3.362   3.514   6.704 -0.5529 -0.3856  0.1536
 3167TIP3    H230917   3.370   3.422   6.583  0.3716 -0.0699 -0.0353
 3168TIP3   OH230918   1.325   5.559   3.549  0.0277 -0.0624  0.1849
 3168TIP3    H130919   1.244   5.587   3.506  0.6910  0.7926 -0.5451
 3168TIP3    H230920   1.366   5.640   3.577  0.6397 -0.4902  0.5484
 3169TIP3   OH230921   1.896   5.571   4.206 -0.2592  0.5403  0.5267
 3169TIP3    H130922   1.915   5.646   4.149 -0.3578  0.1396 -0.0439
 3169TIP3    H230923   1.902   5.495   4.148 -0.2116  0.1081  1.0885
 3170TIP3   OH230924   0.833   2.238  15.354  0.3107 -0.0036 -0.1155
 3170TIP3    H130925   0.781   2.186  15.293 -0.2035 -1.6542  1.6502
 3170TIP3    H230926   0.918   2.193  15.357  0.7740  0.8134 -0.5427
 3171TIP3   OH230927   5.729   1.580  16.265  0.0882 -0.9551 -0.1087
 3171TIP3    H130928   5.760   1.493  16.291  0.9060 -0.7319 -0.2812
 3171TIP3    H230929   5.637   1.568  16.243  0.1070 -1.7070  0.1927
 3172TIP3   OH230930   0.637   5.518  17.133 -0.0816 -0.1121  0.0209
 3172TIP3    H130931   0.669   5.604  17.105 -1.3589 -0.4050 -2.6415
 3172TIP3    H230932   0.597   5.481  17.054 -0.2646 -2.8376  1.2985
 3173TIP3   OH230933   1.338   2.642  13.770  0.2585 -0.2897  0.2875
 3173TIP3    H130934   1.255   2.679  13.740 -0.2270  0.9652  2.9099
 3173TIP3    H230935   1.403   2.674  13.707 -0.7634  1.6786  0.1473
 3174TIP3   OH230936   5.699   3.832  16.809  0.3395 -0.3285  0.3536
 3174TIP3    H130937   5.779   3.813  16.857  0.5862 -0.3862 -0.0745
 3174TIP3    H230938   5.629   3.824  16.874  0.4260 -2.6267  0.2249
 3175TIP3   OH230939   2.472   4.780   1.357  0.4087  0.3127 -0.0859
 3175TIP3    H130940   2.527   4.725   1.413 -0.1941  1.1233  1.3604
 3175TIP3    H230941   2.413   4.825   1.418  0.1445  1.7167 -1.3169
 3176TIP3   OH230942   4.135   2.622   3.814  0.0443  0.1766 -0.1989
 3176TIP3    H130943   4.202   2.600   3.878  0.5006  2.4388  0.1972
 3176TIP3    H230944   4.181   2.625   3.731 -0.2354 -1.2588 -0.4304
 3177TIP3   OH230945   0.075   1.908  15.239  0.0136  0.8561  0.5688
 3177TIP3    H130946   0.156   1.953  15.266  0.8316  2.1432 -3.3852
 3177TIP3    H230947   0.097   1.867  15.155 -2.8222 -0.8747  0.5316
 3178TIP3   OH230948   4.252   0.453   3.687  1.3497 -0.4367 -0.0313
 3178TIP3    H130949   4.219   0.540   3.709 -0.0307 -1.0656  0.5520
 3178TIP3    H230950   4.215   0.435   3.600 -0.1393 -1.2493  0.7336
 3179TIP3   OH230951   3.048   0.466   1.514 -0.3288  0.0470  0.5014
 3179TIP3    H130952   3.014   0.376   1.518 -1.1356  0.3268  0.2782
 3179TIP3    H230953   3.002   0.505   1.439  1.1363  0.2038 -0.3479
 3180TIP3   OH230954   0.241   4.658   0.491 -0.1542 -0.0024 -0.2432
 3180TIP3    H130955   0.331   4.675   0.461 -0.5954 -1.3515 -2.5954
 3180TIP3    H230956   0.192   4.735   0.462  0.0191  0.2136  0.0264
 3181TIP3   OH230957   1.945   0.776  11.623 -0.7571  0.5179 -0.0072
 3181TIP3    H130958   1.992   0.708  11.671 -0.2000  1.1041  0.2981
 3181TIP3    H230959   1.888   0.728  11.563  0.8913 -0.2056 -1.0435
 3182TIP3   OH230960   1.919   2.791  17.091 -0.2657  0.5686  0.0449
 3182TIP3    H130961   1.920   2.866  17.032  1.6395  0.6744  0.1607
 3182TIP3    H230962   1.978   2.815  17.162  1.9803 -1.7367 -0.8811
 3183TIP3   OH230963   6.131   2.800   0.169 -0.4519  0.0393 -0.9198
 3183TIP3    H130964   6.165   2.816   0.081 -0.5270  0.3038 -0.9046
 3183TIP3    H230965   6.140   2.885   0.213 -1.0307  0.0878 -0.8861
 3184TIP3   OH230966   4.622   1.266  12.856  0.0308  0.0799  0.0943
 3184TIP3    H130967   4.706   1.298  12.888  1.1564 -3.0694  0.6252
 3184TIP3    H230968   4.624   1.282  12.762  1.6051 -0.6447 -0.0206
 3185TIP3   OH230969   2.149   3.660  15.089  0.1660  0.1965  0.1061
 3185TIP3    H130970   2.216   3.695  15.030  0.6712  0.7518  0.9805
 3185TIP3    H230971   2.088   3.733  15.101 -0.6310 -0.3181 -0.7108
 3186TIP3   OH230972   5.290   2.455  12.301 -0.3063  0.3971  0.6081
 3186TIP3    H130973   5.309   2.517  12.231 -0.8868  0.0684  0.1442
 3186TIP3    H230974   5.196   2.439  12.294  0.1092 -2.1685 -0.7161
 3187TIP3   OH230975   3.143   3.038   1.731 -0.0898  0.1495  0.1408
 3187TIP3    H130976   3.113   3.078   1.649  0.3604  1.4780  0.6067
 3187TIP3    H230977   3.200   2.967   1.703  0.7674  1.1409 -0.7043
 3188TIP3   OH230978   3.676   5.456  15.306  0.5916  0.1018 -0.5200
 3188TIP3    H130979   3.692   5.447  15.400  2.1267  0.5420 -0.7171
 3188TIP3    H230980   3.751   5.505  15.273  1.0341 -1.6296 -2.2765
 3189TIP3   OH230981   1.041   0.569   1.055  0.2515 -0.1897 -0.1915
 3189TIP3    H130982   1.072   0.649   1.099  0.6686  0.5778 -1.8269
 3189TIP3    H230983   1.116   0.541   1.002  0.5176 -2.3350  1.1947
 3190TIP3   OH230984   6.157   1.733  16.584 -0.5230 -0.3799 -0.1954
 3190TIP3    H130985   6.237   1.679  16.586 -1.5523 -1.9729  0.1815
 3190TIP3    H230986   6.163   1.780  16.501  0.9344 -0.2530 -0.0540
 3191TIP3   OH230987   4.827   0.251   3.590  0.6466 -0.4099 -0.1467
 3191TIP3    H130988   4.733   0.264   3.604  0.3948 -1.4247 -0.7565
 3191TIP3    H230989   4.866   0.261   3.677 -0.0449 -0.1772  0.1479
 3192TIP3   OH230990   6.145   5.471   0.974  0.3547  0.2389  0.4798
 3192TIP3    H130991   6.183   5.386   0.951  0.4596  0.6648 -1.0134
 3192TIP3    H230992   6.215   5.534   0.959 -0.4717  0.8681 -0.9187
 3193TIP3   OH230993   5.749   6.490  14.203 -0.3667 -0.1092 -0.1974
 3193TIP3    H130994   5.749   6.453  14.114 -0.1235 -0.0718 -0.2122
 3193TIP3    H230995   5.840   6.487  14.230 -0.7583 -2.9492  1.2132
 3194TIP3   OH230996   3.832   6.338  16.911  0.0897 -0.4203  0.1150
 3194TIP3    H130997   3.849   6.424  16.874 -0.2499  0.5425  2.0419
 3194TIP3    H230998   3.756   6.351  16.968 -0.7039 -2.2733 -0.4429
 3195TIP3   OH230999   4.876   2.266   5.012  0.3646 -0.4040  0.1299
 3195TIP3    H131000   4.843   2.340   4.961  2.7843  0.1560 -0.7519
 3195TIP3    H231001   4.943   2.305   5.070  2.0246 -1.8955 -0.6885
 3196TIP3   OH231002   1.651   5.701  12.725  0.0503 -1.0783 -0.3267
 3196TIP3    H131003   1.590   5.703  12.652 -1.4870 -1.3415  0.8848
 3196TIP3    H231004   1.715   5.634  12.701 -0.7766 -1.5878 -1.1687
 3197TIP3   OH231005   6.543   4.152   4.044  0.5215  0.0377 -0.3454
 3197TIP3    H131006   6.575   4.093   3.976  2.0470 -0.4401  0.7282
 3197TIP3    H231007   6.619   4.207   4.066  0.2924 -0.2957  1.4298
 3198TIP3   OH231008   3.192   1.235  14.430  0.0300  0.1591 -0.5034
 3198TIP3    H131009   3.117   1.191  14.390  0.2376 -0.0363 -0.6805
 3198TIP3    H231010   3.161   1.324  14.447 -0.6932 -0.2955  0.6944
 3199TIP3   OH231011   0.324   2.800   0.541  0.4638 -0.5888 -0.3899
 3199TIP3    H131012   0.249   2.857   0.560  1.4894  1.4192 -1.9236
 3199TIP3    H231013   0.314   2.776   0.449  1.9066  0.1315 -0.7747
 3200TIP3   OH231014   2.881   0.765  15.128  0.2488 -0.0538  0.4290
 3200TIP3    H131015   2.944   0.775  15.057  0.2129  2.3417  0.6489
 3200TIP3    H231016   2.845   0.677  15.116  0.7847 -0.0008 -2.0648
 3201TIP3   OH231017   2.204   0.648   1.181  0.1168  0.3304 -0.2315
 3201TIP3    H131018   2.235   0.627   1.093 -0.7747  0.1572 -0.5165
 3201TIP3    H231019   2.120   0.692   1.166 -0.1539  0.0809  0.5370
 3202TIP3   OH231020   0.430   5.056   1.474  0.1243 -0.1348  0.2748
 3202TIP3    H131021   0.443   4.961   1.473 -0.6802 -0.2701  1.1024
 3202TIP3    H231022   0.335   5.067   1.468  0.1676  0.5917  0.8006
 3203TIP3   OH231023   6.437   5.419  14.523  0.0561  0.5536  0.4190
 3203TIP3    H131024   6.373   5.454  14.585 -0.4868  1.2241 -0.4778
 3203TIP3    H231025   6.476   5.345  14.568 -2.4308 -0.8534  0.4470
 3204TIP3   OH231026   4.425   4.164  11.802 -0.3276 -0.1554 -0.4298
 3204TIP3    H131027   4.404   4.073  11.781 -0.2823  0.0234 -1.3067
 3204TIP3    H231028   4.508   4.180  11.757  0.3828 -0.0803  0.8508
 3205TIP3   OH231029   1.742   4.432   5.486 -0.2427  0.1591 -0.1269
 3205TIP3    H131030   1.725   4.346   5.523  0.2190 -0.0432 -0.3710
 3205TIP3    H231031   1.717   4.494   5.555 -0.6869 -0.1652  0.0018
 3206TIP3   OH231032   5.640   6.550   5.987 -0.1320  0.0559 -0.2130
 3206TIP3    H131033   5.640   6.633   6.035  0.8250 -0.0640  0.0162
 3206TIP3    H231034   5.551   6.542   5.953 -0.7549  0.2989  1.2738
 3207TIP3   OH231035   1.864   4.253   0.304 -0.2029 -0.3442  0.4552
 3207TIP3    H131036   1.944   4.230   0.352 -0.6599 -2.9705  0.0837
 3207TIP3    H231037   1.892   4.258   0.212 -0.2134  0.1338  0.4749
 3208TIP3   OH231038   5.199   4.762  16.035  0.3087  0.5645 -0.3747
 3208TIP3    H131039   5.186   4.755  16.130  0.2923  0.0179 -0.4108
 3208TIP3    H231040   5.242   4.680  16.011  2.7846  1.7819 -0.4578
 3209TIP3   OH231041   0.181   4.249  16.238  0.0563  0.7547 -0.0250
 3209TIP3    H131042   0.203   4.298  16.159  0.9323 -1.3497 -1.1965
 3209TIP3    H231043   0.128   4.175  16.206  0.6914 -0.3155  1.2861
 3210TIP3   OH231044   0.979   4.868   0.428  0.3888  0.5825 -0.3420
 3210TIP3    H131045   0.994   4.950   0.381  1.4659  0.1190 -0.8335
 3210TIP3    H231046   0.986   4.800   0.361 -0.2551  0.0594  0.1047
 3211TIP3   OH231047   1.626   1.234   1.778  0.4916 -0.0266 -0.0705
 3211TIP3    H131048   1.607   1.304   1.715  1.9675  3.6075  3.1236
 3211TIP3    H231049   1.540   1.206   1.809 -0.2052 -0.9703 -2.5584
 3212TIP3   OH231050   3.870   3.438  11.046  0.0131 -0.6619 -0.1627
 3212TIP3    H131051   3.880   3.344  11.033  0.8354 -0.7950  1.3227
 3212TIP3    H231052   3.955   3.475  11.020  0.2359 -0.5023  0.7806
 3213TIP3   OH231053   1.954   4.649   0.419  0.3247  0.2318 -0.0448
 3213TIP3    H131054   1.958   4.691   0.334 -0.3492  2.5701  1.0013
 3213TIP3    H231055   1.865   4.614   0.425 -0.0438  1.1691  0.1541
 3214TIP3   OH231056   4.163   1.436  11.610 -0.2741  0.3677  0.1735
 3214TIP3    H131057   4.191   1.372  11.544  1.2123 -1.0640  2.0752
 3214TIP3    H231058   4.090   1.393  11.655 -0.2952  0.6764  0.4314
 3215TIP3   OH231059   3.874   1.450   0.158  0.1548 -0.1548  0.0651
 3215TIP3    H131060   3.963   1.484   0.169 -0.1874  0.5597  0.7041
 3215TIP3    H231061   3.866   1.433   0.064  1.2442 -1.0328  0.1096
 3216TIP3   OH231062   2.605   0.445   3.463  0.6663  0.7337 -0.3140
 3216TIP3    H131063   2.610   0.349   3.470  0.3434  0.7810  0.6671
 3216TIP3    H231064   2.513   0.465   3.480  1.0078  1.3201  0.9480
 3217TIP3   OH231065   0.353   3.854   3.783  0.2487 -0.1398 -0.2041
 3217TIP3    H131066   0.276   3.829   3.834  0.1821  0.1676 -0.1523
 3217TIP3    H231067   0.327   3.933   3.737  0.1356 -0.6957 -1.1362
 3218TIP3   OH231068   1.994   4.310  16.070  0.8069  0.0789 -0.0859
 3218TIP3    H131069   2.053   4.309  15.994 -0.9943 -0.3540 -1.5712
 3218TIP3    H231070   1.981   4.217  16.091  1.1535  0.1930  0.6394
 3219TIP3   OH231071   2.794   1.195   3.669  0.4329 -0.5725 -0.1553
 3219TIP3    H131072   2.822   1.109   3.699  1.3326 -0.3374 -0.2958
 3219TIP3    H231073   2.814   1.196   3.575  1.6178  0.2283  0.0790
 3220TIP3   OH231074   5.406   4.218   6.093  0.6117  0.3932 -0.1614
 3220TIP3    H131075   5.326   4.242   6.140  0.2680  1.3272 -1.1927
 3220TIP3    H231076   5.454   4.301   6.084 -0.4307  0.7943 -3.4926
 3221TIP3   OH231077   1.141   5.626   1.756 -0.1425  0.0122  0.7508
 3221TIP3    H131078   1.223   5.657   1.719 -0.1952  0.8668  1.3210
 3221TIP3    H231079   1.100   5.575   1.686  0.0564  1.0660 -0.1450
 3222TIP3   OH231080   1.208   3.188  11.815  0.3458 -0.2749  0.3288
 3222TIP3    H131081   1.173   3.106  11.851 -2.2897 -0.0143 -1.3770
 3222TIP3    H231082   1.293   3.164  11.780 -0.0744 -2.1386  0.4842
 3223TIP3   OH231083   0.013   0.982   1.662 -0.4981  0.1408  0.0671
 3223TIP3    H131084   0.096   1.019   1.632 -1.6986  1.8439 -1.3509
 3223TIP3    H231085  -0.006   1.027   1.744 -1.5869  2.2754 -1.2789
 3224TIP3   OH231086   6.561   3.792  16.152  0.3881 -0.7808 -0.2553
 3224TIP3    H131087   6.607   3.711  16.175  0.5626 -0.6882 -0.2786
 3224TIP3    H231088   6.562   3.844  16.233  0.1253 -0.8740 -0.1911
 3225TIP3   OH231089   4.155   0.352   4.551  0.0615 -0.1275  0.0172
 3225TIP3    H131090   4.189   0.406   4.622 -0.9431  3.0932 -1.7513
 3225TIP3    H231091   4.065   0.383   4.538 -0.8009 -2.6918 -0.7896
 3226TIP3   OH231092   3.517   6.510  14.076 -0.1344 -0.0965 -0.3185
 3226TIP3    H131093   3.498   6.462  14.156 -1.2545  0.8880  0.0257
 3226TIP3    H231094   3.566   6.587  14.105  1.0379 -0.6251 -0.7942
 3227TIP3   OH231095   2.843   2.062   5.340 -0.5054  0.0428  0.6292
 3227TIP3    H131096   2.758   2.104   5.326 -0.0284  0.6499 -0.6532
 3227TIP3    H231097   2.892   2.125   5.393  0.2543  1.2522 -1.4005
 3228TIP3   OH231098   1.667   6.133  15.845 -0.2014  0.5596 -0.1510
 3228TIP3    H131099   1.649   6.205  15.906  0.3612  2.5720 -2.2181
 3228TIP3    H231100   1.606   6.146  15.773  0.0059 -0.9804 -0.6425
 3229TIP3   OH231101   2.468   6.394  13.752 -0.1695 -0.3775  0.3689
 3229TIP3    H131102   2.485   6.301  13.769  1.5568  0.0142  1.0016
 3229TIP3    H231103   2.504   6.439  13.829 -0.3086  0.8642 -0.2741
 3230TIP3   OH231104   5.635   5.440   2.968 -0.1090 -0.6562 -0.4968
 3230TIP3    H131105   5.703   5.506   2.953 -0.5227 -0.1579 -0.2155
 3230TIP3    H231106   5.616   5.405   2.881  0.6268 -0.9254 -0.5581
 3231TIP3   OH231107   3.035   0.011  11.946  0.5071 -0.0460  0.5724
 3231TIP3    H131108   3.107   0.070  11.923 -0.3460  0.5812 -0.5593
 3231TIP3    H231109   2.961   0.041  11.894 -0.3758 -1.1676  1.1319
 3232TIP3   OH231110   5.502   4.122  11.732  0.2866  0.7028 -0.2620
 3232TIP3    H131111   5.462   4.097  11.648  0.0054 -0.0942  0.1051
 3232TIP3    H231112   5.540   4.208  11.715 -1.2162  1.3116 -0.7607
 3233TIP3   OH231113   3.118   1.367  16.337  1.2751 -0.0002 -0.4593
 3233TIP3    H131114   3.186   1.361  16.404  2.0447  1.8029 -1.0137
 3233TIP3    H231115   3.102   1.276  16.311  0.6098 -0.8150  2.4320
 3234TIP3   OH231116   2.950   5.608  16.683  1.1549 -0.1905 -0.5438
 3234TIP3    H131117   3.017   5.542  16.700  0.1653 -1.0195  0.2800
 3234TIP3    H231118   2.972   5.680  16.743 -0.4124 -1.7464  2.0800
 3235TIP3   OH231119   6.691   5.874  15.102 -0.2293  0.4186 -0.3784
 3235TIP3    H131120   6.720   5.895  15.191  0.2614  0.0783 -0.4523
 3235TIP3    H231121   6.658   5.957  15.067  0.4794  0.7732 -0.2201
 3236TIP3   OH231122   1.741   2.260  16.799 -0.0564  0.0582 -0.1735
 3236TIP3    H131123   1.740   2.211  16.717  1.2911 -1.6392  0.7667
 3236TIP3    H231124   1.707   2.347  16.776 -1.0350 -0.8124 -2.2119
 3237TIP3   OH231125   1.770   1.261  12.202  0.0402 -0.6436 -0.2885
 3237TIP3    H131126   1.858   1.279  12.169  0.4481 -0.3567  0.9011
 3237TIP3    H231127   1.759   1.323  12.274 -0.9036 -1.0806 -0.0479
 3238TIP3   OH231128   1.269   0.903  13.054 -0.4196 -0.4668 -0.1774
 3238TIP3    H131129   1.308   0.956  12.986 -0.1246  1.7579  1.6125
 3238TIP3    H231130   1.196   0.956  13.088 -0.9289 -1.7453  0.8421
 3239TIP3   OH231131   4.194   4.381   0.570 -0.0863  0.2982 -0.3389
 3239TIP3    H131132   4.160   4.465   0.537 -0.5253  0.4071  0.3829
 3239TIP3    H231133   4.248   4.405   0.645  0.3789 -0.0116 -0.5670
 3240TIP3   OH231134   3.494   1.496   3.353 -0.2836 -0.7495 -0.5592
 3240TIP3    H131135   3.491   1.452   3.438 -1.2221 -0.6161 -0.5081
 3240TIP3    H231136   3.505   1.425   3.290  0.9481 -0.8104 -0.3147
 3241TIP3   OH231137   2.402   3.582   1.555  0.0238  0.6051  0.0963
 3241TIP3    H131138   2.334   3.533   1.509  0.0206  0.0236  0.7139
 3241TIP3    H231139   2.455   3.515   1.598  1.3281  1.0018 -0.8211
 3242TIP3   OH231140   0.528   1.839   4.809  0.2729 -0.3443  0.0155
 3242TIP3    H131141   0.529   1.923   4.764 -0.4438  0.3962  1.3243
 3242TIP3    H231142   0.621   1.819   4.823  0.4504  1.2192  1.4165
 3243TIP3   OH231143   3.579   2.170  14.298 -0.1590  0.3230 -0.1207
 3243TIP3    H131144   3.625   2.111  14.359  1.1507 -2.2887 -3.3046
 3243TIP3    H231145   3.491   2.134  14.292  0.1381 -0.3329 -0.7705
 3244TIP3   OH231146   0.152   0.603   5.716 -0.7149  0.2641  0.5106
 3244TIP3    H131147   0.212   0.574   5.785  0.2761  0.8478 -0.0851
 3244TIP3    H231148   0.180   0.555   5.638 -0.6832  0.9095  0.1134
 3245TIP3   OH231149   2.630   4.884   4.210  0.2429 -0.8692  0.2874
 3245TIP3    H131150   2.649   4.790   4.215  0.9185 -0.7196  0.6179
 3245TIP3    H231151   2.716   4.926   4.203  0.0039 -0.2194  1.1165
 3246TIP3   OH231152   6.324   6.654   5.820  0.4744  0.2088 -0.2537
 3246TIP3    H131153   6.354   6.571   5.783 -0.7548 -0.6145  0.5225
 3246TIP3    H231154   6.354   6.653   5.911  0.5059  0.6538 -0.2537
 3247TIP3   OH231155   2.290   2.418   3.740  0.7663 -0.3040 -0.2962
 3247TIP3    H131156   2.312   2.346   3.799 -0.3995 -1.2572 -0.9730
 3247TIP3    H231157   2.361   2.481   3.750  1.6436 -1.4037  0.5499
 3248TIP3   OH231158   0.733   3.615  16.929 -0.0321  0.7122  0.4467
 3248TIP3    H131159   0.827   3.621  16.911 -0.1250  1.3685  0.1660
 3248TIP3    H231160   0.722   3.659  17.014  0.0975 -0.5288  1.1316
 3249TIP3   OH231161   1.137   5.397   4.303 -0.1756  0.1716  0.3324
 3249TIP3    H131162   1.062   5.435   4.257  0.3249  1.6114  0.6442
 3249TIP3    H231163   1.150   5.453   4.379  1.0542 -0.2025  0.4277
 3250TIP3   OH231164   0.355   0.121   1.809  0.0387 -0.6151 -0.4191
 3250TIP3    H131165   0.270   0.081   1.788  0.6826 -0.7096 -3.1787
 3250TIP3    H231166   0.417   0.048   1.804  0.6559 -0.0385 -1.2669
 3251TIP3   OH231167   2.502   4.886   0.299 -0.1034 -0.4953  0.1066
 3251TIP3    H131168   2.436   4.953   0.280  1.8359  1.5589  0.1956
 3251TIP3    H231169   2.503   4.831   0.220 -2.0102 -0.7289  0.1928
 3252TIP3   OH231170   0.648   6.501   1.192  0.7195  0.2856 -0.8504
 3252TIP3    H131171   0.741   6.504   1.213  0.5631  0.1031 -0.1310
 3252TIP3    H231172   0.619   6.592   1.196  0.8255  0.3211 -0.8889
 3253TIP3   OH231173   1.474   6.199   6.500  0.5085  0.5775 -0.0349
 3253TIP3    H131174   1.380   6.189   6.482  0.5880  0.7737 -0.6083
 3253TIP3    H231175   1.516   6.153   6.428  0.8700  3.4066 -1.8307
 3254TIP3   OH231176   4.179   1.117   6.194 -0.0539 -0.6372  0.1048
 3254TIP3    H131177   4.166   1.112   6.289 -2.9716  0.6111 -0.1168
 3254TIP3    H231178   4.239   1.190   6.182 -0.3912 -0.2026  0.9609
 3255TIP3   OH231179   3.180   3.271   4.430  0.0623  0.6609 -0.0097
 3255TIP3    H131180   3.183   3.227   4.345  1.3979  0.2797  0.2096
 3255TIP3    H231181   3.268   3.262   4.465  0.1354  2.7454  0.4642
 3256TIP3   OH231182   1.074   2.506  12.579 -0.8298  0.3936  0.3509
 3256TIP3    H131183   1.009   2.574  12.597  0.7820  1.9965  0.3157
 3256TIP3    H231184   1.096   2.516  12.487 -0.7794 -0.3991  0.2625
 3257TIP3   OH231185   2.132   3.375  12.097  0.0293 -0.3802 -0.0249
 3257TIP3    H131186   2.139   3.409  12.186 -1.5469 -0.3635  0.1204
 3257TIP3    H231187   2.186   3.296  12.098  2.1707  1.0190  0.1712
 3258TIP3   OH231188   6.275   6.455   6.037 -0.0207  0.3124 -0.1059
 3258TIP3    H131189   6.332   6.420   5.968  1.2362 -2.7843  2.2765
 3258TIP3    H231190   6.327   6.452   6.116 -1.9353  2.2081  1.3470
 3259TIP3   OH231191   4.355   1.678  13.398  0.1078 -0.5337 -0.0767
 3259TIP3    H131192   4.304   1.747  13.355  0.8093  0.2882  0.3778
 3259TIP3    H231193   4.446   1.702  13.380  0.3690 -2.4253 -1.5887
 3260TIP3   OH231194   3.381   6.208  10.722 -0.8276 -0.1828  0.1761
 3260TIP3    H131195   3.474   6.228  10.731 -0.6655 -0.4190 -0.8121
 3260TIP3    H231196   3.336   6.287  10.752 -0.2297  1.1772 -2.2210
 3261TIP3   OH231197   5.808   4.744   3.679 -0.2707  0.2848 -0.5460
 3261TIP3    H131198   5.885   4.715   3.631 -1.0306 -0.5579 -1.2965
 3261TIP3    H231199   5.749   4.669   3.678  0.1376 -0.2402  2.8368
 3262TIP3   OH231200   6.370   5.416  17.025  0.2147 -0.1334 -0.6489
 3262TIP3    H131201   6.312   5.400  16.950 -1.1680 -0.7671  0.5174
 3262TIP3    H231202   6.444   5.357  17.011 -0.7418 -1.3352 -0.7726
 3263TIP3   OH231203   3.889   2.297  15.439  0.5206  0.0231  0.5418
 3263TIP3    H131204   3.871   2.390  15.452  2.3764  0.4002  0.7179
 3263TIP3    H231205   3.970   2.295  15.388 -1.4874 -1.5042 -2.9607
 3264TIP3   OH231206   0.392   3.897   2.400 -0.4898  0.3762 -0.7514
 3264TIP3    H131207   0.364   3.874   2.312 -0.8383  2.4990 -1.2579
 3264TIP3    H231208   0.451   3.971   2.388  1.5042 -0.8744  0.6601
 3265TIP3   OH231209   6.599   4.371   6.648  0.1613 -0.0581  0.1546
 3265TIP3    H131210   6.679   4.352   6.599 -1.0144  1.6378 -2.6519
 3265TIP3    H231211   6.534   4.310   6.614 -1.0043  1.9735 -1.5144
 3266TIP3   OH231212   0.029   3.732   5.158 -0.3335 -0.1562 -0.3094
 3266TIP3    H131213  -0.057   3.718   5.119  0.4447 -1.2321 -1.7343
 3266TIP3    H231214   0.090   3.723   5.085  0.9557  1.5039  0.4861
 3267TIP3   OH231215   5.825   1.461  11.265  0.0370  0.5002 -0.5046
 3267TIP3    H131216   5.767   1.409  11.209 -0.2499 -1.1628  1.2488
 3267TIP3    H231217   5.913   1.439  11.235 -0.0527 -1.6063  0.6505
 3268TIP3   OH231218   6.038   3.743  10.848  0.1107  0.2990  0.5374
 3268TIP3    H131219   6.010   3.657  10.815  0.9793 -0.3741  1.4947
 3268TIP3    H231220   6.033   3.801  10.772 -0.8543 -0.5093 -0.0338
 3269TIP3   OH231221   1.961   0.092   4.447  0.0996  0.5175 -0.0939
 3269TIP3    H131222   1.952   0.029   4.376  0.1827 -0.2113  0.5406
 3269TIP3    H231223   2.050   0.079   4.479 -0.3736 -0.0790  1.0081
 3270TIP3   OH231224   0.735   3.374  14.384 -0.5205 -0.2768  0.8236
 3270TIP3    H131225   0.742   3.448  14.323  1.9105 -1.3222 -0.3227
 3270TIP3    H231226   0.815   3.379  14.437  0.0657 -2.3987  0.2559
 3271TIP3   OH231227   1.033   5.617   4.121  0.0088 -0.1281  0.3792
 3271TIP3    H131228   1.071   5.614   4.033  0.1162  0.3859  0.4052
 3271TIP3    H231229   0.998   5.706   4.129  0.6329  0.0648  1.1116
 3272TIP3   OH231230   0.812   2.831  14.774  0.0582  0.1922 -0.0192
 3272TIP3    H131231   0.822   2.744  14.735 -0.1724  0.4046 -0.5720
 3272TIP3    H231232   0.761   2.817  14.853 -2.9299  0.1736 -1.7685
 3273TIP3   OH231233   2.208   4.491  14.947  0.2336  0.1196  0.0336
 3273TIP3    H131234   2.273   4.442  14.897 -0.2935  0.4477 -0.9944
 3273TIP3    H231235   2.189   4.568  14.893 -1.0055  0.0314  0.3131
 3274TIP3   OH231236   2.203   5.099   2.246  0.1125  0.2467  0.5969
 3274TIP3    H131237   2.111   5.098   2.271 -1.0816  0.5233 -3.2065
 3274TIP3    H231238   2.219   5.014   2.205  1.2684  0.5646  0.3308
 3275TIP3   OH231239   1.477   2.912  14.707 -0.3730 -0.0920  0.7753
 3275TIP3    H131240   1.504   2.957  14.787  1.0953 -0.4405  0.5114
 3275TIP3    H231241   1.550   2.926  14.646 -1.0749 -0.5748 -0.2071
 3276TIP3   OH231242   2.658   5.162  12.855 -0.3064  0.0446  0.4840
 3276TIP3    H131243   2.654   5.089  12.916  0.3444 -0.7705 -0.4048
 3276TIP3    H231244   2.728   5.218  12.889  1.4436 -1.4201 -0.5282
 3277TIP3   OH231245   1.260   6.185  13.351 -0.0362  0.1315  1.0746
 3277TIP3    H131246   1.205   6.255  13.385 -0.3695  0.7665 -0.6802
 3277TIP3    H231247   1.350   6.216  13.364 -0.1651  0.4471  1.2030
 3278TIP3   OH231248   0.178   1.422  12.006  0.0266 -0.1064 -0.0898
 3278TIP3    H131249   0.227   1.456  12.081 -0.1283  1.1801 -0.5624
 3278TIP3    H231250   0.174   1.327  12.022 -0.7614  0.2157  2.0001
 3279TIP3   OH231251   5.413   3.104   2.729 -0.4552 -0.0480 -0.1886
 3279TIP3    H131252   5.475   3.085   2.799 -1.2091 -1.5729  0.1062
 3279TIP3    H231253   5.451   3.179   2.683 -0.1754  1.3159  2.1072
 3280TIP3   OH231254   4.312   3.898   3.209  0.0644  0.3769 -0.2831
 3280TIP3    H131255   4.323   3.907   3.114 -0.1113  0.4131 -0.3006
 3280TIP3    H231256   4.239   3.837   3.218  0.0644  0.3942 -0.1712
 3281TIP3   OH231257   3.289   4.801   0.465  0.3052  0.0871  0.2286
 3281TIP3    H131258   3.320   4.790   0.375 -0.2843 -0.2381  0.0620
 3281TIP3    H231259   3.292   4.713   0.503  0.0921  0.1411  0.3752
 3282TIP3   OH231260   0.544   0.674   3.456 -0.1537  0.1416 -0.0770
 3282TIP3    H131261   0.639   0.678   3.446 -0.0139 -1.8357  0.0863
 3282TIP3    H231262   0.510   0.724   3.382  1.0168  0.2774 -0.5371
 3283TIP3   OH231263   0.914   0.297  14.957  0.1397  0.2803 -0.0478
 3283TIP3    H131264   0.819   0.291  14.964  0.1824 -0.8518 -0.2572
 3283TIP3    H231265   0.934   0.389  14.976 -1.0391  0.6620 -0.5670
 3284TIP3   OH231266   4.902   2.701   0.093 -0.4399 -0.1366 -0.6602
 3284TIP3    H131267   4.875   2.723   0.182 -1.5389  0.7141 -1.1859
 3284TIP3    H231268   4.985   2.746   0.081 -0.5457  0.1755 -0.2389
 3285TIP3   OH231269   4.714   1.936  14.051  0.4113  0.0903 -0.1460
 3285TIP3    H131270   4.746   1.979  14.131 -0.5458  0.9611 -0.2184
 3285TIP3    H231271   4.794   1.915  14.002  0.9525  0.5950  0.5009
 3286TIP3   OH231272   5.312   4.451   5.527  0.4480 -0.3744 -0.5558
 3286TIP3    H131273   5.339   4.397   5.601  1.7624  0.4739 -0.3881
 3286TIP3    H231274   5.239   4.504   5.562 -0.8093 -1.9340 -0.7085
 3287TIP3   OH231275   3.361   2.448  13.728  0.4949 -0.2574  0.3295
 3287TIP3    H131276   3.368   2.416  13.638 -0.0053 -3.6650  1.3524
 3287TIP3    H231277   3.266   2.455  13.743  0.5596 -0.3966  0.8026
 3288TIP3   OH231278   1.883   6.322   5.978 -0.1589  0.5476 -0.7567
 3288TIP3    H131279   1.971   6.330   6.014  0.4577 -2.7688 -1.1562
 3288TIP3    H231280   1.872   6.399   5.923  1.5873  2.1648  1.0292
 3289TIP3   OH231281   1.528   6.648   5.773  0.1407  0.8316  0.3684
 3289TIP3    H131282   1.592   6.595   5.820  0.0261 -0.7866 -1.1812
 3289TIP3    H231283   1.571   6.733   5.762  1.4997  0.1861  0.4773
 3290TIP3   OH231284   5.274   4.199   1.961 -0.0402  0.0768  0.3976
 3290TIP3    H131285   5.226   4.213   1.880  0.1743  1.2802  0.4628
 3290TIP3    H231286   5.260   4.279   2.012  2.2005  0.5995  0.3009
 3291TIP3   OH231287   6.267   4.590   4.912 -0.5671 -0.0900 -0.1662
 3291TIP3    H131288   6.188   4.595   4.965 -0.7750  1.7929 -0.5753
 3291TIP3    H231289   6.305   4.505   4.933 -1.6170 -0.1766  1.5779
 3292TIP3   OH231290   3.534   6.737   2.864 -0.5163  0.0174 -0.9682
 3292TIP3    H131291   3.494   6.686   2.934 -1.4807  0.8371 -0.9000
 3292TIP3    H231292   3.600   6.791   2.908 -0.5071 -0.1159 -0.8195
 3293TIP3   OH231293   0.978   0.206  12.385  0.4865  0.1298  0.1541
 3293TIP3    H131294   0.987   0.193  12.479 -0.7690 -0.8849  0.1596
 3293TIP3    H231295   0.962   0.300  12.375 -1.3280 -0.0288  1.1470
 3294TIP3   OH231296   2.758   6.632  14.552 -0.3103 -0.4819 -0.4128
 3294TIP3    H131297   2.721   6.574  14.485 -1.6716 -0.6490  0.4398
 3294TIP3    H231298   2.791   6.572  14.619  0.2858 -0.2939 -0.5292
 3295TIP3   OH231299   1.086   1.233   3.526  0.2740 -0.3479 -0.2478
 3295TIP3    H131300   1.120   1.220   3.438 -0.5551  0.2558 -0.6710
 3295TIP3    H231301   1.129   1.312   3.557 -0.5794  0.3209 -0.7193
 3296TIP3   OH231302   2.557   2.596  13.541  0.1696  0.3125 -0.2183
 3296TIP3    H131303   2.545   2.555  13.455  1.9045 -2.8116  0.8625
 3296TIP3    H231304   2.633   2.654  13.530  1.2649 -1.1291 -0.5330
 3297TIP3   OH231305   1.742   3.599  16.233 -0.1531 -0.6275  0.0920
 3297TIP3    H131306   1.769   3.659  16.303  0.9401 -1.3760  0.3310
 3297TIP3    H231307   1.755   3.649  16.152  0.7613 -0.5402  0.2855
 3298TIP3   OH231308   5.738   1.081   1.148 -0.4123 -0.4386 -0.7025
 3298TIP3    H131309   5.672   1.032   1.100  0.0695  1.1127 -3.1252
 3298TIP3    H231310   5.732   1.170   1.114  0.6018  0.5786  1.5301
 3299TIP3   OH231311   0.362   3.866   6.391 -0.0743 -0.0107  0.1136
 3299TIP3    H131312   0.395   3.777   6.401 -1.5733 -0.5548  0.4302
 3299TIP3    H231313   0.407   3.916   6.458  3.1594  0.2317 -1.9933
 3300TIP3   OH231314   5.996   4.136  13.439  0.4065 -0.6043 -0.0302
 3300TIP3    H131315   5.949   4.153  13.357 -2.0777  0.3664  1.4803
 3300TIP3    H231316   5.982   4.043  13.456  0.4160 -0.6766 -0.4086
 3301TIP3   OH231317   0.997   0.462  13.381  0.6400 -0.3226 -0.2345
 3301TIP3    H131318   0.933   0.522  13.419 -0.7683 -2.2741  0.6508
 3301TIP3    H231319   1.070   0.518  13.355 -0.8257  1.8174  0.0036
 3302TIP3   OH231320   6.077   4.107   2.063 -0.3166 -0.5295  0.5069
 3302TIP3    H131321   6.001   4.146   2.105  0.4256 -0.8568  2.2130
 3302TIP3    H231322   6.057   4.013   2.060 -0.1561 -0.5672  0.5881
 3303TIP3   OH231323   0.257   0.449  13.263  0.9617 -0.5247 -0.1646
 3303TIP3    H131324   0.173   0.458  13.218  2.1992 -2.0283 -3.0066
 3303TIP3    H231325   0.272   0.535  13.302 -1.8291 -0.2031  0.3742
 3304TIP3   OH231326   0.979   5.483   2.180  0.0537  0.4957 -0.4198
 3304TIP3    H131327   0.919   5.493   2.254 -1.2331  1.5166 -1.5411
 3304TIP3    H231328   1.023   5.399   2.196 -2.1097 -0.6011  0.1633
 3305TIP3   OH231329   0.994   1.043   0.324  0.1396 -0.3431 -0.4742
 3305TIP3    H131330   0.986   1.125   0.373  0.4495 -0.1139 -0.8073
 3305TIP3    H231331   1.082   1.011   0.345 -0.1014 -0.7642 -0.0813
 3306TIP3   OH231332   0.444   4.680   0.072  0.4485  0.1074  0.4277
 3306TIP3    H131333   0.415   4.769   0.093 -0.0922 -0.0452  0.3452
 3306TIP3    H231334   0.395   4.623   0.131  2.3726 -0.0116  1.9952
 3307TIP3   OH231335   4.632   6.338   1.866  0.1082  0.4793 -0.0327
 3307TIP3    H131336   4.698   6.322   1.798  0.6528  0.9181  0.3749
 3307TIP3    H231337   4.560   6.381   1.821  0.4619  0.7618 -0.3345
 3308TIP3   OH231338   0.624   6.369  15.772  0.0574 -0.7767  0.7338
 3308TIP3    H131339   0.711   6.408  15.770 -0.5272  0.5498  0.3085
 3308TIP3    H231340   0.580   6.411  15.845 -1.5108  1.5529 -1.3682
 3309TIP3   OH231341   4.758   5.400  11.466  0.5399  0.2991  0.1686
 3309TIP3    H131342   4.796   5.343  11.533  1.1359  0.6972  0.1755
 3309TIP3    H231343   4.681   5.438  11.508 -0.6043 -1.4594 -0.2513
 3310TIP3   OH231344   0.518   1.294  13.089 -0.2010 -0.4887  0.3698
 3310TIP3    H131345   0.613   1.291  13.087 -0.1692  0.2540 -1.1153
 3310TIP3    H231346   0.491   1.207  13.116  0.8934 -0.6699  0.9100
 3311TIP3   OH231347   1.581   0.645  16.023  0.1868  0.4544 -0.4435
 3311TIP3    H131348   1.517   0.630  15.954  0.6455  0.9376 -0.9915
 3311TIP3    H231349   1.547   0.720  16.072 -0.4632 -0.2898  0.2681
 3312TIP3   OH231350   5.466   0.941   5.921  0.1618  0.5680  0.3910
 3312TIP3    H131351   5.542   0.942   5.862 -0.7167 -0.9552 -0.8437
 3312TIP3    H231352   5.391   0.928   5.863 -0.7330 -1.1599  1.8454
 3313TIP3   OH231353   1.755   4.813  16.567  0.2751  0.1384 -0.2564
 3313TIP3    H131354   1.677   4.854  16.604  0.9877  0.7557  0.6115
 3313TIP3    H231355   1.825   4.878  16.581  1.4121 -1.2863  0.9972
 3314TIP3   OH231356   4.350   1.514  14.806  0.0414  0.2871 -0.2671
 3314TIP3    H131357   4.279   1.577  14.797 -0.6929 -0.7610 -2.4792
 3314TIP3    H231358   4.330   1.468  14.888 -1.0810  0.9237 -0.1568
 3315TIP3   OH231359   5.801   5.889  12.283 -0.1923  0.7670  0.0647
 3315TIP3    H131360   5.734   5.938  12.332  0.6487  0.8646  1.1433
 3315TIP3    H231361   5.842   5.955  12.227  0.2699  1.1207  0.7954
 3316TIP3   OH231362   1.935   3.224  16.310 -0.3748 -0.8962 -0.1576
 3316TIP3    H131363   1.960   3.316  16.304 -1.0642 -0.7835 -3.9221
 3316TIP3    H231364   1.852   3.218  16.263 -1.5395 -3.1430  1.9355
 3317TIP3   OH231365   1.420   4.591  17.199 -0.3564 -0.0572 -0.1018
 3317TIP3    H131366   1.418   4.500  17.167  2.2131  0.6848 -2.7741
 3317TIP3    H231367   1.479   4.589  17.274 -0.0214 -0.5513 -0.3730
 3318TIP3   OH231368   1.017   6.265  12.060 -0.3585 -0.0090  0.3552
 3318TIP3    H131369   1.052   6.187  12.018 -0.8116 -0.3122  0.5319
 3318TIP3    H231370   0.993   6.237  12.148 -0.0583  0.4540  0.5913
 3319TIP3   OH231371   5.631   3.412   0.330 -0.3368  0.1464  0.1380
 3319TIP3    H131372   5.655   3.354   0.402  1.2498  0.7299  0.1307
 3319TIP3    H231373   5.660   3.499   0.359 -0.8809  0.6026 -0.6589
 3320TIP3   OH231374   3.165   4.237  11.544  0.0150  0.5321 -0.1669
 3320TIP3    H131375   3.258   4.243  11.569 -0.1657 -0.3284  0.7594
 3320TIP3    H231376   3.161   4.278  11.458  1.4564 -0.4032 -0.7138
 3321TIP3   OH231377   5.032   4.325   3.361  0.2735  0.5484  1.0094
 3321TIP3    H131378   4.940   4.303   3.375  0.0872  0.7104  0.1118
 3321TIP3    H231379   5.034   4.421   3.356  0.2965  0.5118 -0.0879
 3322TIP3   OH231380   5.148   6.081  17.005 -0.0270 -0.7660  0.4288
 3322TIP3    H131381   5.226   6.058  16.955 -0.6798 -0.2272 -0.8933
 3322TIP3    H231382   5.150   6.177  17.008 -0.3083 -0.7746  0.9244
 3323TIP3   OH231383   4.646   6.780   3.326  0.0415  0.6879 -0.2324
 3323TIP3    H131384   4.556   6.777   3.358 -0.1625 -0.5985 -0.8369
 3323TIP3    H231385   4.655   6.866   3.286 -1.2370  0.4758 -1.0317
 3324TIP3   OH231386   6.776   3.981   2.985  0.0164 -0.0320 -0.6961
 3324TIP3    H131387   6.769   4.039   2.908 -0.7287 -0.2253 -0.7797
 3324TIP3    H231388   6.712   3.912   2.968 -1.1848  0.6786  0.7582
 3325TIP3   OH231389   5.255   4.459   2.136 -0.2290  0.2218 -0.1035
 3325TIP3    H131390   5.219   4.544   2.112 -1.0122  0.2070  0.9321
 3325TIP3    H231391   5.213   4.438   2.219  0.6885 -0.7327  0.1468
 3326TIP3   OH231392   4.766   5.593  11.840 -0.0211 -0.4869  0.1901
 3326TIP3    H131393   4.767   5.510  11.888  2.7211 -1.4553 -1.3328
 3326TIP3    H231394   4.698   5.581  11.773 -1.5249 -0.3922  1.6206
 3327TIP3   OH231395   2.453   3.986  12.180 -0.3409  0.5878  0.5248
 3327TIP3    H131396   2.369   4.018  12.146 -0.5428  0.5466  0.9845
 3327TIP3    H231397   2.483   4.056  12.238 -0.5500  0.1675  1.1517
 3328TIP3   OH231398   5.220   4.843  10.823 -0.3575 -0.4537 -0.1067
 3328TIP3    H131399   5.157   4.856  10.893 -0.2185  0.1678 -0.0890
 3328TIP3    H231400   5.190   4.765  10.777 -0.4188 -0.8942  0.6748
 3329TIP3   OH231401   6.662   5.958   1.505  0.0947  0.3867 -0.0073
 3329TIP3    H131402   6.673   5.932   1.414  1.2312 -1.1751  0.5334
 3329TIP3    H231403   6.568   5.950   1.521  0.0529 -0.6152 -0.6926
 3330TIP3   OH231404   0.499   0.928  16.509  0.0474  0.4294 -0.2370
 3330TIP3    H131405   0.453   0.846  16.529 -0.8560  0.7756 -0.8190
 3330TIP3    H231406   0.590   0.911  16.531 -0.5626  0.2236  2.5433
 3331TIP3   OH231407   1.032   3.834  12.908 -0.3126  0.3426  0.0344
 3331TIP3    H131408   0.995   3.802  12.990 -0.9909  1.6586  0.2734
 3331TIP3    H231409   1.114   3.785  12.897 -0.8813 -0.8292  0.7782
 3332TIP3   OH231410   5.317   5.687   1.308 -0.0068  0.1061 -0.3338
 3332TIP3    H131411   5.274   5.640   1.237 -0.5244 -0.8316  0.5772
 3332TIP3    H231412   5.408   5.658   1.304 -0.3131 -0.9988  0.2047
 3333TIP3   OH231413   1.834   1.826  11.527  0.4378 -0.6306  0.2050
 3333TIP3    H131414   1.863   1.836  11.618 -2.6854  3.5994  1.0267
 3333TIP3    H231415   1.893   1.882  11.477 -0.3744  0.3906  0.3618
 3334TIP3   OH231416   1.476   6.466   0.588 -0.1878  0.4175 -0.4491
 3334TIP3    H131417   1.423   6.541   0.614  0.8580  0.7917  0.7579
 3334TIP3    H231418   1.513   6.491   0.503 -2.5833 -0.2396 -1.7768
 3335TIP3   OH231419   2.471   5.876  15.333  0.6679 -0.0247  0.0637
 3335TIP3    H131420   2.509   5.866  15.421  1.7195 -0.0110 -0.3665
 3335TIP3    H231421   2.381   5.904  15.348  0.2875 -1.7377  1.1643
 3336TIP3   OH231422   3.721   6.707   0.097  0.6643 -0.6356 -0.5448
 3336TIP3    H131423   3.677   6.745   0.173  0.0298 -0.3084 -1.0596
 3336TIP3    H231424   3.809   6.687   0.127  1.0496  1.3038 -0.2561
 3337TIP3   OH231425   5.365   4.958   0.027 -0.0295  0.2704  0.3572
 3337TIP3    H131426   5.416   4.889  -0.016 -0.4373  0.8733 -1.1709
 3337TIP3    H231427   5.431   5.009   0.075  0.3824 -0.6795  0.8338
 3338TIP3   OH231428   3.833   3.430  14.082 -0.1114 -0.6991  0.2790
 3338TIP3    H131429   3.834   3.351  14.137  1.3095  0.0891  1.4474
 3338TIP3    H231430   3.804   3.500  14.140  1.9160  0.2439  0.2396
 3339TIP3   OH231431   1.531   1.600   0.821  0.1196  0.4515  0.3581
 3339TIP3    H131432   1.461   1.632   0.764 -0.6836 -0.6201  0.7151
 3339TIP3    H231433   1.612   1.624   0.775 -0.4880  0.9609 -0.4721
 3340TIP3   OH231434   0.044   6.765  11.213 -0.4847 -0.2922 -0.2988
 3340TIP3    H131435   0.095   6.808  11.144 -0.3838  0.4223  0.2176
 3340TIP3    H231436   0.110   6.721  11.267 -0.1341  2.3959  1.6330
 3341TIP3   OH231437   0.576   1.847  16.140  0.3275 -0.2506 -0.3703
 3341TIP3    H131438   0.660   1.801  16.152  0.2446 -0.8728 -1.9572
 3341TIP3    H231439   0.564   1.895  16.222  2.2985 -0.0378 -0.1385
 3342TIP3   OH231440   1.510   4.403   3.022 -0.0462 -0.4412 -0.2500
 3342TIP3    H131441   1.563   4.323   3.021 -1.2663 -1.3295  1.0737
 3342TIP3    H231442   1.430   4.378   2.976 -0.2276  0.1821 -0.2817
 3343TIP3   OH231443   2.521   6.075   3.088  0.0796 -0.9880 -0.0469
 3343TIP3    H131444   2.493   6.088   2.997  0.9113  0.4430 -0.1285
 3343TIP3    H231445   2.473   6.140   3.138  1.1713 -0.3465  0.2068
 3344TIP3   OH231446   3.057   6.517  16.869  0.2939  0.1022 -0.5530
 3344TIP3    H131447   3.009   6.529  16.787  0.3004  1.1107 -0.4306
 3344TIP3    H231448   3.066   6.606  16.904 -0.0638 -0.3557  0.7469
 3345TIP3   OH231449   1.077   1.353  15.601  0.6466  0.0233 -0.0940
 3345TIP3    H131450   1.081   1.361  15.506 -0.0160 -0.1572 -0.1447
 3345TIP3    H231451   1.049   1.439  15.632 -0.2447 -0.2323 -0.1556
 3346TIP3   OH231452   4.874   5.802  13.483  0.4745 -0.1834 -0.2744
 3346TIP3    H131453   4.838   5.885  13.512  1.0752  0.7766 -2.0823
 3346TIP3    H231454   4.809   5.736  13.509 -1.6135  1.2315 -1.6330
 3347TIP3   OH231455   3.265   5.214   0.762 -0.0400  0.0746 -0.6019
 3347TIP3    H131456   3.224   5.281   0.708  1.9331  2.2852  0.4426
 3347TIP3    H231457   3.193   5.179   0.815 -1.0664  1.8739 -0.7194
 3348TIP3   OH231458   1.012   4.790   4.456 -0.2783  0.0521  0.0285
 3348TIP3    H131459   0.959   4.844   4.515  1.4997  1.9150  0.0494
 3348TIP3    H231460   1.017   4.704   4.499 -3.1837 -0.2049  0.0121
 3349TIP3   OH231461   4.318   5.283  14.057  0.2512 -0.1940 -0.2915
 3349TIP3    H131462   4.399   5.274  14.007 -0.5475  1.4071 -1.9726
 3349TIP3    H231463   4.301   5.194  14.091  1.8254 -0.9056 -1.2708
 3350TIP3   OH231464   2.423   2.917  15.779  0.1827 -0.0413  0.1085
 3350TIP3    H131465   2.406   2.940  15.687 -1.8573  0.5646  0.5859
 3350TIP3    H231466   2.468   2.993  15.815 -0.2556  0.3092 -0.0642
 3351TIP3   OH231467   5.498   0.333   4.247  0.7196 -0.5304 -0.1264
 3351TIP3    H131468   5.465   0.381   4.323 -0.5146  1.0570 -1.5980
 3351TIP3    H231469   5.456   0.247   4.253  0.3302 -0.2917  0.7557
 3352TIP3   OH231470   0.677   5.874   4.405 -0.2537 -0.0440 -0.4139
 3352TIP3    H131471   0.755   5.822   4.422 -0.7459 -0.8742 -0.6584
 3352TIP3    H231472   0.630   5.826   4.337 -1.2405  0.1660  0.1072
 3353TIP3   OH231473   0.860   3.576   3.056 -0.4572 -0.4368 -0.1943
 3353TIP3    H131474   0.777   3.558   3.012 -0.6186 -2.0723  0.7144
 3353TIP3    H231475   0.835   3.602   3.145 -0.0207  0.1394 -0.2288
 3354TIP3   OH231476   4.137   0.226   5.503 -0.2217 -0.5939  0.5715
 3354TIP3    H131477   4.112   0.181   5.584  1.0868  0.2079  1.4560
 3354TIP3    H231478   4.084   0.306   5.503 -4.6338 -3.0269 -2.3397
 3355TIP3   OH231479   5.699   0.351   1.925  0.2133  0.0168  0.2856
 3355TIP3    H131480   5.751   0.338   2.005  0.4842 -0.4869  0.0359
 3355TIP3    H231481   5.719   0.274   1.872 -0.4544  0.0425 -0.0010
 3356TIP3   OH231482   6.748   1.067   3.407 -0.3921 -1.4479  0.0605
 3356TIP3    H131483   6.789   1.012   3.473  0.8752 -0.6098  0.0168
 3356TIP3    H231484   6.687   1.123   3.455 -0.6301 -1.9072  0.2940
 3357TIP3   OH231485   2.786   0.045   1.524 -0.3083  0.2671 -0.4985
 3357TIP3    H131486   2.820  -0.020   1.464 -0.1714  0.3190 -0.4775
 3357TIP3    H231487   2.864   0.088   1.560 -0.3848  0.1838 -0.2273
 3358TIP3   OH231488   1.960   5.752   1.586 -0.3150 -0.0231  0.8955
 3358TIP3    H131489   1.966   5.821   1.651  0.0040 -0.2591  1.1164
 3358TIP3    H231490   2.017   5.780   1.515 -1.4017  0.7044  0.2747
 3359TIP3   OH231491   0.608   5.285   1.524 -0.7615  0.2328 -0.7039
 3359TIP3    H131492   0.584   5.217   1.587  0.1748 -1.1409 -1.7670
 3359TIP3    H231493   0.588   5.367   1.569  0.7980 -0.6353  1.8376
 3360TIP3   OH231494   2.215   2.897   2.312 -0.3110  0.0840  0.2368
 3360TIP3    H131495   2.184   2.874   2.224  0.0869 -0.7464  0.3076
 3360TIP3    H231496   2.160   2.846   2.371  0.3565 -0.4442  0.4116
 3361TIP3   OH231497   0.407   2.354  14.625 -0.2700 -0.2700 -0.1599
 3361TIP3    H131498   0.432   2.438  14.664 -0.8705 -0.0284 -0.2845
 3361TIP3    H231499   0.364   2.378  14.543 -2.9921 -0.4951  1.0895
 3362TIP3   OH231500   6.017   5.407   4.071 -0.6904 -0.2682  0.6177
 3362TIP3    H131501   5.972   5.440   4.149 -0.9480  2.1443 -0.4461
 3362TIP3    H231502   6.075   5.478   4.045  0.1083 -1.4033 -0.8565
 3363TIP3   OH231503   5.812   0.063  12.671 -0.3739  0.8363  0.0106
 3363TIP3    H131504   5.860   0.145  12.674 -0.3299  0.9184 -1.9012
 3363TIP3    H231505   5.876  -0.003  12.697 -0.8006  1.4506  3.1412
 3364TIP3   OH231506   1.541   1.988   0.165  0.2913  0.0636 -0.0930
 3364TIP3    H131507   1.518   1.895   0.169  1.0376 -0.3017 -2.6188
 3364TIP3    H231508   1.464   2.030   0.125 -0.3029  0.6757  1.6260
 3365TIP3   OH231509   6.679   1.921   3.956  0.3496  0.1650 -0.0800
 3365TIP3    H131510   6.680   1.961   4.043 -0.8968  1.3558 -0.5835
 3365TIP3    H231511   6.753   1.961   3.910 -0.1013  0.9336 -0.1529
 3366TIP3   OH231512   2.100   2.700   2.462 -0.0411  0.0107  0.0029
 3366TIP3    H131513   2.108   2.619   2.413 -0.4252  0.3882 -0.6980
 3366TIP3    H231514   2.113   2.675   2.553 -1.5210 -1.0854 -0.0534
 3367TIP3   OH231515   5.743   0.315   3.159 -0.9266 -0.3149 -0.6764
 3367TIP3    H131516   5.723   0.394   3.210 -0.6436 -0.8992  0.3762
 3367TIP3    H231517   5.752   0.346   3.069 -0.6246  0.8824 -0.2519
 3368TIP3   OH231518   2.663   1.955  13.773 -0.2350  0.6083  0.2502
 3368TIP3    H131519   2.637   1.922  13.859 -2.1650  0.2714 -0.4232
 3368TIP3    H231520   2.636   2.047  13.773  0.4695  0.8215  0.2693
 3369TIP3   OH231521   5.914   0.845   5.248 -0.0972 -0.5573 -0.7459
 3369TIP3    H131522   5.872   0.798   5.177 -0.3499 -1.1453 -0.2178
 3369TIP3    H231523   5.970   0.909   5.205 -0.8927 -0.3273 -1.4721
 3370TIP3   OH231524   0.942   5.408  11.734 -0.0143 -0.2780 -0.4114
 3370TIP3    H131525   1.002   5.355  11.682  2.1414  0.5407  1.0806
 3370TIP3    H231526   0.955   5.498  11.704 -0.2880 -0.0577  0.1018
 3371TIP3   OH231527   2.373   6.715  13.396  0.3477 -0.3196  0.0334
 3371TIP3    H131528   2.445   6.664  13.434  0.2857  0.2934  1.0075
 3371TIP3    H231529   2.355   6.783  13.461 -0.3892  0.1977 -0.6947
 3372TIP3   OH231530   2.257   4.925   3.391 -0.0249  0.6582  0.3329
 3372TIP3    H131531   2.303   5.002   3.358  2.3100  0.1526  2.1209
 3372TIP3    H231532   2.185   4.960   3.443  0.4001  1.6202  0.2960
 3373TIP3   OH231533   4.210   0.676  12.285  0.6782  0.0680 -0.6214
 3373TIP3    H131534   4.200   0.689  12.191  0.6496 -1.4950 -0.8728
 3373TIP3    H231535   4.120   0.669  12.318  0.6798  0.9433 -0.4120
 3374TIP3   OH231536   5.412   4.506   3.334 -0.3326 -0.9522  0.2595
 3374TIP3    H131537   5.499   4.521   3.298 -1.1981 -0.0201 -1.5794
 3374TIP3    H231538   5.364   4.587   3.317 -1.5295 -1.3890  1.3742
 3375TIP3   OH231539   4.124   3.583  16.773  0.2657  0.3479 -1.2621
 3375TIP3    H131540   4.068   3.603  16.848  0.7179 -2.3983 -0.0481
 3375TIP3    H231541   4.078   3.513  16.727  0.3026  1.5648 -3.2638
 3376TIP3   OH231542   2.639   4.528  14.590 -0.3213  0.5167 -0.0028
 3376TIP3    H131543   2.614   4.489  14.674 -1.2230  1.6241  0.2600
 3376TIP3    H231544   2.725   4.567  14.606 -0.4337  0.6127  0.3691
 3377TIP3   OH231545   0.118   3.931   1.901 -0.0548  0.2020  0.2421
 3377TIP3    H131546   0.170   3.881   1.964  0.2446  0.3261  0.0954
 3377TIP3    H231547   0.046   3.967   1.953  0.2889  0.4546  0.5492
 3378TIP3   OH231548   2.538   2.747   1.337  0.5874  0.2648  0.1524
 3378TIP3    H131549   2.522   2.793   1.420  1.0957 -0.2027  0.5215
 3378TIP3    H231550   2.544   2.816   1.272 -0.4822  0.6043  0.3920
 3379TIP3   OH231551   4.551   1.464   4.229  0.4095  0.4052  0.4636
 3379TIP3    H131552   4.505   1.462   4.313 -1.0834  0.4182 -0.3305
 3379TIP3    H231553   4.512   1.537   4.182  0.1217 -0.5474 -0.8387
 3380TIP3   OH231554   1.793   1.667  13.566  0.0214  0.0806 -0.1656
 3380TIP3    H131555   1.697   1.668  13.561 -0.2037 -4.0218  0.0957
 3380TIP3    H231556   1.812   1.629  13.652  1.9034  0.4092 -0.3976
 3381TIP3   OH231557   4.649   1.369  15.256 -0.2321  0.3009  0.1507
 3381TIP3    H131558   4.583   1.302  15.236 -0.1838  0.0270  0.8981
 3381TIP3    H231559   4.712   1.363  15.184  1.2949 -2.3767  1.5870
 3382TIP3   OH231560   2.436   4.429  12.518  0.0714 -0.5501  0.3047
 3382TIP3    H131561   2.470   4.516  12.495 -1.5447  0.2498  0.8078
 3382TIP3    H231562   2.350   4.426  12.477  0.0900 -1.9326  0.3289
 3383TIP3   OH231563   5.848   0.791  14.165 -0.0740  0.1088 -0.3096
 3383TIP3    H131564   5.798   0.856  14.115 -0.0527 -0.1438 -0.6642
 3383TIP3    H231565   5.880   0.729  14.099 -0.4242 -0.4840  0.0664
 3384TIP3   OH231566   5.977   1.050   1.878 -0.2014 -0.0019  0.0498
 3384TIP3    H131567   5.985   0.966   1.924  2.7162  0.4828  0.6530
 3384TIP3    H231568   5.948   1.111   1.946 -1.4579 -0.3066 -0.1823
 3385TIP3   OH231569   6.384   5.087   5.239  0.1580  0.2312 -0.6031
 3385TIP3    H131570   6.325   5.018   5.270 -0.1470  0.2943 -1.0388
 3385TIP3    H231571   6.354   5.106   5.150  1.6134 -0.6026 -1.2996
 3386TIP3   OH231572   6.344   5.344   1.229  0.2448 -0.1862 -0.7416
 3386TIP3    H131573   6.321   5.299   1.310  0.0703 -0.3766 -0.8945
 3386TIP3    H231574   6.264   5.341   1.176  0.9385 -1.9540 -1.7876
 3387TIP3   OH231575   4.931   0.551   2.242 -0.3751 -0.2142  0.3405
 3387TIP3    H131576   4.992   0.514   2.306  0.3902 -0.4776 -0.5128
 3387TIP3    H231577   4.967   0.638   2.223 -0.3099 -0.3413 -0.1131
 3388TIP3   OH231578   4.087   3.645   1.612  0.2313  0.5596  0.3290
 3388TIP3    H131579   4.139   3.649   1.532  0.9906 -1.2284  0.6952
 3388TIP3    H231580   3.996   3.645   1.581  0.5089 -0.0080 -0.5228
 3389TIP3   OH231581   1.263   3.297   1.729 -0.1774 -0.0465  0.4728
 3389TIP3    H131582   1.221   3.341   1.655  0.1774 -0.9918 -0.3111
 3389TIP3    H231583   1.192   3.280   1.791 -0.3407  1.4957  0.7565
 3390TIP3   OH231584   4.656   2.615   2.186 -0.5359 -0.1298  0.0572
 3390TIP3    H131585   4.580   2.641   2.238 -2.0382 -0.4871 -1.8318
 3390TIP3    H231586   4.619   2.572   2.109  1.6587 -2.3698  0.0994
 3391TIP3   OH231587   6.608   5.033   1.597 -0.2265  0.1319 -0.3962
 3391TIP3    H131588   6.634   5.012   1.507 -0.5461  0.9141 -0.6754
 3391TIP3    H231589   6.573   5.122   1.592 -0.6767  0.0085  0.4215
 3392TIP3   OH231590   3.257   4.723  16.465 -0.1817 -0.2708  0.0254
 3392TIP3    H131591   3.215   4.696  16.546  2.2087 -0.0431  1.4222
 3392TIP3    H231592   3.241   4.817  16.460 -0.3521 -0.2904  0.1806
 3393TIP3   OH231593   2.927   5.468   0.449 -0.7405  0.1196  0.0929
 3393TIP3    H131594   2.843   5.455   0.493 -0.4565 -0.3820  0.4943
 3393TIP3    H231595   2.922   5.411   0.372 -0.3243 -0.7918  0.7279
 3394TIP3   OH231596   4.320   2.767   0.862 -0.1845 -0.0130  0.4761
 3394TIP3    H131597   4.291   2.743   0.774 -1.2915  1.3969  0.4209
 3394TIP3    H231598   4.336   2.862   0.857  1.5139 -0.2128  1.3345
 3395TIP3   OH231599   2.950   5.200  12.750  0.2226 -0.6273  0.0214
 3395TIP3    H131600   2.961   5.256  12.674  1.7959  0.7083  1.1739
 3395TIP3    H231601   2.922   5.259  12.820  2.1740 -1.1837  1.3415
 3396TIP3   OH231602   1.257   0.936   3.716  0.0976  0.3787  0.4484
 3396TIP3    H131603   1.235   0.929   3.809 -0.4725  5.6260  0.9931
 3396TIP3    H231604   1.172   0.942   3.672  0.3953  0.3184 -0.1524
 3397TIP3   OH231605   3.667   0.755   3.404 -0.0679  0.4071  0.7164
 3397TIP3    H131606   3.574   0.748   3.381 -0.2453  2.1180  0.8356
 3397TIP3    H231607   3.713   0.733   3.323 -0.5153 -1.4802  0.9201
 3398TIP3   OH231608   1.292   6.228   4.746 -0.0975  1.2228 -0.2794
 3398TIP3    H131609   1.332   6.210   4.831 -2.0528  0.0732  0.4770
 3398TIP3    H231610   1.316   6.153   4.692 -2.2766 -0.2439  0.6329
 3399TIP3   OH231611   0.614   2.122   4.425  0.7806  0.6079  0.0163
 3399TIP3    H131612   0.627   2.213   4.398 -0.9665  1.1295  0.7862
 3399TIP3    H231613   0.663   2.115   4.507  0.3810  1.0769  0.3070
 3400TIP3   OH231614   5.160   3.167   5.186  0.5989  0.2553 -0.1925
 3400TIP3    H131615   5.081   3.124   5.153  0.6635  1.0767 -1.4983
 3400TIP3    H231616   5.135   3.258   5.197  0.2219 -0.1513  3.3790
 3401TIP3   OH231617   0.792   3.160   2.459  0.0473  0.1441 -0.0502
 3401TIP3    H131618   0.837   3.106   2.394  1.0993 -0.3317  1.0500
 3401TIP3    H231619   0.704   3.173   2.422  0.8412  0.5235 -1.9083
 3402TIP3   OH231620   2.570   6.679  16.182 -0.0017 -0.2419 -0.3480
 3402TIP3    H131621   2.552   6.602  16.127  0.4965 -0.3126 -0.4094
 3402TIP3    H231622   2.558   6.648  16.272 -0.1011 -0.3131 -0.3860
 3403TIP3   OH231623   2.180   3.196  15.403 -0.4032 -0.2207 -0.0613
 3403TIP3    H131624   2.149   3.276  15.361 -1.2948 -0.7391 -0.4045
 3403TIP3    H231625   2.172   3.129  15.336 -0.8716 -0.8511  0.6153
 3404TIP3   OH231626   6.155   2.321   5.571 -0.1236  0.0297  0.0767
 3404TIP3    H131627   6.085   2.339   5.508  0.1259 -0.5102 -0.3661
 3404TIP3    H231628   6.195   2.406   5.587 -0.4288  0.2300 -0.2042
 3405TIP3   OH231629   3.415   2.330  11.754 -0.7642 -0.2885  0.0757
 3405TIP3    H131630   3.399   2.384  11.831 -0.7359 -0.3457  0.1209
 3405TIP3    H231631   3.466   2.386  11.695 -0.9318 -0.1857  0.0259
 3406TIP3   OH231632   2.936   6.793   3.476  0.1215 -0.0171 -0.0625
 3406TIP3    H131633   2.997   6.728   3.442  0.8319  0.4979  0.2190
 3406TIP3    H231634   2.928   6.772   3.569  1.0215  0.8192  0.2109
 3407TIP3   OH231635   2.379   0.727   2.992  0.5247 -0.2514  0.2386
 3407TIP3    H131636   2.451   0.751   2.933 -0.4769  0.4849 -0.7265
 3407TIP3    H231637   2.359   0.636   2.969 -0.7941  0.4371 -1.6572
 3408TIP3   OH231638   6.755   6.255   0.188  0.1997  0.2364 -0.2816
 3408TIP3    H131639   6.808   6.178   0.168 -0.4028 -0.2073 -0.1979
 3408TIP3    H231640   6.818   6.324   0.204  0.8073 -0.6179  1.2312
 3409TIP3   OH231641   6.224   4.881  14.721  0.3433  0.2360 -0.4878
 3409TIP3    H131642   6.215   4.824  14.798 -1.5621  0.4313 -0.5040
 3409TIP3    H231643   6.169   4.957  14.742 -0.0239  0.3982 -1.9560
 3410TIP3   OH231644   3.039   0.843   5.261  0.1896  0.1786 -0.2293
 3410TIP3    H131645   3.041   0.914   5.326  0.8613  0.7620 -0.8593
 3410TIP3    H231646   2.953   0.803   5.271  0.0256  0.7035  0.5446
 3411TIP3   OH231647   3.792   1.270   1.540 -0.2693 -0.7031 -0.5004
 3411TIP3    H131648   3.828   1.331   1.477 -0.2622 -1.9861 -1.8040
 3411TIP3    H231649   3.843   1.284   1.620  0.8721 -0.1897 -1.2942
 3412TIP3   OH231650   2.837   6.169   2.115  0.4632  0.0972  0.1600
 3412TIP3    H131651   2.785   6.243   2.086 -0.0570 -0.7844 -1.2666
 3412TIP3    H231652   2.928   6.197   2.103  0.2977  0.9698  0.8936
 3413TIP3   OH231653   4.674   3.288  17.180  0.4315 -0.5075  0.0563
 3413TIP3    H131654   4.666   3.230  17.104 -0.9703  2.6571 -2.4165
 3413TIP3    H231655   4.749   3.344  17.159  0.2468  0.2049  1.2175
 3414TIP3   OH231656   3.876   2.722   3.888  1.0527  0.2705  0.3730
 3414TIP3    H131657   3.851   2.630   3.880  2.6322 -0.4414  2.4640
 3414TIP3    H231658   3.970   2.723   3.871  1.3534  1.2088  1.8369
 3415TIP3   OH231659   4.237   3.326   0.884  0.1662  0.0591  0.1213
 3415TIP3    H131660   4.311   3.303   0.829  1.4615  0.8070  1.4925
 3415TIP3    H231661   4.254   3.417   0.910 -0.3281 -0.3184  1.8546
 3416TIP3   OH231662   3.900   0.438  16.979 -0.0193  0.5531 -0.3664
 3416TIP3    H131663   3.915   0.396  17.063  0.0656  0.9391 -0.1889
 3416TIP3    H231664   3.863   0.368  16.924 -2.1543  0.8329  0.6261
 3417TIP3   OH231665   6.471   5.426   2.326 -0.0463 -0.0875 -0.1304
 3417TIP3    H131666   6.513   5.361   2.382 -0.2402 -1.0703 -1.0896
 3417TIP3    H231667   6.499   5.510   2.361 -0.4558 -0.6584  1.6586
 3418TIP3   OH231668   6.042   4.023   2.484  0.1354 -0.7865 -0.3865
 3418TIP3    H131669   5.976   4.086   2.454 -0.4803 -1.8343 -1.3448
 3418TIP3    H231670   6.064   4.051   2.573 -1.1196 -0.0282 -0.2910
 3419TIP3   OH231671   2.427   2.599  15.515  0.0430  0.1308 -0.2066
 3419TIP3    H131672   2.339   2.569  15.534 -0.3725  0.6255 -1.2894
 3419TIP3    H231673   2.434   2.596  15.420  0.7520  1.2772 -0.2128
 3420TIP3   OH231674   0.422   2.668  13.265  0.1210 -0.5073 -0.1681
 3420TIP3    H131675   0.370   2.712  13.333  1.9474  0.1459  0.8677
 3420TIP3    H231676   0.499   2.634  13.311  1.0316 -0.7311 -1.7824
 3421TIP3   OH231677   1.711   1.232  11.222 -0.5272  0.0659 -0.0125
 3421TIP3    H131678   1.642   1.281  11.177 -0.8868 -0.3770  0.0526
 3421TIP3    H231679   1.685   1.140  11.213 -0.1297 -0.0803  0.3176
 3422TIP3   OH231680   0.852   6.770  13.361 -0.1022  0.1775  0.2228
 3422TIP3    H131681   0.760   6.768  13.333 -0.9063  1.1204  2.4937
 3422TIP3    H231682   0.861   6.694  13.419  0.8959 -0.5433 -0.8444
 3423TIP3   OH231683   4.207   2.623   5.068  0.2105  0.8288 -0.4356
 3423TIP3    H131684   4.292   2.637   5.025 -0.2191  2.2990 -0.8569
 3423TIP3    H231685   4.189   2.706   5.113 -0.5686  0.2048  0.4467
 3424TIP3   OH231686   6.233   3.847   4.806  0.1971 -0.1621 -0.1087
 3424TIP3    H131687   6.241   3.889   4.720 -0.4044 -1.5243 -0.8577
 3424TIP3    H231688   6.314   3.872   4.852  0.8984 -0.0516 -1.3598
 3425TIP3   OH231689   2.295   2.482  12.709 -0.8903  0.7774  0.3595
 3425TIP3    H131690   2.371   2.533  12.738 -0.5474  0.9050 -0.7308
 3425TIP3    H231691   2.258   2.533  12.637 -1.2254  0.0510  0.0105
 3426TIP3   OH231692   6.212   0.439  12.868  0.0958 -0.1216 -0.2299
 3426TIP3    H131693   6.191   0.474  12.955  3.0686  0.6530  0.2878
 3426TIP3    H231694   6.160   0.359  12.861  1.1987 -1.3042  3.1713
 3427TIP3   OH231695   0.166   4.674   0.828  0.4806  0.6785 -0.3643
 3427TIP3    H131696   0.226   4.616   0.781  0.0638  0.0042 -0.0726
 3427TIP3    H231697   0.209   4.760   0.825  0.7526  0.5230 -1.4380
 3428TIP3   OH231698   4.440   1.738  16.484 -0.1548 -0.5522 -0.3963
 3428TIP3    H131699   4.487   1.677  16.540  0.2848 -1.6811 -1.9194
 3428TIP3    H231700   4.460   1.825  16.520  1.5231 -1.1309  0.1387
 3429TIP3   OH231701   4.534   0.436  13.348  0.1935 -0.6859  0.2098
 3429TIP3    H131702   4.501   0.407  13.433  0.6189  0.2828  0.7209
 3429TIP3    H231703   4.464   0.413  13.286 -0.1289 -1.3750  0.8232
 3430TIP3   OH231704   5.632   4.773   0.207  0.4442  0.8680  0.4779
 3430TIP3    H131705   5.713   4.758   0.159 -0.8214  0.5385 -1.6918
 3430TIP3    H231706   5.625   4.698   0.266  1.3184  0.4778  0.1111
 3431TIP3   OH231707   0.280   6.057   6.040  0.0546  0.4768  0.8147
 3431TIP3    H131708   0.208   6.006   6.077 -1.5748  2.1523  0.1113
 3431TIP3    H231709   0.311   6.003   5.967 -0.5998 -0.1947  1.0110
 3432TIP3   OH231710   1.090   2.062   5.298  0.5482 -0.7600  0.3743
 3432TIP3    H131711   1.050   2.034   5.215  0.0344  0.1445  0.3040
 3432TIP3    H231712   1.035   2.021   5.366  1.2658 -1.9090  0.2813
 3433TIP3   OH231713   6.682   6.629  11.043  0.1153 -0.3563 -0.1261
 3433TIP3    H131714   6.625   6.570  11.092  0.3805 -1.4189 -1.0450
 3433TIP3    H231715   6.733   6.675  11.110 -2.0893  0.9457  0.7306
 3434TIP3   OH231716   4.232   0.567   1.751  0.0167  0.2823  0.0565
 3434TIP3    H131717   4.327   0.554   1.758 -0.0766 -1.6465 -1.4634
 3434TIP3    H231718   4.220   0.615   1.669 -0.3280  0.5778  0.2779
 3435TIP3   OH231719   0.755   6.409  17.035 -0.4874 -0.1637  0.4117
 3435TIP3    H131720   0.748   6.408  17.130 -0.6597  3.2526  0.5505
 3435TIP3    H231721   0.689   6.471  17.006  1.3966  1.0348 -1.6760
 3436TIP3   OH231722   4.919   4.538   6.160 -0.0167 -0.2703 -0.2734
 3436TIP3    H131723   4.929   4.474   6.231 -1.3292 -1.0437 -0.7522
 3436TIP3    H231724   4.888   4.487   6.086  0.9123  0.6028 -1.2981
 3437TIP3   OH231725   1.750   4.748  13.783  0.2911  0.2667 -0.2102
 3437TIP3    H131726   1.708   4.801  13.715  1.4000  1.3486 -0.0853
 3437TIP3    H231727   1.715   4.783  13.865 -0.9142 -0.9243 -0.1842
 3438TIP3   OH231728   1.989   3.220   5.422  0.6104 -0.0577 -0.2619
 3438TIP3    H131729   1.989   3.177   5.337  1.8757  1.6393 -1.1822
 3438TIP3    H231730   2.005   3.312   5.402  1.8419  0.2476  1.8624
 3439TIP3   OH231731   5.598   5.860  16.292  0.2504  0.3568  0.0589
 3439TIP3    H131732   5.623   5.768  16.279 -0.6385 -0.0022  0.7443
 3439TIP3    H231733   5.612   5.875  16.386  1.7290  1.3620 -0.2868
 3440TIP3   OH231734   3.143   0.982   2.556 -0.3708  0.1363 -0.3248
 3440TIP3    H131735   3.128   0.890   2.534  0.1279 -0.3749  1.3157
 3440TIP3    H231736   3.145   1.027   2.471 -1.4222 -1.2266 -1.1160
 3441TIP3   OH231737   2.886   1.370  11.712  0.3582 -0.1114 -0.3430
 3441TIP3    H131738   2.823   1.431  11.751 -0.4432  0.8027 -2.8597
 3441TIP3    H231739   2.951   1.356  11.781 -1.9189 -0.1623  1.9453
 3442TIP3   OH231740   5.189   3.890   5.206 -0.1117  0.3700  0.3386
 3442TIP3    H131741   5.164   3.881   5.298  0.1076 -0.5822  0.3185
 3442TIP3    H231742   5.108   3.877   5.157 -0.4986  2.2490  0.4226
 3443TIP3   OH231743   6.253   0.622  14.961 -0.1278  0.7346 -0.0121
 3443TIP3    H131744   6.338   0.578  14.958  0.3300  1.6028 -0.0736
 3443TIP3    H231745   6.214   0.605  14.875 -1.5497 -2.5392  1.1070
 3444TIP3   OH231746   6.606   1.827  11.304 -0.5418 -0.1241  0.2093
 3444TIP3    H131747   6.535   1.818  11.368  0.0077  1.6612  1.1426
 3444TIP3    H231748   6.622   1.921  11.300  0.5084 -0.3344 -1.4158
 3445TIP3   OH231749   3.981   4.869   0.552  0.3231 -0.2518 -0.0427
 3445TIP3    H131750   4.066   4.909   0.536 -0.4223  1.0567 -0.9849
 3445TIP3    H231751   3.964   4.882   0.645 -0.0250  1.9893 -0.3723
 3446TIP3   OH231752   6.244   6.384  11.153  0.1892  0.4183 -0.1451
 3446TIP3    H131753   6.156   6.365  11.187  0.6976  0.0995  1.0163
 3446TIP3    H231754   6.275   6.300  11.120  0.7996  0.1027  1.1930
 3447TIP3   OH231755   2.622   2.206  13.823 -0.5181  0.1245 -0.5030
 3447TIP3    H131756   2.614   2.265  13.748 -0.6137  0.0328 -0.5664
 3447TIP3    H231757   2.625   2.264  13.899  0.8751  0.2907 -0.6546
 3448TIP3   OH231758   5.762   4.497  15.487  0.2016 -0.0384  0.5556
 3448TIP3    H131759   5.809   4.532  15.412  0.2115 -1.7415 -0.2836
 3448TIP3    H231760   5.677   4.539  15.484  0.8372  1.3042  0.7071
 3449TIP3   OH231761   0.096   3.612  14.868 -0.1544 -0.1154 -0.1536
 3449TIP3    H131762   0.181   3.654  14.875 -1.2388  2.0586  1.0847
 3449TIP3    H231763   0.047   3.668  14.808 -0.6697 -1.4674 -1.0402
 3450TIP3   OH231764   2.873   6.184  13.997  0.1448 -0.4686  0.3150
 3450TIP3    H131765   2.846   6.107  13.947 -0.7315  0.5061 -0.7640
 3450TIP3    H231766   2.801   6.199  14.059  0.2441 -0.4157  0.4191
 3451TIP3   OH231767   3.213   1.942   1.586 -0.0409  0.4594 -0.7604
 3451TIP3    H131768   3.267   1.930   1.664  0.1843  0.6587 -0.8845
 3451TIP3    H231769   3.276   1.952   1.515 -0.2447  0.0332 -1.0048
 3452TIP3   OH231770   4.247   3.393   4.892  0.1123 -0.0458  0.5601
 3452TIP3    H131771   4.277   3.483   4.902 -0.9090  0.1421  2.6140
 3452TIP3    H231772   4.284   3.346   4.967 -0.9071 -0.8504  0.5995
 3453TIP3   OH231773   0.021   1.904   5.216  0.3864  0.4857 -0.3965
 3453TIP3    H131774   0.087   1.886   5.283 -0.3634 -1.1467 -0.0526
 3453TIP3    H231775  -0.032   1.974   5.254  1.4401  1.2967 -0.3644
 3454TIP3   OH231776   1.886   3.859  12.385  0.3809  0.2625  0.5795
 3454TIP3    H131777   1.911   3.860  12.292  0.4116 -0.3080  0.5807
 3454TIP3    H231778   1.935   3.785  12.422 -0.1665  0.0595  0.9030
 3455TIP3   OH231779   2.358   2.416  11.198  0.7043  0.1311  0.0347
 3455TIP3    H131780   2.314   2.406  11.283  1.2890  0.2868  0.3617
 3455TIP3    H231781   2.419   2.342  11.194  0.0492 -0.3882 -0.6546
 3456TIP3   OH231782   5.126   1.635  12.590  0.8503 -0.0231  0.2694
 3456TIP3    H131783   5.041   1.641  12.547  0.6803  2.0018  0.8016
 3456TIP3    H231784   5.106   1.613  12.681  1.1409 -2.9190 -0.2617
 3457TIP3   OH231785   3.659   5.053  13.833  0.0416 -0.1327  0.1145
 3457TIP3    H131786   3.672   4.987  13.764  0.0856 -0.6299  0.5912
 3457TIP3    H231787   3.744   5.061  13.876 -0.1780 -0.3917  0.6044
 3458TIP3   OH231788   5.627   5.763   4.139  1.0447  0.5509  0.4636
 3458TIP3    H131789   5.720   5.781   4.134  1.0572  0.1090 -2.1448
 3458TIP3    H231790   5.621   5.668   4.146  0.7877  0.6090  1.0755
 3459TIP3   OH231791   2.357   2.052  14.279  0.2454 -0.0591  0.2631
 3459TIP3    H131792   2.274   2.093  14.253  1.0138  0.9599 -0.6735
 3459TIP3    H231793   2.406   2.122  14.323  1.2057 -0.1810 -0.5544
 3460TIP3   OH231794   0.998   2.264   4.783  0.5874  0.0056 -0.5836
 3460TIP3    H131795   1.087   2.297   4.770 -0.0605  2.8578  1.3580
 3460TIP3    H231796   0.993   2.242   4.876 -1.3677  2.3795 -0.0148
 3461TIP3   OH231797   2.054   1.751   2.405  0.4864 -0.4366 -0.0266
 3461TIP3    H131798   1.959   1.758   2.411  0.5233 -1.0300  2.1783
 3461TIP3    H231799   2.081   1.828   2.355 -1.1158 -0.0932 -0.4166
 3462TIP3   OH231800   2.569   3.520   5.826  0.4897 -0.0973  0.2943
 3462TIP3    H131801   2.587   3.604   5.785  0.2689 -0.2674 -0.1597
 3462TIP3    H231802   2.606   3.456   5.766  1.7263 -0.2816  1.2146
 3463TIP3   OH231803   2.176   1.348   4.941 -0.6545 -0.1069 -0.2572
 3463TIP3    H131804   2.266   1.381   4.942 -0.5842 -0.1276 -1.9666
 3463TIP3    H231805   2.174   1.289   4.865 -1.9030 -0.7225  0.2345
 3464TIP3   OH231806   2.178   1.987   1.456  0.0132 -0.0201  0.3805
 3464TIP3    H131807   2.085   1.967   1.453  0.0388 -0.1373  0.3737
 3464TIP3    H231808   2.214   1.946   1.377  0.1039 -0.1438  0.4858
 3465TIP3   OH231809   3.302   6.120  11.908  0.0003  0.7284  0.3658
 3465TIP3    H131810   3.334   6.183  11.973 -0.6749  1.8170 -0.3317
 3465TIP3    H231811   3.208   6.138  11.902 -0.0124  0.3783 -0.6184
 3466TIP3   OH231812   5.277   0.070  17.004 -0.7215  0.6325 -0.0574
 3466TIP3    H131813   5.244   0.027  17.083 -0.8436 -0.1939 -0.5530
 3466TIP3    H231814   5.252   0.012  16.932 -0.5536  1.3454 -0.7024
 3467TIP3   OH231815   4.727   6.372  16.346 -0.4112  0.0840 -0.1585
 3467TIP3    H131816   4.766   6.321  16.275 -1.8399 -1.0478 -0.1753
 3467TIP3    H231817   4.763   6.460  16.334 -0.2874 -0.1705 -2.0276
 3468TIP3   OH231818   5.771   1.950  13.033  0.3657  0.6432 -0.0895
 3468TIP3    H131819   5.751   2.039  13.061  1.9616  0.5142  1.6481
 3468TIP3    H231820   5.723   1.894  13.094  0.2833  0.3210 -0.4470
 3469TIP3   OH231821   3.692   2.639   2.241  0.2175  0.6200 -0.1247
 3469TIP3    H131822   3.773   2.689   2.227  1.0546 -0.9042 -0.9392
 3469TIP3    H231823   3.721   2.553   2.271 -1.1434  0.2646  0.2557
 3470TIP3   OH231824   2.478   1.535  15.920  0.0087  0.0523 -0.0913
 3470TIP3    H131825   2.570   1.510  15.918  0.0003 -0.0476  0.6212
 3470TIP3    H231826   2.441   1.486  15.993 -0.9059 -0.8977 -1.1637
 3471TIP3   OH231827   6.598   1.279   0.639  0.1409 -0.0122 -0.4414
 3471TIP3    H131828   6.549   1.209   0.682  0.9809 -0.7506 -0.6701
 3471TIP3    H231829   6.625   1.242   0.555 -1.2275  1.3125 -1.5296
 3472TIP3   OH231830   3.825   4.602   0.686  0.2454  0.0246 -0.5626
 3472TIP3    H131831   3.737   4.568   0.705  0.2639  1.0957  1.7052
 3472TIP3    H231832   3.814   4.652   0.605 -0.9202 -0.9202 -1.0242
 3473TIP3   OH231833   1.184   6.022   3.045 -0.0539 -0.0396  0.4536
 3473TIP3    H131834   1.279   6.032   3.053  0.3149  0.1669 -2.7638
 3473TIP3    H231835   1.172   5.936   3.004 -1.2630 -0.0971  0.8830
 3474TIP3   OH231836   1.995   6.206   4.160 -0.0432  0.1686  0.0875
 3474TIP3    H131837   2.049   6.131   4.136  0.1132  1.4166 -4.5076
 3474TIP3    H231838   1.911   6.190   4.117 -0.0194  2.4615 -0.9749
 3475TIP3   OH231839   4.118   2.765   1.826 -0.6922 -0.9653  0.4333
 3475TIP3    H131840   4.046   2.750   1.764 -0.4050  0.0779 -0.1718
 3475TIP3    H231841   4.074   2.787   1.908 -1.1193  0.9673 -0.2470
 3476TIP3   OH231842   6.769   6.015   5.950 -0.3515  0.2717  0.2583
 3476TIP3    H131843   6.794   5.970   6.031 -2.8955  0.5877  1.2962
 3476TIP3    H231844   6.747   5.944   5.889  1.2347  0.0436 -0.0943
 3477TIP3   OH231845   4.109   1.591   4.816 -0.1812  0.3722  0.1727
 3477TIP3    H131846   4.053   1.551   4.749 -0.1843  0.9406 -0.1735
 3477TIP3    H231847   4.081   1.551   4.898 -0.1010 -0.4221 -0.1787
 3478TIP3   OH231848   0.673   5.683   3.010 -0.1193  0.6563 -0.9001
 3478TIP3    H131849   0.594   5.650   2.966  1.7098 -1.9180 -2.5407
 3478TIP3    H231850   0.675   5.637   3.094  0.6788 -0.9780 -1.7700
 3479TIP3   OH231851   3.516   3.689  12.179  0.4607  0.2832 -0.1090
 3479TIP3    H131852   3.535   3.595  12.176 -0.4227  0.0147  1.4764
 3479TIP3    H231853   3.596   3.731  12.146  2.0411 -0.9569  1.8829
 3480TIP3   OH231854   5.957   2.486   3.631 -0.3538  0.0236  0.2872
 3480TIP3    H131855   5.897   2.469   3.559  0.1319  0.9562 -0.3446
 3480TIP3    H231856   5.950   2.580   3.648  0.3862  0.0180  0.6870
 3481TIP3   OH231857   2.126   4.719   6.464 -0.3411 -0.1253 -0.4803
 3481TIP3    H131858   2.076   4.795   6.435 -0.4439 -0.8629 -2.3647
 3481TIP3    H231859   2.146   4.737   6.556 -2.0303  1.2680 -0.3404
 3482TIP3   OH231860   5.189   5.272  14.575 -0.2581 -0.4814  0.6072
 3482TIP3    H131861   5.209   5.327  14.650 -0.2909  0.5014 -0.0964
 3482TIP3    H231862   5.273   5.258  14.532 -0.4862  0.3880 -0.1371
 3483TIP3   OH231863   3.713   2.807  11.524  0.2365  0.0952 -0.3595
 3483TIP3    H131864   3.652   2.820  11.597  1.3215  1.3996  0.3538
 3483TIP3    H231865   3.681   2.866  11.455 -0.7476 -1.0863 -0.9526
 3484TIP3   OH231866   2.886   0.530   1.319 -0.3517  0.4533  0.1978
 3484TIP3    H131867   2.804   0.496   1.355 -0.8474  2.0607  0.6905
 3484TIP3    H231868   2.892   0.492   1.231 -0.9276 -0.7337  0.6515
 3485TIP3   OH231869   5.052   1.286   2.748  0.6932 -0.3473 -0.0238
 3485TIP3    H131870   5.084   1.225   2.681 -0.1634  0.8160 -1.5413
 3485TIP3    H231871   4.962   1.305   2.722  0.6823  0.9515  0.8919
 3486TIP3   OH231872   1.266   3.398   0.865  0.7367 -0.2430 -0.2245
 3486TIP3    H131873   1.186   3.366   0.906  0.2876  0.1636 -0.7549
 3486TIP3    H231874   1.262   3.493   0.877  1.6449 -0.2885  0.6238
 3487TIP3   OH231875   0.463   6.649   5.087 -0.3341  0.3035  0.0583
 3487TIP3    H131876   0.478   6.634   5.180 -1.8260  0.7829  0.3968
 3487TIP3    H231877   0.420   6.569   5.056 -0.6324  0.4956 -0.0249
 3488TIP3   OH231878   2.042   3.870   4.742  0.2322 -0.2449 -0.2642
 3488TIP3    H131879   1.981   3.940   4.765 -0.1400 -0.6820  0.1110
 3488TIP3    H231880   2.108   3.871   4.812 -1.4832 -2.2687  1.5463
 3489TIP3   OH231881   1.905   3.261  13.025 -0.2216 -0.2714  0.3387
 3489TIP3    H131882   1.833   3.201  13.003  0.1276 -1.1665  1.4690
 3489TIP3    H231883   1.866   3.348  13.020 -1.3500 -0.7220  0.7211
 3490TIP3   OH231884   3.166   4.526   1.476  0.0433 -0.2388  0.1349
 3490TIP3    H131885   3.227   4.495   1.410  0.7818  0.5697  0.4129
 3490TIP3    H231886   3.192   4.480   1.556  1.7871  1.6869  0.7894
 3491TIP3   OH231887   1.661   5.929  14.335 -0.3803  0.1219  0.2778
 3491TIP3    H131888   1.669   6.004  14.277 -0.4235 -0.1994 -0.1532
 3491TIP3    H231889   1.568   5.908  14.334 -0.1329 -1.1024 -1.1299
 3492TIP3   OH231890   4.333   5.784  16.216 -0.0313 -0.5045 -0.3075
 3492TIP3    H131891   4.379   5.762  16.135  0.5027  0.7002 -0.3534
 3492TIP3    H231892   4.243   5.800  16.188  0.0266 -0.6284 -0.5711
 3493TIP3   OH231893   5.466   4.970  16.325  0.1133  0.2954 -0.7963
 3493TIP3    H131894   5.497   5.047  16.374 -0.2358 -0.0117 -0.0790
 3493TIP3    H231895   5.427   5.007  16.246  2.3500  0.7066 -1.8043
 3494TIP3   OH231896   2.320   2.541  13.048  0.1628  0.2388 -0.5467
 3494TIP3    H131897   2.263   2.589  13.108  0.1386 -0.4963  0.0227
 3494TIP3    H231898   2.267   2.528  12.970 -0.1026  0.4298 -0.3992
 3495TIP3   OH231899   0.628   6.011  14.616  0.1193  0.0681 -0.0988
 3495TIP3    H131900   0.695   6.039  14.554  1.4429 -0.5964  0.9657
 3495TIP3    H231901   0.654   5.923  14.642 -0.5198  0.2379  1.2047
 3496TIP3   OH231902   1.621   1.663   1.836 -0.1334 -0.2918  0.5542
 3496TIP3    H131903   1.537   1.652   1.792 -0.3172 -1.0119  1.0689
 3496TIP3    H231904   1.609   1.740   1.892 -0.4288 -0.3639  0.5887
 3497TIP3   OH231905   4.839   4.548   2.515 -0.1428  0.2273  0.6302
 3497TIP3    H131906   4.905   4.581   2.577 -0.7118  0.3473  1.1866
 3497TIP3    H231907   4.781   4.623   2.500 -2.6007 -0.8692  3.4032
 3498TIP3   OH231908   4.071   4.644  16.403  0.2115 -0.8221  0.0587
 3498TIP3    H131909   4.068   4.605  16.490  1.6248 -0.4479  0.2914
 3498TIP3    H231910   4.163   4.667  16.389 -0.2590  0.7088 -0.8188
 3499TIP3   OH231911   5.820   6.533   1.870  0.0007 -0.3281  0.1069
 3499TIP3    H131912   5.733   6.518   1.906 -0.5160  0.2627 -0.8342
 3499TIP3    H231913   5.827   6.472   1.797 -0.4065  0.9048 -1.0153
 3500TIP3   OH231914   6.288   6.485   4.809 -0.3378 -0.2281  0.1807
 3500TIP3    H131915   6.220   6.431   4.768 -0.3121 -0.2175  0.1240
 3500TIP3    H231916   6.254   6.575   4.802  0.3059 -0.0521 -1.1164
 3501TIP3   OH231917   0.874   0.978  12.144 -0.2438 -0.0190  0.0844
 3501TIP3    H131918   0.863   0.947  12.054 -1.5335  0.4954  0.0377
 3501TIP3    H231919   0.905   1.068  12.136 -0.5686  0.1009  0.1404
 3502TIP3   OH231920   2.715   3.090  16.705 -0.3481 -0.0820  0.0204
 3502TIP3    H131921   2.714   3.083  16.800 -0.1307 -1.2886 -0.0441
 3502TIP3    H231922   2.771   3.018  16.676 -1.9183 -0.9233 -1.0894
 3503TIP3   OH231923   0.007   5.325   3.150  0.1915 -0.3500 -0.1081
 3503TIP3    H131924   0.014   5.256   3.216  0.5588 -0.7200 -0.5291
 3503TIP3    H231925   0.055   5.399   3.187 -1.8693  0.4221  1.2530
 3504TIP3   OH231926   5.463   2.603  12.442  0.2543 -0.6633 -0.0244
 3504TIP3    H131927   5.386   2.560  12.404  1.3184 -0.8959 -2.0833
 3504TIP3    H231928   5.501   2.537  12.500 -1.5504 -0.2190  1.7619
 3505TIP3   OH231929   1.160   2.122  12.194 -0.3129 -0.1255  0.6423
 3505TIP3    H131930   1.214   2.143  12.270  0.8705 -1.1698  0.1329
 3505TIP3    H231931   1.178   2.191  12.131  0.1425 -0.2523  0.6290
 3506TIP3   OH231932   3.832   0.681  14.245  0.2668  0.3415  0.8139
 3506TIP3    H131933   3.926   0.703  14.245  0.1235  1.1064 -0.7670
 3506TIP3    H231934   3.823   0.615  14.176 -0.5166  1.1069  0.1652
 3507TIP3   OH231935   6.021   0.398   0.923  0.4002 -0.3789 -0.1444
 3507TIP3    H131936   6.082   0.442   0.864 -0.6349  0.4578 -0.6224
 3507TIP3    H231937   5.996   0.465   0.986  2.0010 -1.4355  1.7072
 3508TIP3   OH231938   4.342   2.880  16.599  0.7835  0.3842 -0.2978
 3508TIP3    H131939   4.347   2.938  16.523 -0.6431 -1.3224 -1.7885
 3508TIP3    H231940   4.423   2.828  16.594  0.5247  0.0238 -0.9041
 3509TIP3   OH231941   3.969   5.831   0.980 -1.1339  0.3798  0.0767
 3509TIP3    H131942   4.043   5.877   0.940 -2.5403  1.3507 -1.5399
 3509TIP3    H231943   3.961   5.870   1.067 -1.8450  2.7884 -0.9870
 3510TIP3   OH231944   5.138   6.603  11.847  0.4695 -0.2698 -0.1999
 3510TIP3    H131945   5.203   6.546  11.807 -0.7020 -0.1807 -2.3936
 3510TIP3    H231946   5.186   6.684  11.866  1.4813 -0.9682  0.3200
 3511TIP3   OH231947   3.856   4.994  11.386 -0.3798 -0.1873 -0.0353
 3511TIP3    H131948   3.860   4.977  11.292  1.4043 -0.4269  0.0464
 3511TIP3    H231949   3.790   5.062  11.396 -1.8712 -1.4153 -1.2508
 3512TIP3   OH231950   6.499   0.840  11.451  0.1656  0.2538 -0.3932
 3512TIP3    H131951   6.543   0.910  11.404  1.0605  0.0026  0.0399
 3512TIP3    H231952   6.450   0.885  11.521  1.3784  0.4147  0.3856
 3513TIP3   OH231953   3.665   0.526   2.732 -0.1950  0.0240  0.3166
 3513TIP3    H131954   3.700   0.455   2.786  0.5161 -0.6201 -0.9486
 3513TIP3    H231955   3.581   0.492   2.700  0.3118 -0.4017 -0.5770
 3514TIP3   OH231956   6.211   1.961   2.841 -0.3888  0.0290 -0.7511
 3514TIP3    H131957   6.260   1.925   2.915 -1.4480 -0.5977 -0.3283
 3514TIP3    H231958   6.230   1.902   2.768  0.8118  0.7589 -1.0485
 3515TIP3   OH231959   0.851   6.630  11.194 -0.1691 -0.1581  0.2457
 3515TIP3    H131960   0.842   6.689  11.119 -0.2076 -0.4475  0.0218
 3515TIP3    H231961   0.934   6.585  11.180  0.2361  0.3982  0.8138
 3516TIP3   OH231962   5.343   5.586   2.036 -0.2440  0.9685  0.2017
 3516TIP3    H131963   5.393   5.506   2.049  0.3463  1.4586  0.9783
 3516TIP3    H231964   5.369   5.616   1.949 -1.4407 -0.3490 -0.6648
 3517TIP3   OH231965   0.673   2.838   0.425 -0.2674  0.0753  0.1447
 3517TIP3    H131966   0.613   2.899   0.382 -0.1430  0.5037  0.5731
 3517TIP3    H231967   0.630   2.752   0.418 -0.4102  0.1989 -0.5189
 3518TIP3   OH231968   5.747   1.950   5.559 -0.2725 -0.0030  0.5305
 3518TIP3    H131969   5.831   1.991   5.581  0.1779 -0.8368  0.4240
 3518TIP3    H231970   5.728   1.981   5.471  0.1201 -0.1181  0.4027
 3519TIP3   OH231971   6.212   1.590  11.969 -0.2449 -0.3324  0.5624
 3519TIP3    H131972   6.236   1.677  12.000  0.2781  0.1513 -1.0721
 3519TIP3    H231973   6.254   1.530  12.030 -0.2924  0.5558  1.4918
 3520TIP3   OH231974   6.287   1.211  14.950  0.2013  0.4960  0.0764
 3520TIP3    H131975   6.341   1.284  14.920  0.3022 -0.7915 -3.3167
 3520TIP3    H231976   6.201   1.227  14.911  0.2692 -1.1910 -0.8584
 3521TIP3   OH231977   5.348   1.748  15.009  0.5469  0.8499  0.0871
 3521TIP3    H131978   5.317   1.679  15.068  1.7995  0.1416 -0.0409
 3521TIP3    H231979   5.357   1.825  15.064 -0.0709  0.6962  0.4155
 3522TIP3   OH231980   2.902   3.253  16.268 -0.0311 -0.0921  0.1183
 3522TIP3    H131981   2.954   3.173  16.268  1.2103  0.6901  0.4602
 3522TIP3    H231982   2.833   3.237  16.331  0.2561 -0.8595  0.2510
 3523TIP3   OH231983   3.012   4.848  14.395 -0.4184  0.0083 -0.0225
 3523TIP3    H131984   2.989   4.940  14.382 -2.6605 -0.5538 -0.4428
 3523TIP3    H231985   3.097   4.838  14.353 -0.5517  1.6870 -0.7607
 3524TIP3   OH231986   2.589   2.650  15.730 -0.1836 -0.1632  0.1721
 3524TIP3    H131987   2.503   2.691  15.727  0.5926  1.5675  0.0882
 3524TIP3    H231988   2.601   2.613  15.642 -0.3289  0.7234 -0.2251
 3525TIP3   OH231989   4.661   2.451   0.059 -0.1990 -0.5197  0.3275
 3525TIP3    H131990   4.591   2.504   0.096  0.0084 -0.8832  1.2799
 3525TIP3    H231991   4.737   2.509   0.057  0.3096 -1.0081  2.3447
 3526TIP3   OH231992   3.028   2.970  11.887 -0.2731  0.3307 -0.3230
 3526TIP3    H131993   2.983   3.038  11.837 -0.9009  1.4233  1.5979
 3526TIP3    H231994   3.002   2.987  11.978 -0.8667 -2.7987  0.2003
 3527TIP3   OH231995   5.592   5.935   4.605  0.3873 -0.4507  0.0824
 3527TIP3    H131996   5.641   5.854   4.595  1.2005  0.1184 -0.7845
 3527TIP3    H231997   5.658   6.001   4.626 -0.2577  0.0037  0.7775
 3528TIP3   OH231998   6.573   2.928  11.715 -0.3379  0.6567  0.3658
 3528TIP3    H131999   6.502   2.983  11.683 -1.2136 -0.8465 -0.3675
 3528TIP3    H232000   6.652   2.966  11.675 -1.1292  0.3266 -1.6373
 3529TIP3   OH232001   2.301   5.905   4.750  0.6891  0.2458  0.4556
 3529TIP3    H132002   2.206   5.908   4.749  0.5726 -0.6724 -2.7529
 3529TIP3    H232003   2.324   5.885   4.841 -2.1086  0.9338  1.4074
 3530TIP3   OH232004   5.656   4.084  15.883 -0.3508  0.4284  0.2167
 3530TIP3    H132005   5.602   4.105  15.808  0.5623  0.6920 -0.3828
 3530TIP3    H232006   5.738   4.050  15.846 -0.2489 -0.3410  1.0989
 3531TIP3   OH232007   5.412   6.771  12.119 -0.0995 -0.0110 -0.3437
 3531TIP3    H132008   5.387   6.833  12.188 -1.7384 -1.3744  0.3501
 3531TIP3    H232009   5.380   6.810  12.038  2.0840  1.7446 -0.4527
 3532TIP3   OH232010   1.219   6.286  16.629 -0.0752  0.4559  0.1453
 3532TIP3    H132011   1.224   6.375  16.595 -1.4067 -0.3117 -2.3447
 3532TIP3    H232012   1.223   6.231  16.551 -0.7062 -1.6005  1.4893
 3533TIP3   OH232013   6.521   3.795  12.821  0.8995  0.3210  0.1334
 3533TIP3    H132014   6.462   3.866  12.848  1.6931  2.2826 -2.8125
 3533TIP3    H232015   6.606   3.820  12.858  0.6009 -0.7717  1.6307
 3534TIP3   OH232016   0.194   1.272   1.391  0.6593 -0.1325 -0.0473
 3534TIP3    H132017   0.184   1.190   1.342  1.0609 -0.8130  0.9786
 3534TIP3    H232018   0.241   1.329   1.330  1.1863 -0.9740 -0.4627
 3535TIP3   OH232019   1.595   4.788   5.142 -0.2711  0.0284 -0.3452
 3535TIP3    H132020   1.533   4.715   5.134  2.1581 -2.0033 -3.1319
 3535TIP3    H232021   1.630   4.780   5.231  0.3833 -2.7753 -0.7498
 3536TIP3   OH232022   0.210   2.032  12.488  0.0141 -0.2521  0.1857
 3536TIP3    H132023   0.211   2.125  12.510 -1.4095 -0.2900  0.5399
 3536TIP3    H232024   0.119   2.005  12.504  0.3830 -1.6789 -0.0065
 3537TIP3   OH232025   6.372   4.394  13.802  0.0493  0.2417 -0.3760
 3537TIP3    H132026   6.359   4.430  13.714 -0.3230  2.2821  0.4783
 3537TIP3    H232027   6.317   4.447  13.859 -1.0036 -2.0699  0.9210
 3538TIP3   OH232028   4.549   4.353   3.475  0.6510  0.1460  0.6064
 3538TIP3    H132029   4.616   4.406   3.518 -0.5652  1.4883  0.9213
 3538TIP3    H232030   4.483   4.338   3.542  0.7382 -1.4156  0.3832
 3539TIP3   OH232031   3.202   3.573  13.530 -0.2598 -0.9157  0.0851
 3539TIP3    H132032   3.143   3.497  13.522  0.3840 -1.3752 -0.4405
 3539TIP3    H232033   3.230   3.572  13.621 -0.6495 -1.0109  0.2065
 3540TIP3   OH232034   3.287   4.907   3.315  0.0050  0.0718 -0.0868
 3540TIP3    H132035   3.356   4.843   3.295 -0.1269 -0.7751  1.8989
 3540TIP3    H232036   3.330   4.971   3.371 -0.4629  0.3885 -0.0913
 3541TIP3   OH232037   4.285   0.535  14.742  0.5443 -0.4342  0.7183
 3541TIP3    H132038   4.340   0.571  14.672 -0.0201  1.0048  0.9825
 3541TIP3    H232039   4.296   0.440  14.734  1.5449 -0.2527 -0.4565
 3542TIP3   OH232040   0.554   0.871  15.411 -0.2817 -0.1704 -0.1192
 3542TIP3    H132041   0.471   0.873  15.365 -0.6881  0.8895  0.6284
 3542TIP3    H232042   0.531   0.851  15.502  0.1509  1.2763  0.3288
 3543TIP3   OH232043   3.465   4.694  12.778  0.0219 -0.2326 -0.2707
 3543TIP3    H132044   3.456   4.719  12.686  0.3842  0.0793 -0.2205
 3543TIP3    H232045   3.527   4.621  12.776  0.2463 -0.0428 -0.2454
 3544TIP3   OH232046   6.111   2.770   4.346 -0.3721  0.2066  0.7270
 3544TIP3    H132047   6.025   2.738   4.321 -0.1676  0.1123  0.1138
 3544TIP3    H232048   6.137   2.829   4.274  0.9588 -1.4006 -0.2009
 3545TIP3   OH232049   6.202   6.652   4.452 -0.3773  0.2398 -0.1804
 3545TIP3    H132050   6.146   6.720   4.415 -0.4531  0.4318  0.2887
 3545TIP3    H232051   6.189   6.577   4.394 -1.6204  0.0658  0.2847
 3546TIP3   OH232052   6.565   1.665  13.370 -0.0293 -0.1287  0.1443
 3546TIP3    H132053   6.562   1.569  13.375  1.2315 -0.1742  0.2664
 3546TIP3    H232054   6.540   1.685  13.280 -3.8112 -0.3360  0.9834
 3547TIP3   OH232055   0.992   3.612  12.640  0.3331 -0.2697 -0.0960
 3547TIP3    H132056   0.909   3.603  12.687  0.5881 -2.3022  0.0436
 3547TIP3    H232057   0.973   3.582  12.551  0.4075  1.4402 -0.7400
 3548TIP3   OH232058   4.793   6.189   4.258 -0.4565  0.5224 -0.1457
 3548TIP3    H132059   4.797   6.097   4.283  1.6154  0.5441 -0.1671
 3548TIP3    H232060   4.806   6.189   4.163  3.5053  0.8812  0.2058
 3549TIP3   OH232061   5.254   2.914   2.196 -0.8453 -0.1959 -0.3501
 3549TIP3    H132062   5.210   2.974   2.135 -0.1202 -0.2640 -0.9556
 3549TIP3    H232063   5.334   2.888   2.151 -0.6932 -0.9001  0.2982
 3550TIP3   OH232064   4.506   4.622  10.744 -0.5743 -0.0824  0.1769
 3550TIP3    H132065   4.447   4.596  10.814 -1.1760  1.5437  0.3075
 3550TIP3    H232066   4.476   4.709  10.717  0.9813  0.2533 -0.6134
 3551TIP3   OH232067   4.997   2.423  12.199  0.4294  0.2093  0.0169
 3551TIP3    H132068   5.015   2.352  12.138  1.3622 -0.3355  0.8938
 3551TIP3    H232069   4.985   2.500  12.144 -2.1865 -0.8540 -1.0907
 3552TIP3   OH232070   2.394   3.189  17.153  0.2738 -0.1025  1.1670
 3552TIP3    H132071   2.345   3.172  17.234 -1.3243  2.0904  0.7628
 3552TIP3    H232072   2.326   3.207  17.088  1.5827  0.4439 -0.0809
 3553TIP3   OH232073   5.386   2.402  16.237 -0.1571  0.3135 -0.5495
 3553TIP3    H132074   5.404   2.474  16.177 -0.4739  0.1465 -0.8507
 3553TIP3    H232075   5.469   2.386  16.281 -0.0947  0.8896 -0.4459
 3554TIP3   OH232076   2.274   3.070   3.951  0.1032  0.2582  0.2718
 3554TIP3    H132077   2.250   2.990   3.905  1.1836 -0.2948  0.6246
 3554TIP3    H232078   2.218   3.138   3.913  0.6472 -0.2582 -1.5276
 3555TIP3   OH232079   3.012   6.485   2.132  0.2936 -0.2012  0.1287
 3555TIP3    H132080   3.031   6.482   2.038 -0.0050  2.0033 -0.0460
 3555TIP3    H232081   2.976   6.572   2.146 -2.3972 -1.4498  1.8043
 3556TIP3   OH232082   6.593   2.147   1.532 -0.6774 -0.4911  0.1566
 3556TIP3    H132083   6.568   2.130   1.441  0.0059  0.5814 -0.2524
 3556TIP3    H232084   6.582   2.063   1.576  1.1222 -1.6328 -1.4234
 3557TIP3   OH232085   1.761   1.233   2.046  0.0620 -0.0428 -0.2339
 3557TIP3    H132086   1.715   1.232   1.962 -3.1251  0.7917  1.3443
 3557TIP3    H232087   1.725   1.310   2.091  4.1848  1.5868  0.6750
 3558TIP3   OH232088   2.989   5.147  12.038  0.2301 -0.3407  0.8686
 3558TIP3    H132089   3.080   5.119  12.045  0.5503  0.0715 -1.0549
 3558TIP3    H232090   2.982   5.223  12.097  2.1195  1.8380 -1.4861
 3559TIP3   OH232091   0.003   1.176  17.014  0.0979 -0.3927  0.6695
 3559TIP3    H132092  -0.008   1.271  17.015  1.6529 -0.1750  0.0927
 3559TIP3    H232093  -0.081   1.141  17.043 -1.4400  1.0875 -1.6471
 3560TIP3   OH232094   5.555   4.863   1.085 -0.2176  0.6165  0.1453
 3560TIP3    H132095   5.527   4.954   1.090 -1.3570  0.2209  1.6681
 3560TIP3    H232096   5.636   4.860   1.136 -0.0389  0.8219 -0.1252
 3561TIP3   OH232097   2.860   4.670   0.450  0.0691 -0.0572 -0.4551
 3561TIP3    H132098   2.869   4.664   0.355  0.1126  0.9886 -0.5359
 3561TIP3    H232099   2.930   4.731   0.476  1.6111 -2.1375  0.5464
 3562TIP3   OH232100   4.991   0.530  13.658  0.5327 -0.2021  0.2876
 3562TIP3    H132101   5.085   0.523  13.675  0.9284  1.5831 -0.9321
 3562TIP3    H232102   4.977   0.623  13.639 -0.9874 -0.8503 -2.1609
 3563TIP3   OH232103   4.757   2.771  17.092  0.5287  0.5492 -0.7881
 3563TIP3    H132104   4.811   2.728  17.158  0.6498  1.5610 -0.2060
 3563TIP3    H232105   4.737   2.703  17.029 -1.7404 -1.1446  1.5569
 3564TIP3   OH232106   3.890   0.755  16.605  0.8696 -0.4338 -0.0195
 3564TIP3    H132107   3.892   0.659  16.613  1.4218 -0.4126  0.1691
 3564TIP3    H232108   3.829   0.772  16.533  0.6322 -0.9189  0.0621
 3565TIP3   OH232109   1.308   6.246   5.580  0.5747  0.0971 -0.6949
 3565TIP3    H132110   1.317   6.189   5.656 -1.5113 -0.1672 -0.5928
 3565TIP3    H232111   1.390   6.296   5.578  2.3991 -2.6962 -0.6861
 3566TIP3   OH232112   1.260   0.738  12.753  0.0118  0.1526  0.0445
 3566TIP3    H132113   1.210   0.819  12.739 -0.1363  0.0079 -0.2663
 3566TIP3    H232114   1.194   0.673  12.775  0.0214 -0.1222 -0.7069
 3567TIP3   OH232115   4.799   1.361  14.999 -0.3675  0.1278  0.4400
 3567TIP3    H132116   4.785   1.324  14.912 -1.9297 -2.0343  1.5109
 3567TIP3    H232117   4.752   1.445  14.997  1.5687  1.2493 -1.4412
 3568TIP3   OH232118   2.383   0.624   4.287 -0.0306 -0.6193 -0.1944
 3568TIP3    H132119   2.331   0.586   4.216 -1.9866  1.1262  0.2010
 3568TIP3    H232120   2.360   0.571   4.364 -0.2759 -0.6253 -0.2706
 3569TIP3   OH232121   3.449   4.379  11.146 -0.8569  0.1049 -0.3228
 3569TIP3    H132122   3.502   4.299  11.137 -0.9400  0.1163 -0.9392
 3569TIP3    H232123   3.395   4.381  11.067 -1.0207  0.6539 -0.1991
 3570TIP3   OH232124   5.526   4.840   5.448 -0.2198 -0.5963  0.4653
 3570TIP3    H132125   5.599   4.779   5.435  0.2110  0.1243 -0.5205
 3570TIP3    H232126   5.487   4.851   5.362 -0.5285  0.2466  0.7035
 3571TIP3   OH232127   3.352   5.830  14.866 -0.4119  0.2765 -0.4119
 3571TIP3    H132128   3.325   5.781  14.788 -0.3529  0.1412 -0.3478
 3571TIP3    H232129   3.448   5.825  14.866 -0.4134  0.2488 -0.3124
 3572TIP3   OH232130   4.924   2.994   5.863  0.2756  0.0693  0.1705
 3572TIP3    H132131   4.915   2.951   5.779 -2.0781 -0.6268  0.6902
 3572TIP3    H232132   4.963   2.928   5.921 -1.1547 -0.6133  0.3916
 3573TIP3   OH232133   2.798   2.438  13.012 -0.7875  0.4195  0.2076
 3573TIP3    H132134   2.752   2.372  12.960  0.5427  0.4216 -1.0171
 3573TIP3    H232135   2.877   2.457  12.963 -0.4833  1.9563  1.2233
 3574TIP3   OH232136   5.117   5.812   0.356  0.0454  0.0971 -0.2852
 3574TIP3    H132137   5.090   5.733   0.308 -2.2782 -0.4882  1.7754
 3574TIP3    H232138   5.190   5.785   0.410  0.8339  0.0333 -1.3540
 3575TIP3   OH232139   4.088   0.725   5.377 -0.7034  0.2197 -0.2323
 3575TIP3    H132140   4.158   0.777   5.416  0.6145 -2.2794  0.9558
 3575TIP3    H232141   4.084   0.754   5.286  0.8285  1.4863  0.0792
 3576TIP3   OH232142   0.571   1.266   5.242  0.7184  0.3350  0.0930
 3576TIP3    H132143   0.589   1.184   5.287 -2.0547 -0.6717 -0.4191
 3576TIP3    H232144   0.518   1.241   5.167 -1.0942  2.6303  0.4823
 3577TIP3   OH232145   0.594   1.075  10.573 -0.4816 -0.4143  0.0351
 3577TIP3    H132146   0.689   1.075  10.588 -0.4005  0.2878 -0.4267
 3577TIP3    H232147   0.578   1.156  10.525 -1.6189  0.5868  1.9752
 3578TIP3   OH232148   1.257   5.871  16.417 -0.1119 -0.1125 -0.2562
 3578TIP3    H132149   1.174   5.849  16.374 -0.2932  1.3161 -0.6579
 3578TIP3    H232150   1.324   5.835  16.359 -0.3325  2.0955 -2.0062
 3579TIP3   OH232151   1.244   3.370  15.239  0.4173 -0.7495  0.1447
 3579TIP3    H132152   1.215   3.450  15.282  0.5479 -0.0942 -0.9304
 3579TIP3    H232153   1.334   3.390  15.210 -0.3866 -0.3204 -2.3165
 3580TIP3   OH232154   6.267   3.109  15.610 -0.2091 -0.2455  0.3125
 3580TIP3    H132155   6.322   3.125  15.687 -2.2812  3.3341  1.3225
 3580TIP3    H232156   6.308   3.161  15.541 -0.5554 -0.1646  0.1668
 3581TIP3   OH232157   5.934   0.181  14.132  0.3138 -0.0284 -0.3923
 3581TIP3    H132158   5.853   0.146  14.168  0.9039  2.0548  3.4988
 3581TIP3    H232159   5.906   0.245  14.067 -0.8922 -2.4943 -2.4764
 3582TIP3   OH232160   5.052   4.239  13.296 -0.1427 -0.4673 -0.3516
 3582TIP3    H132161   5.122   4.202  13.242  1.0868  1.8156 -0.4222
 3582TIP3    H232162   5.059   4.191  13.379  0.8806 -0.9412 -0.6965
 3583TIP3   OH232163   3.461   5.958  15.941 -1.1042  0.1584 -0.3612
 3583TIP3    H132164   3.375   5.917  15.930 -0.3021 -1.4983 -0.7541
 3583TIP3    H232165   3.524   5.889  15.921  0.3447  1.6912 -1.4353
 3584TIP3   OH232166   6.086   1.244  16.724 -0.0277  0.2359  0.0950
 3584TIP3    H132167   6.021   1.215  16.788  0.2144  0.5401  0.4801
 3584TIP3    H232168   6.080   1.340  16.725 -1.6964  0.2321 -2.0631
 3585TIP3   OH232169   0.608   3.312   0.574  0.4560  0.0072 -0.7231
 3585TIP3    H132170   0.634   3.404   0.569 -0.2129  0.2118 -0.5169
 3585TIP3    H232171   0.605   3.282   0.483  0.3840  0.2698 -0.8056
 3586TIP3   OH232172   5.354   0.816   5.395 -0.0146  0.5277  0.4388
 3586TIP3    H132173   5.332   0.724   5.384  1.0711 -0.0474  2.5206
 3586TIP3    H232174   5.311   0.842   5.476  1.3094  1.2568  0.9533
 3587TIP3   OH232175   0.639   6.663   2.696  0.2012 -0.1081 -0.1597
 3587TIP3    H132176   0.593   6.598   2.749  1.1984  1.0044  2.2162
 3587TIP3    H232177   0.616   6.747   2.735  2.8650  0.5969  0.0835
 3588TIP3   OH232178   3.131   6.376  14.222 -0.1114 -0.2663 -0.1118
 3588TIP3    H132179   3.107   6.468  14.227 -0.9438 -0.5357  1.3067
 3588TIP3    H232180   3.121   6.353  14.130  2.9035  1.7569 -1.0887
 3589TIP3   OH232181   4.634   0.744   2.390  0.1515 -0.1459  0.1813
 3589TIP3    H132182   4.668   0.676   2.449  1.7569  0.1006 -0.4090
 3589TIP3    H232183   4.562   0.701   2.343  0.7470 -1.2560  0.2573
 3590TIP3   OH232184   0.450   0.311   5.600  0.4586 -0.0510 -0.7420
 3590TIP3    H132185   0.418   0.379   5.660  2.5970  1.0654 -0.7461
 3590TIP3    H232186   0.451   0.231   5.653  0.4302  0.4938  0.1042
 3591TIP3   OH232187   3.951   4.631   4.902 -0.3311  0.1839  0.1089
 3591TIP3    H132188   4.014   4.582   4.850 -2.4169 -1.2560 -1.2585
 3591TIP3    H232189   3.916   4.697   4.843 -0.3679  0.7234  0.7218
 3592TIP3   OH232190   0.360   2.630  17.127 -0.5689 -0.4259  0.7674
 3592TIP3    H132191   0.331   2.581  17.203 -0.9080 -2.0116 -0.3261
 3592TIP3    H232192   0.437   2.583  17.096 -1.3176 -0.7239 -0.7323
 3593TIP3   OH232193   3.805   4.416   0.393 -0.3783  0.1782  0.0828
 3593TIP3    H132194   3.733   4.475   0.416 -0.7117 -0.2740  0.2149
 3593TIP3    H232195   3.875   4.437   0.455 -0.7628 -0.0670  0.6057
 3594TIP3   OH232196   5.860   4.792  12.746 -0.0288  0.1203 -0.0629
 3594TIP3    H132197   5.899   4.708  12.724  1.7607  0.6856  0.7433
 3594TIP3    H232198   5.806   4.775  12.823  0.1069 -0.3428 -0.0702
 3595TIP3   OH232199   0.535   1.596   1.678 -0.1870 -0.2298 -0.5243
 3595TIP3    H132200   0.566   1.506   1.670  0.0387 -0.0090 -3.5759
 3595TIP3    H232201   0.441   1.590   1.660 -0.2035  0.0938 -0.5497
 3596TIP3   OH232202   0.475   0.833  15.957 -0.2707 -0.5930  0.3103
 3596TIP3    H132203   0.430   0.900  16.010 -2.2519 -0.4066 -1.4673
 3596TIP3    H232204   0.494   0.877  15.874 -2.6764 -2.4483 -1.3590
 3597TIP3   OH232205   5.133   2.791  13.632 -0.2587 -1.1521 -0.3457
 3597TIP3    H132206   5.100   2.783  13.543 -2.4925  1.3559  0.1047
 3597TIP3    H232207   5.190   2.868  13.629  0.0642 -1.3570  0.3020
 3598TIP3   OH232208   0.210   4.151   2.095 -0.2041 -0.3622 -0.1623
 3598TIP3    H132209   0.155   4.106   2.030  0.3230  0.0578 -0.9095
 3598TIP3    H232210   0.184   4.112   2.178 -2.1081  0.2579 -0.3957
 3599TIP3   OH232211   1.689   0.108   5.802 -0.2812 -0.2188  0.1512
 3599TIP3    H132212   1.749   0.151   5.741  1.1726 -1.9142  0.3277
 3599TIP3    H232213   1.611   0.164   5.801  1.4743  2.4249  0.3914
 3600TIP3   OH232214   3.370   5.619  15.054  0.1480  0.1686  0.2015
 3600TIP3    H132215   3.350   5.699  15.006 -0.7883 -0.3694 -0.3425
 3600TIP3    H232216   3.415   5.563  14.990 -1.2692 -0.6239 -0.1512
 3601TIP3   OH232217   4.574   6.037  11.005 -0.0230  0.2391 -0.3704
 3601TIP3    H132218   4.542   5.971  10.943  1.6817  0.7817 -1.8918
 3601TIP3    H232219   4.539   6.120  10.971 -1.9050  0.2370  1.3642
 3602TIP3   OH232220   0.648   3.296  12.907  0.9924 -0.2206  0.3948
 3602TIP3    H132221   0.569   3.291  12.962 -0.5082  0.9077 -1.5203
 3602TIP3    H232222   0.697   3.370  12.943 -0.7198  1.4866 -0.5895
 3603TIP3   OH232223   4.927   3.702  11.360  0.4946  0.0051  0.3448
 3603TIP3    H132224   4.893   3.636  11.420 -0.9472  0.2369 -0.1830
 3603TIP3    H232225   4.990   3.655  11.306 -0.0183 -0.7945  0.4204
 3604TIP3   OH232226   4.645   2.432   6.160 -0.0772 -0.0741 -0.3083
 3604TIP3    H132227   4.681   2.507   6.207  0.4262 -1.1471  1.0792
 3604TIP3    H232228   4.697   2.427   6.080  0.4166  0.5761 -0.0384
 3605TIP3   OH232229   4.485   3.576  11.740  0.3485  0.4037  0.0565
 3605TIP3    H132230   4.558   3.637  11.735  1.5872 -1.1325 -1.8815
 3605TIP3    H232231   4.436   3.590  11.659  1.1515 -1.6817 -0.8615
 3606TIP3   OH232232   6.257   2.316  11.978 -0.2304  0.3076  0.2924
 3606TIP3    H132233   6.257   2.249  11.911 -0.3847 -1.0672  1.6146
 3606TIP3    H232234   6.223   2.394  11.935  0.7914 -0.1983 -1.5135
 3607TIP3   OH232235   4.021   4.914  12.420 -0.6066 -0.2104  0.1571
 3607TIP3    H132236   4.029   4.821  12.396 -0.5574 -0.0886 -0.3110
 3607TIP3    H232237   4.078   4.924  12.495 -0.7656 -0.6060  0.3371
 3608TIP3   OH232238   2.606   0.327  13.733 -0.2713 -0.0517 -0.5061
 3608TIP3    H132239   2.637   0.319  13.823 -2.8127 -0.1851  0.4406
 3608TIP3    H232240   2.631   0.244  13.691  0.0335 -0.4235  0.3899
 3609TIP3   OH232241   1.194   1.230   3.975 -0.1003  0.2450  0.1077
 3609TIP3    H132242   1.197   1.168   3.902 -0.3454 -0.6377  0.8268
 3609TIP3    H232243   1.263   1.293   3.956  1.1961 -1.1170  0.1038
 3610TIP3   OH232244   1.191   4.291  15.128  0.7250  0.4529  0.5307
 3610TIP3    H132245   1.209   4.347  15.053 -1.3255  1.3274  0.6319
 3610TIP3    H232246   1.258   4.315  15.193 -0.0898  2.8475  0.5749
 3611TIP3   OH232247   0.950   5.358   0.215 -0.0358 -0.2025 -0.0914
 3611TIP3    H132248   0.969   5.430   0.155 -0.6639  1.0825  1.1850
 3611TIP3    H232249   0.901   5.399   0.286  0.5769 -1.6907  1.2376
 3612TIP3   OH232250   5.167   0.243   1.786 -0.4918 -0.3881  0.0889
 3612TIP3    H132251   5.204   0.174   1.731 -0.7212  1.1483 -2.1178
 3612TIP3    H232252   5.215   0.237   1.868  0.9425 -1.8365 -0.8112
 3613TIP3   OH232253   2.002   0.895   1.560 -0.6860 -0.2303  0.1729
 3613TIP3    H132254   1.964   0.939   1.484 -0.3039 -0.2206 -0.0121
 3613TIP3    H232255   1.934   0.901   1.628 -1.0019 -0.1834 -0.1459
 3614TIP3   OH232256   2.901   4.291  16.826  0.4374 -0.2815  0.5163
 3614TIP3    H132257   2.919   4.198  16.810 -2.5003 -1.0783  1.1598
 3614TIP3    H232258   2.949   4.311  16.906 -0.0430 -1.7210  1.2074
 3615TIP3   OH232259   1.701   4.728  15.467  0.0260 -0.3239  0.4484
 3615TIP3    H132260   1.796   4.737  15.467  0.0563 -0.5164 -1.0454
 3615TIP3    H232261   1.670   4.808  15.510  0.8586 -0.3772  1.1763
 3616TIP3   OH232262   2.239   4.576   1.723  0.3854  0.6750 -0.6833
 3616TIP3    H132263   2.186   4.623   1.659  0.9668 -0.4712 -2.0634
 3616TIP3    H232264   2.269   4.498   1.676  0.8910 -0.1678  0.9796
 3617TIP3   OH232265   5.686   5.890   6.106  0.0415  0.2538  0.4200
 3617TIP3    H132266   5.605   5.842   6.090 -1.1435  2.0964  0.5482
 3617TIP3    H232267   5.680   5.966   6.048  0.5067  1.6763  2.1455
 3618TIP3   OH232268   0.267   3.617   1.888  1.0402 -0.3005  0.0616
 3618TIP3    H132269   0.272   3.593   1.981  0.1338  0.6040  0.3617
 3618TIP3    H232270   0.175   3.604   1.865  1.3687 -1.0633 -0.8817
 3619TIP3   OH232271   5.936   5.428   2.328 -0.3996  0.6693  0.8345
 3619TIP3    H132272   5.917   5.521   2.332  1.0789  0.9574  1.9682
 3619TIP3    H232273   6.024   5.419   2.365  0.1879 -0.9816 -0.7978
 3620TIP3   OH232274   2.556   1.357  15.254  0.7318 -0.0786 -0.3940
 3620TIP3    H132275   2.485   1.324  15.200  1.4482 -1.7932 -0.3476
 3620TIP3    H232276   2.515   1.381  15.337  0.1376 -0.6931 -0.5049
 3621TIP3   OH232277   2.699   0.111  16.327  0.1741  0.4268 -0.0484
 3621TIP3    H132278   2.696   0.031  16.275  0.2784  0.2695  0.1844
 3621TIP3    H232279   2.619   0.158  16.304  1.0541  1.1988 -1.6651
 3622TIP3   OH232280   0.144   3.549   5.317 -0.1166 -0.2793  0.7491
 3622TIP3    H132281   0.097   3.467   5.300  0.8015 -0.5372 -0.7076
 3622TIP3    H232282   0.085   3.617   5.284  1.4787 -0.7413 -3.7185
 3623TIP3   OH232283   6.413   4.436  11.830  0.7014 -0.4497 -0.1386
 3623TIP3    H132284   6.326   4.404  11.853  1.6183 -1.5241  2.2467
 3623TIP3    H232285   6.450   4.368  11.773  0.3572 -0.5041 -0.2964
 3624TIP3   OH232286   2.570   5.766   2.742  0.6945  0.3633  0.1684
 3624TIP3    H132287   2.570   5.810   2.657 -1.8423 -0.8195 -0.5268
 3624TIP3    H232288   2.535   5.679   2.725  0.4460 -0.0306  2.3856
 3625TIP3   OH232289   4.009   2.444   3.982  0.6602 -0.1263 -0.0677
 3625TIP3    H132290   4.028   2.361   3.937  3.2429 -0.0157  0.6465
 3625TIP3    H232291   4.050   2.434   4.068 -0.5517  1.2548  0.7175
 3626TIP3   OH232292   6.269   1.627  14.863 -0.7830 -0.0958 -0.0406
 3626TIP3    H132293   6.317   1.705  14.836 -0.6204 -0.2817 -0.2997
 3626TIP3    H232294   6.336   1.558  14.866 -1.0971 -0.4428 -0.7792
 3627TIP3   OH232295   6.258   1.567  11.340  0.1378  0.0657 -0.1212
 3627TIP3    H132296   6.290   1.576  11.250  1.4976 -2.2127  0.0471
 3627TIP3    H232297   6.205   1.487  11.339  1.4573 -0.8965  1.3680
 3628TIP3   OH232298   2.694   3.770   3.249 -0.1068  0.2768 -0.3221
 3628TIP3    H132299   2.708   3.840   3.312  1.9266  0.0221 -0.4063
 3628TIP3    H232300   2.749   3.794   3.174 -1.6682  0.0500 -1.6011
 3629TIP3   OH232301   2.402   4.656   2.466  0.0099 -0.7270  0.2472
 3629TIP3    H132302   2.398   4.572   2.513  2.8865 -1.2698 -0.2351
 3629TIP3    H232303   2.387   4.633   2.375  0.4942 -0.6781  0.1528
 3630TIP3   OH232304   2.423   0.638   5.115  0.0542  0.2112 -0.0864
 3630TIP3    H132305   2.474   0.610   5.190  0.6154  2.5014  0.4623
 3630TIP3    H232306   2.487   0.649   5.045 -0.5020 -2.1993 -1.0718
 3631TIP3   OH232307   4.991   6.594  17.033  0.0611  0.4280 -0.2071
 3631TIP3    H132308   4.921   6.537  17.002 -2.2495  1.2626  2.9551
 3631TIP3    H232309   4.954   6.682  17.030  0.7359  0.8444  1.9357
 3632TIP3   OH232310   4.094   4.957  13.175  0.0601 -0.4598  0.5201
 3632TIP3    H132311   4.147   5.028  13.210 -1.8812  0.5186  1.6377
 3632TIP3    H232312   4.098   4.968  13.080 -0.3888  1.3157  0.6777
 3633TIP3   OH232313   6.261   5.985   1.132 -0.1135  0.3029  0.0859
 3633TIP3    H132314   6.309   6.013   1.054 -1.4928  1.1387 -0.5070
 3633TIP3    H232315   6.260   5.889   1.126 -0.6266  0.3698 -1.2005
 3634TIP3   OH232316   3.604   4.196   0.272 -0.0476  0.0622 -0.2467
 3634TIP3    H132317   3.676   4.244   0.314  1.8785 -2.2525 -0.6806
 3634TIP3    H232318   3.640   4.168   0.188 -2.1448  0.4134 -1.3168
 3635TIP3   OH232319   2.436   5.534   3.543  0.1966  0.0851 -0.3672
 3635TIP3    H132320   2.419   5.543   3.449 -1.2394  0.2026 -0.1171
 3635TIP3    H232321   2.505   5.468   3.548 -0.0119 -0.2443 -1.4975
 3636TIP3   OH232322   4.865   4.504  14.179 -0.2966 -0.2090 -0.4844
 3636TIP3    H132323   4.885   4.596  14.199 -1.4396 -0.1847  0.6547
 3636TIP3    H232324   4.772   4.494  14.202 -0.3906 -1.4582 -1.3254
 3637TIP3   OH232325   5.095   2.906   3.320  0.4424  0.5515 -0.7950
 3637TIP3    H132326   5.007   2.882   3.290  0.0548  1.8023 -0.7283
 3637TIP3    H232327   5.114   2.987   3.274  0.3392  1.8830  1.3644
 3638TIP3   OH232328   6.212   5.710   1.192 -0.1016  0.1731  0.6816
 3638TIP3    H132329   6.305   5.692   1.206 -0.3932 -2.5332 -0.2758
 3638TIP3    H232330   6.166   5.647   1.246 -1.3369 -0.1647 -0.6877
 3639TIP3   OH232331   6.047   0.306   6.030  0.5618 -0.3679 -0.3161
 3639TIP3    H132332   6.039   0.296   6.125  0.2231 -1.3898 -0.4364
 3639TIP3    H232333   6.138   0.282   6.011  0.1122 -2.1056 -0.4478
 3640TIP3   OH232334   4.649   2.775   5.386 -0.0830  0.7460  0.4100
 3640TIP3    H132335   4.607   2.713   5.445 -0.0916 -0.8611 -1.1807
 3640TIP3    H232336   4.727   2.729   5.355  0.0611  1.6368 -0.6181
 3641TIP3   OH232337   1.165   4.551  12.166 -0.5342 -0.0010 -0.9575
 3641TIP3    H132338   1.238   4.543  12.227 -0.2607 -0.6842 -1.3653
 3641TIP3    H232339   1.205   4.546  12.080 -0.6028  3.2869 -1.3064
 3642TIP3   OH232340   4.141   1.279   5.160  0.1415 -0.1820 -0.0348
 3642TIP3    H132341   4.227   1.312   5.185 -0.3473  0.8727  0.2969
 3642TIP3    H232342   4.108   1.237   5.239 -0.9100  2.1219  0.8402
 3643TIP3   OH232343   4.599   2.060  14.817 -0.0043  0.4150 -0.4548
 3643TIP3    H132344   4.658   2.135  14.823  0.9047 -0.3549  1.0284
 3643TIP3    H232345   4.516   2.096  14.786  0.8528  1.7537 -1.2611
 3644TIP3   OH232346   1.318   2.628   0.492  0.2591 -0.4031  0.1666
 3644TIP3    H132347   1.320   2.599   0.400  0.5472  2.1143 -0.6853
 3644TIP3    H232348   1.405   2.665   0.507 -1.2296  3.8031 -0.2457
 3645TIP3   OH232349   3.367   4.539  14.227 -0.1597  0.0005 -0.3876
 3645TIP3    H132350   3.282   4.527  14.186 -0.3973 -0.3462  0.1991
 3645TIP3    H232351   3.358   4.501  14.314  0.2858  0.8752  0.0563
 3646TIP3   OH232352   4.533   2.153  15.606 -0.0313 -0.4449 -0.2343
 3646TIP3    H132353   4.535   2.080  15.668  0.6899  0.2071  0.5211
 3646TIP3    H232354   4.454   2.137  15.554  0.0895 -1.7414 -0.0655
 3647TIP3   OH232355   4.938   2.826  10.989  0.4113  0.5790 -0.0615
 3647TIP3    H132356   4.934   2.780  10.905 -0.3952  2.2454 -0.9912
 3647TIP3    H232357   4.848   2.828  11.020  0.4209  1.4985 -0.0554
 3648TIP3   OH232358   0.211   6.395   0.013 -0.1123 -0.0611  0.3905
 3648TIP3    H132359   0.124   6.397  -0.027  0.4046 -1.0654 -0.8499
 3648TIP3    H232360   0.258   6.328  -0.036  0.7813 -0.8612  2.2517
 3649TIP3   OH232361   4.293   2.298  12.662  0.5218 -0.0308  0.7551
 3649TIP3    H132362   4.278   2.387  12.632  1.9626  0.0282  0.0982
 3649TIP3    H232363   4.207   2.267  12.691 -0.0682  1.4240  0.6288
 3650TIP3   OH232364   4.452   1.928  11.150  0.1848 -0.0793  0.1958
 3650TIP3    H132365   4.534   1.926  11.199 -0.1146 -0.0951  0.7002
 3650TIP3    H232366   4.388   1.967  11.210  0.1564  1.3426 -0.7027
 3651TIP3   OH232367   0.371   4.055  13.107 -0.4289  0.5486 -0.4995
 3651TIP3    H132368   0.305   4.105  13.157  0.6420 -0.2597  1.8798
 3651TIP3    H232369   0.324   3.978  13.076 -1.0658  0.9242 -0.4865
 3652TIP3   OH232370   2.385   1.214  14.172 -0.2319 -0.1682 -0.0905
 3652TIP3    H132371   2.374   1.187  14.081  0.7857 -1.9220  0.2621
 3652TIP3    H232372   2.458   1.276  14.170 -0.0915 -0.3399 -0.4527
 3653TIP3   OH232373   3.734   4.168   2.374 -0.3215 -0.0882 -0.0044
 3653TIP3    H132374   3.696   4.085   2.401  3.0499 -0.6226  4.3246
 3653TIP3    H232375   3.801   4.144   2.310  0.2335 -0.7504  0.7925
 3654TIP3   OH232376   3.716   2.611   1.391  0.2545 -0.2077  0.0166
 3654TIP3    H132377   3.661   2.597   1.468  0.6971  1.6168  0.7257
 3654TIP3    H232378   3.719   2.526   1.347 -2.5990 -0.5354  0.2861
 3655TIP3   OH232379   5.576   4.171   0.085  0.1591 -0.2042 -0.2175
 3655TIP3    H132380   5.555   4.203   0.172  1.1693 -0.4075  0.1210
 3655TIP3    H232381   5.638   4.099   0.100  0.3926 -0.2027 -1.0967
 3656TIP3   OH232382   1.669   5.452  12.083 -0.4034 -0.1262 -0.5333
 3656TIP3    H132383   1.723   5.486  12.012 -1.0248  1.7832 -0.1440
 3656TIP3    H232384   1.725   5.389  12.128  0.8492  0.4561 -1.2384
 3657TIP3   OH232385   4.220   1.545  15.545  0.0527  0.0519 -0.3755
 3657TIP3    H132386   4.161   1.534  15.471 -0.2288  1.7669 -0.4474
 3657TIP3    H232387   4.296   1.590  15.508  0.3336  0.0519  0.1910
 3658TIP3   OH232388   4.960   5.302  10.880  0.0558  0.5783 -0.3380
 3658TIP3    H132389   5.043   5.254  10.882 -0.4983 -0.3691  1.4014
 3658TIP3    H232390   4.893   5.236  10.900 -0.8914  1.7610  0.5222
 3659TIP3   OH232391   6.061   2.411   2.402  0.4788  0.1140 -0.1332
 3659TIP3    H132392   6.053   2.487   2.345 -0.5332  0.3180  0.2584
 3659TIP3    H232393   6.136   2.430   2.458  1.9513 -0.4022 -1.8303
 3660TIP3   OH232394   2.674   3.680   0.967 -0.8595 -0.0788  0.4356
 3660TIP3    H132395   2.636   3.659   1.052 -1.1539 -1.3778  0.0126
 3660TIP3    H232396   2.705   3.596   0.933  2.1933  0.8587  0.6146
 3661TIP3   OH232397   5.947   5.522  12.125  0.1644 -0.2073  0.2640
 3661TIP3    H132398   5.943   5.615  12.100 -1.8432 -0.0821  0.9279
 3661TIP3    H232399   5.870   5.483  12.086 -0.3900 -1.0429  2.0936
 3662TIP3   OH232400   3.678   0.398   4.062  0.8414  0.3666 -0.6649
 3662TIP3    H132401   3.762   0.354   4.053  0.7667  0.6032 -4.1123
 3662TIP3    H232402   3.621   0.354   3.999 -1.9988 -0.3630  2.1405
 3663TIP3   OH232403   0.874   3.996  16.233 -0.2893  0.5454  0.1031
 3663TIP3    H132404   0.823   3.920  16.262  0.4110 -0.1204 -0.3758
 3663TIP3    H232405   0.899   3.975  16.143 -1.4998  2.1021 -0.6475
 3664TIP3   OH232406   0.912   5.196   4.936 -0.8341 -0.3793  0.1692
 3664TIP3    H132407   0.975   5.264   4.959 -2.3875  1.5007 -0.8137
 3664TIP3    H232408   0.934   5.122   4.992  0.0495  1.4201  2.3243
 3665TIP3   OH232409   5.865   5.592  17.023 -0.4116  0.9056  0.1091
 3665TIP3    H132410   5.850   5.574  17.116  1.3018 -2.3304 -0.0991
 3665TIP3    H232411   5.945   5.644  17.020 -0.2978  0.7466  0.4347
 3666TIP3   OH232412   4.038   3.600  11.820  0.2897 -0.4122 -0.1869
 3666TIP3    H132413   4.072   3.619  11.733  1.2072  1.2156  0.4981
 3666TIP3    H232414   4.116   3.587  11.874 -0.2701 -1.3686  0.4256
 3667TIP3   OH232415   0.488   4.180  11.615 -0.4926  0.5767 -0.1781
 3667TIP3    H132416   0.528   4.263  11.642  0.2206  0.7282 -1.6057
 3667TIP3    H232417   0.456   4.196  11.526 -2.5878  0.0413  0.4149
 3668TIP3   OH232418   4.772   2.004   2.791 -0.2701 -0.3821 -0.2462
 3668TIP3    H132419   4.694   1.982   2.740  0.5896 -1.5716 -1.1073
 3668TIP3    H232420   4.800   2.088   2.756 -0.8338 -0.2206 -0.3287
 3669TIP3   OH232421   1.926   1.906  14.553  0.1088 -0.0508  0.0055
 3669TIP3    H132422   1.952   1.844  14.486 -2.1065 -2.2922  1.0405
 3669TIP3    H232423   1.891   1.852  14.624 -1.4553  2.3315  1.2175
 3670TIP3   OH232424   1.422   6.584   4.405  0.3628  0.4372  0.0202
 3670TIP3    H132425   1.406   6.604   4.313  1.3730 -2.7979 -0.9738
 3670TIP3    H232426   1.517   6.581   4.413  0.3491  2.3678  1.6565
 3671TIP3   OH232427   3.469   5.873  16.983  0.2994  0.0306 -0.3748
 3671TIP3    H132428   3.541   5.840  16.929  2.1203  1.2878  1.1295
 3671TIP3    H232429   3.414   5.923  16.923  0.1242 -1.7238 -1.7455
 3672TIP3   OH232430   3.129   0.369  15.532  0.5686  0.0130  0.2175
 3672TIP3    H132431   3.125   0.442  15.594  1.1755  0.8961 -0.7586
 3672TIP3    H232432   3.222   0.353  15.520  0.4622 -2.2109  1.8548
 3673TIP3   OH232433   4.010   0.277  13.635 -0.1951 -0.0433  0.1312
 3673TIP3    H132434   4.028   0.214  13.565  2.5164 -0.7700  1.3645
 3673TIP3    H232435   4.042   0.360  13.601 -0.7773  0.0389 -0.2403
 3674TIP3   OH232436   0.577   1.056   4.291 -0.1076 -0.2953 -0.4893
 3674TIP3    H132437   0.575   0.963   4.312 -0.9490 -0.5054 -1.4566
 3674TIP3    H232438   0.623   1.096   4.366  0.0065 -1.4337  0.0711
 3675TIP3   OH232439   4.315   6.653  16.197 -0.1951  0.1615  0.0799
 3675TIP3    H132440   4.239   6.627  16.144 -1.8682  1.7238  1.6124
 3675TIP3    H232441   4.330   6.578  16.256  1.0137 -1.1345 -1.7414
 3676TIP3   OH232442   4.432   6.221  15.376 -0.0835  0.7607 -0.4880
 3676TIP3    H132443   4.493   6.295  15.384  0.7058  0.0825 -0.1254
 3676TIP3    H232444   4.449   6.185  15.289 -0.4906  1.0052 -0.6772
 3677TIP3   OH232445   4.326   5.793   2.924 -0.2570  0.1137  0.0678
 3677TIP3    H132446   4.268   5.850   2.975  0.4831 -0.2571  1.3674
 3677TIP3    H232447   4.384   5.853   2.877  1.1307  0.5078  2.1438
 3678TIP3   OH232448   6.613   4.542   6.172 -0.0356 -0.4118  0.0190
 3678TIP3    H132449   6.702   4.569   6.197  0.1701  0.1549 -1.2525
 3678TIP3    H232450   6.592   4.471   6.233  0.6701  0.4860  1.3544
 3679TIP3   OH232451   3.011   1.577   3.844  0.0857 -0.1089 -0.2525
 3679TIP3    H132452   3.031   1.663   3.881 -0.2986  0.0839 -0.4937
 3679TIP3    H232453   3.083   1.521   3.874 -0.3903 -0.0446  1.0754
 3680TIP3   OH232454   1.888   3.645  14.489  0.2326  0.0940 -0.1088
 3680TIP3    H132455   1.901   3.725  14.439 -1.0296  0.9486  0.8623
 3680TIP3    H232456   1.910   3.574  14.428  2.9914  1.1747 -0.4897
 3681TIP3   OH232457   3.037   5.705   2.485  0.4215  0.2038  0.0714
 3681TIP3    H132458   3.067   5.785   2.530  1.2209 -0.1093  0.1098
 3681TIP3    H232459   3.099   5.693   2.413  0.4355 -0.4951  0.1915
 3682TIP3   OH232460   3.692   0.868  11.593 -0.0426  0.3809 -0.3484
 3682TIP3    H132461   3.678   0.843  11.502 -3.0835 -3.5318  0.8943
 3682TIP3    H232462   3.616   0.922  11.615  0.5080  1.0372 -0.0132
 3683TIP3   OH232463   1.886   2.174  13.669  0.1313  0.1418  0.0879
 3683TIP3    H132464   1.967   2.173  13.720 -0.5653 -0.1481  1.2159
 3683TIP3    H232465   1.855   2.265  13.674  0.6453  0.3813 -0.7978
 3684TIP3   OH232466   1.955   2.426  13.244 -0.1553 -0.3678 -0.0400
 3684TIP3    H132467   1.946   2.330  13.250  2.2047 -0.6084  0.3363
 3684TIP3    H232468   1.996   2.451  13.326 -0.5387  0.9637 -0.2423
 3685TIP3   OH232469   0.669   4.385   4.228  0.2983  0.2785  0.0578
 3685TIP3    H132470   0.730   4.327   4.182  2.0544  0.8685  1.5312
 3685TIP3    H232471   0.609   4.326   4.272  0.4255 -0.3498 -0.5916
 3686TIP3   OH232472   5.848   4.884  11.950 -0.2331 -0.1253 -0.5526
 3686TIP3    H132473   5.922   4.836  11.914  0.3231  0.2968  0.0198
 3686TIP3    H232474   5.780   4.876  11.883  0.1762 -0.8845 -0.8884
 3687TIP3   OH232475   3.229   4.174   2.940  0.3549  0.2977 -0.8641
 3687TIP3    H132476   3.216   4.269   2.942 -1.9761  0.0321 -0.9883
 3687TIP3    H232477   3.251   4.151   3.030 -1.5970  0.6825 -0.2542
 3688TIP3   OH232478   6.499   0.291  14.850 -0.1265 -0.4799 -0.5228
 3688TIP3    H132479   6.576   0.292  14.792  0.3877 -0.9910  0.1473
 3688TIP3    H232480   6.474   0.384  14.857  2.4667  0.1736  1.8990
 3689TIP3   OH232481   2.957   6.508  15.073 -0.3807 -0.3058  0.0145
 3689TIP3    H132482   2.894   6.517  15.145 -0.4718  0.0075 -0.1024
 3689TIP3    H232483   2.913   6.547  14.997 -0.1905 -0.4181 -0.1550
 3690TIP3   OH232484   3.378   1.416  14.941  0.1912 -0.1416 -0.6460
 3690TIP3    H132485   3.318   1.364  14.887 -1.6346  0.8916  0.3124
 3690TIP3    H232486   3.386   1.366  15.022 -1.9816  1.2306  0.4829
 3691TIP3   OH232487   4.521   6.301  16.517 -0.3846  0.2563 -0.4727
 3691TIP3    H132488   4.578   6.335  16.448 -0.6929  3.7282  0.7563
 3691TIP3    H232489   4.433   6.310  16.481 -0.4039 -1.7979 -1.0585
 3692TIP3   OH232490   2.558   4.775   6.073 -1.1143 -0.0891  0.4682
 3692TIP3    H132491   2.463   4.787   6.072 -1.3541 -1.0000  3.0919
 3692TIP3    H232492   2.579   4.764   6.166  1.5201 -0.3388 -0.0812
 3693TIP3   OH232493   2.145   1.027   3.052 -0.3628  0.0783 -0.0374
 3693TIP3    H132494   2.109   1.031   3.140 -0.9850 -0.4999 -0.2651
 3693TIP3    H232495   2.163   1.119   3.030 -0.7952  0.2817  0.4417
 3694TIP3   OH232496   3.793   2.557  16.504 -0.0069 -0.5187 -0.0160
 3694TIP3    H132497   3.881   2.588  16.523  0.3107 -0.2324 -1.7502
 3694TIP3    H232498   3.742   2.636  16.489 -0.1500 -0.7204 -0.6227
 3695TIP3   OH232499   2.033   0.115   0.810  0.0668  0.0373 -0.1746
 3695TIP3    H132500   1.986   0.048   0.761 -1.4448  0.2113  0.9704
 3695TIP3    H232501   2.005   0.198   0.772 -0.7373  0.1504  0.6220
 3696TIP3   OH232502   2.464   4.734  12.384 -0.4215  0.2433  0.0804
 3696TIP3    H132503   2.471   4.764  12.475  0.0647 -0.1971  0.1953
 3696TIP3    H232504   2.430   4.810  12.336 -0.0965  0.6759  0.5245
 3697TIP3   OH232505   3.071   2.716  14.511  0.2573 -0.6456 -0.1368
 3697TIP3    H132506   3.134   2.727  14.583 -2.0335 -1.7989  2.2055
 3697TIP3    H232507   3.017   2.795  14.515 -0.4739 -1.1502  0.0498
 3698TIP3   OH232508   0.133   2.543  12.186 -0.2407  0.0982 -0.1967
 3698TIP3    H132509   0.052   2.513  12.144 -0.1936 -0.1553 -0.1103
 3698TIP3    H232510   0.180   2.462  12.208  0.7467  0.2481 -1.6191
 3699TIP3   OH232511   1.812   6.016  13.927  0.0969 -0.1221 -0.0464
 3699TIP3    H132512   1.728   6.011  13.883  0.7258 -0.9391 -1.1954
 3699TIP3    H232513   1.792   6.052  14.013 -1.6157 -1.6486  0.2345
 3700TIP3   OH232514   5.398   2.912  11.591 -0.8534  0.4158  0.4509
 3700TIP3    H132515   5.324   2.881  11.642 -1.6321 -3.4286 -2.4864
 3700TIP3    H232516   5.475   2.871  11.631 -1.2229 -1.0550 -0.3003
 3701TIP3   OH232517   1.458   4.649  11.421 -0.5497  0.1528  0.2432
 3701TIP3    H132518   1.510   4.698  11.357 -0.4716  1.6525  1.3923
 3701TIP3    H232519   1.368   4.678  11.406 -0.3402  1.8020  1.8343
 3702TIP3   OH232520   1.214   2.665  14.063  0.0994  0.5807  0.3170
 3702TIP3    H132521   1.240   2.659  13.971  0.2318  1.5808  0.2738
 3702TIP3    H232522   1.120   2.681  14.061 -0.4613 -2.2261  0.4531
 3703TIP3   OH232523   2.439   3.407  13.914 -0.8603 -0.0308  0.1248
 3703TIP3    H132524   2.483   3.485  13.947  1.7329  0.0746 -3.0323
 3703TIP3    H232525   2.453   3.341  13.982  1.3054  0.9576  0.7269
 3704TIP3   OH232526   2.953   0.665  16.181  0.7268  0.2598  0.1050
 3704TIP3    H132527   2.915   0.744  16.219 -3.8235 -0.4033 -2.3496
 3704TIP3    H232528   2.947   0.599  16.251  1.9791  1.3481  1.2836
 3705TIP3   OH232529   5.059   5.475   1.216 -0.0404  0.4467 -0.1280
 3705TIP3    H132530   5.122   5.448   1.149  1.7718  1.7127  0.9646
 3705TIP3    H232531   4.979   5.428   1.193  1.9384 -3.3860 -0.1202
 3706TIP3   OH232532   1.415   2.077   1.672 -0.0970  0.2902  0.1252
 3706TIP3    H132533   1.484   2.137   1.642 -1.1290  1.8910  0.8132
 3706TIP3    H232534   1.443   2.052   1.760 -0.1375  0.5249  0.2052
 3707TIP3   OH232535   1.283   0.978  15.131  0.5364 -0.0864  0.2549
 3707TIP3    H132536   1.368   0.999  15.171 -0.6846  0.4988  2.7946
 3707TIP3    H232537   1.255   0.899  15.176 -1.4683  1.2887  1.5715
 3708TIP3   OH232538   1.526   0.011   2.196  0.0625 -0.0435 -0.3992
 3708TIP3    H132539   1.482   0.084   2.153 -0.1521  0.2905  0.3685
 3708TIP3    H232540   1.507  -0.065   2.141 -0.5828  0.2939 -0.6467
 3709TIP3   OH232541   3.550   6.326  17.000  0.0696  0.2412  0.2928
 3709TIP3    H132542   3.544   6.368  16.915 -3.2345 -1.0773 -0.2927
 3709TIP3    H232543   3.472   6.356  17.047 -0.5941 -2.4987  1.1015
 3710TIP3   OH232544   2.153   3.840  14.358 -0.1119 -0.3310 -0.1421
 3710TIP3    H132545   2.176   3.844  14.265 -1.3921 -0.0865 -0.4846
 3710TIP3    H232546   2.070   3.888  14.363 -0.3078 -0.7633  1.0521
 3711TIP3   OH232547   3.735   1.575   1.511  0.0899  0.2003  0.1744
 3711TIP3    H132548   3.690   1.635   1.452  0.5603  0.6760  0.2858
 3711TIP3    H232549   3.816   1.553   1.466  0.9349  1.3719  1.0569
 3712TIP3   OH232550   0.249   4.488  12.886 -0.3359 -0.2869  0.0187
 3712TIP3    H132551   0.334   4.481  12.929 -0.5073 -1.7193  0.1640
 3712TIP3    H232552   0.252   4.422  12.816 -1.4307 -0.5522  0.2022
 3713TIP3   OH232553   4.959   5.689   1.856  0.2972  0.1336 -0.2870
 3713TIP3    H132554   4.864   5.679   1.852  0.2184  0.0148  1.2386
 3713TIP3    H232555   4.993   5.605   1.827 -0.1036 -0.3000  0.4671
 3714TIP3   OH232556   3.796   6.490   5.556 -0.3163  0.3026 -0.5408
 3714TIP3    H132557   3.879   6.514   5.598 -0.5519  0.8402 -0.3826
 3714TIP3    H232558   3.740   6.461   5.628 -0.6562  1.0449 -0.5005
 3715TIP3   OH232559   5.623   5.445  14.571  0.4466 -0.2259  0.3118
 3715TIP3    H132560   5.590   5.504  14.503  0.6176 -0.5622 -0.0700
 3715TIP3    H232561   5.676   5.381  14.523  0.4131 -0.5789  0.7404
 3716TIP3   OH232562   4.181   5.151  12.334 -0.0469 -0.0529  0.4226
 3716TIP3    H132563   4.161   5.221  12.396 -1.0958  1.2828 -1.3153
 3716TIP3    H232564   4.120   5.081  12.355 -1.0974  0.7957  0.2709
 3717TIP3   OH232565   0.197   4.501   1.383 -0.2850 -0.2656 -0.0151
 3717TIP3    H132566   0.270   4.452   1.421  0.6896 -0.7809 -2.3784
 3717TIP3    H232567   0.153   4.437   1.326 -0.5303  0.9177 -1.1958
 3718TIP3   OH232568   3.880   4.617  14.417  0.2424  0.6077  0.4832
 3718TIP3    H132569   3.837   4.570  14.488  4.1314 -0.5818  2.3439
 3718TIP3    H232570   3.888   4.552  14.347  0.3986  0.3405  0.7471
 3719TIP3   OH232571   0.949   4.127  13.247  1.2743 -0.0538  0.5249
 3719TIP3    H132572   1.029   4.100  13.202 -0.7626 -2.7229 -1.8492
 3719TIP3    H232573   0.922   4.050  13.296 -0.9539 -0.0316 -0.5476
 3720TIP3   OH232574   4.930   0.168   1.186  0.0121  0.5746 -0.2001
 3720TIP3    H132575   4.998   0.235   1.192  0.6363 -0.0424 -0.2502
 3720TIP3    H232576   4.946   0.110   1.261 -0.3076  0.2825 -0.3517
 3721TIP3   OH232577   5.671   3.614   1.652  0.5362 -0.2152  0.3247
 3721TIP3    H132578   5.651   3.521   1.651  1.2590 -0.4445  2.3824
 3721TIP3    H232579   5.674   3.639   1.560  1.9095 -2.5795 -0.3564
 3722TIP3   OH232580   2.718   6.106  11.352  0.0235  0.3574  0.2586
 3722TIP3    H132581   2.708   6.063  11.437  0.4080 -1.4131 -0.5561
 3722TIP3    H232582   2.794   6.063  11.312 -0.5371  0.7176 -1.2550
 3723TIP3   OH232583   5.697   6.306   4.057 -1.2174  0.2384  0.2672
 3723TIP3    H132584   5.696   6.288   4.151  1.2822  0.5565  0.4234
 3723TIP3    H232585   5.736   6.228   4.018  0.2449  1.1317 -0.1617
 3724TIP3   OH232586   1.541   0.585   3.019  0.8885  0.2134  0.4717
 3724TIP3    H132587   1.574   0.642   2.949  2.2596 -0.7463  0.3078
 3724TIP3    H232588   1.604   0.595   3.089 -0.0058  0.4773  1.2669
 3725TIP3   OH232589   3.194   1.698  14.992 -0.0582  0.3606 -0.2413
 3725TIP3    H132590   3.234   1.670  14.909  0.1650  1.0666 -0.3826
 3725TIP3    H232591   3.262   1.683  15.058  0.0916  0.6258 -0.3303
 3726TIP3   OH232592   6.163   1.418   2.231 -0.0132  0.3885  0.2332
 3726TIP3    H132593   6.135   1.418   2.139  0.3780 -1.6777  0.0659
 3726TIP3    H232594   6.237   1.478   2.234 -1.5483  2.4080 -0.2537
 3727TIP3   OH232595   3.050   3.953   5.768  0.2172  0.2495  0.8338
 3727TIP3    H132596   2.976   3.921   5.819 -0.2642  0.3529  0.2214
 3727TIP3    H232597   3.101   4.006   5.829 -1.1648  1.6297  0.8338
 3728TIP3   OH232598   3.559   6.350   2.539  0.5111 -0.7635 -0.0368
 3728TIP3    H132599   3.506   6.399   2.601 -1.0090 -1.8237 -0.4384
 3728TIP3    H232600   3.535   6.259   2.553  2.8594 -1.3919  0.3150
 3729TIP3   OH232601   3.599   5.753   2.382 -0.5014 -0.0261  0.0919
 3729TIP3    H132602   3.515   5.711   2.362  0.8077 -2.6383 -0.3554
 3729TIP3    H232603   3.619   5.725   2.471  0.8817 -1.3188 -0.5740
 3730TIP3   OH232604   3.201   4.593  13.648  0.1105  0.3509 -0.2068
 3730TIP3    H132605   3.195   4.610  13.554 -1.5773 -1.2584 -0.4453
 3730TIP3    H232606   3.194   4.498  13.656  2.8152  0.1610  1.4282
 3731TIP3   OH232607   2.751   4.644   0.926 -0.1586  0.6266 -0.9138
 3731TIP3    H132608   2.668   4.622   0.968  0.5343 -1.0689 -0.3165
 3731TIP3    H232609   2.794   4.559   0.912  2.5817  1.5250  1.1525
 3732TIP3   OH232610   6.196   3.989  11.537 -0.5280  0.4289  0.4102
 3732TIP3    H132611   6.263   3.921  11.522 -0.7999  0.1147  0.6141
 3732TIP3    H232612   6.134   3.977  11.465 -0.9189  0.0403  0.8083
 3733TIP3   OH232613   3.277   3.492   0.745  0.3299 -0.3248 -0.2292
 3733TIP3    H132614   3.255   3.549   0.818  0.1571 -0.4323 -0.1960
 3733TIP3    H232615   3.372   3.485   0.747  0.3272 -0.3006 -0.0355
 3734TIP3   OH232616   1.942   0.974   0.824 -0.8670  0.6640  0.5369
 3734TIP3    H132617   1.912   1.042   0.764 -1.8484 -1.2431 -1.2656
 3734TIP3    H232618   1.869   0.961   0.884 -2.2418 -1.2606 -1.4156
 3735TIP3   OH232619   3.434   1.106  14.077 -0.0091  0.4953  0.6073
 3735TIP3    H132620   3.369   1.175  14.068  0.3888  0.8065  0.0595
 3735TIP3    H232621   3.487   1.132  14.152 -0.0212  0.6543  0.5619
 3736TIP3   OH232622   6.744   0.969  15.634 -0.4112  0.1010  0.2804
 3736TIP3    H132623   6.831   0.992  15.665 -0.9176  1.2183  0.9387
 3736TIP3    H232624   6.713   1.047  15.589 -0.8455 -0.4906 -0.4810
 3737TIP3   OH232625   5.566   6.058   5.524 -0.2511  0.1301  0.0650
 3737TIP3    H132626   5.546   6.088   5.435  1.2119  3.4063  0.6798
 3737TIP3    H232627   5.566   6.138   5.576  0.5685 -1.4773  2.7279
 3738TIP3   OH232628   4.788   1.071   3.508  1.0608 -0.1888  0.2622
 3738TIP3    H132629   4.873   1.036   3.479 -0.0220  0.0189 -3.8477
 3738TIP3    H232630   4.798   1.166   3.502  1.0820 -0.0789  1.7631
 3739TIP3   OH232631   1.294   0.603   0.942  0.3034 -0.5975  0.2441
 3739TIP3    H132632   1.345   0.523   0.925  1.7691  0.1881  0.7856
 3739TIP3    H232633   1.300   0.653   0.861  2.4648  0.5610  1.0425
 3740TIP3   OH232634   4.473   0.360   0.717 -0.2058 -0.0689  0.5740
 3740TIP3    H132635   4.465   0.442   0.767  0.2125  0.4529 -0.1969
 3740TIP3    H232636   4.398   0.308   0.746 -1.7587  1.4495 -0.4977
 3741TIP3   OH232637   4.716   2.634  13.212  0.2469 -0.0114  0.5234
 3741TIP3    H132638   4.773   2.674  13.146 -0.0652  0.7391  0.7018
 3741TIP3    H232639   4.729   2.688  13.290 -3.5129  2.6534 -0.4147
 3742TIP3   OH232640   4.058   6.647  13.727 -0.4370  0.3199 -0.1418
 3742TIP3    H132641   4.067   6.560  13.767 -1.3781  0.4516  0.3813
 3742TIP3    H232642   4.138   6.693  13.753 -0.1495 -0.2396 -0.0270
 3743TIP3   OH232643   2.342   0.304   4.247  0.7820 -0.5429 -0.3752
 3743TIP3    H132644   2.355   0.221   4.202  0.1461 -0.5773 -0.5067
 3743TIP3    H232645   2.248   0.308   4.265  0.7800  0.2158 -0.5005
 3744TIP3   OH232646   2.580   6.641   2.018 -0.4918 -0.0794  0.2686
 3744TIP3    H132647   2.498   6.635   2.068  0.0899  2.7583  1.7808
 3744TIP3    H232648   2.561   6.705   1.949  0.9278  2.3327  1.9656
 3745TIP3   OH232649   6.399   0.984  11.662 -0.1685 -0.2065 -0.2926
 3745TIP3    H132650   6.401   1.072  11.624  1.5974 -0.2894 -0.4495
 3745TIP3    H232651   6.446   0.993  11.745  0.1585 -1.0255 -0.3810
 3746TIP3   OH232652   4.050   4.618  12.021  0.2663  0.1522  0.5077
 3746TIP3    H132653   4.041   4.583  11.932 -0.1126  0.2602  0.5008
 3746TIP3    H232654   3.975   4.582  12.069  0.6200 -0.1279  0.8597
 3747TIP3   OH232655   3.870   6.733  13.563  0.4657  0.2298  0.2239
 3747TIP3    H132656   3.916   6.798  13.509  0.3787 -1.2101 -1.6819
 3747TIP3    H232657   3.925   6.723  13.640  1.6861  0.8883 -0.5299
 3748TIP3   OH232658   3.775   6.219   0.904  0.4015  0.0043  0.0312
 3748TIP3    H132659   3.855   6.266   0.930  0.9505 -0.9845  0.2089
 3748TIP3    H232660   3.795   6.184   0.817  0.7086 -1.3926  0.6279
 3749TIP3   OH232661   2.725   4.631   3.397 -0.2429  0.4668 -0.0614
 3749TIP3    H132662   2.641   4.670   3.420  0.8114  2.6283  0.3590
 3749TIP3    H232663   2.758   4.594   3.479  0.1195  1.4615  0.2559
 3750TIP3   OH232664   3.594   0.985  12.333  0.6788  0.4609 -0.0497
 3750TIP3    H132665   3.533   0.942  12.393  0.4671 -1.0146 -1.2571
 3750TIP3    H232666   3.555   1.071  12.316 -0.4794 -0.0363  0.0581
 3751TIP3   OH232667   0.858   0.746   5.654 -0.3978 -0.3053 -0.1611
 3751TIP3    H132668   0.818   0.769   5.738 -0.5399 -0.1002 -0.2842
 3751TIP3    H232669   0.920   0.676   5.675  0.6238  0.7218  0.3564
 3752TIP3   OH232670   1.388   6.497  12.790 -0.0295  0.5005  0.6810
 3752TIP3    H132671   1.330   6.574  12.796 -0.3792  0.3075 -0.1724
 3752TIP3    H232672   1.473   6.529  12.819 -0.3081  1.0648  0.8964
 3753TIP3   OH232673   6.222   5.379  12.867  0.1406  0.1904  0.3329
 3753TIP3    H132674   6.177   5.455  12.905 -0.2190  0.2038 -0.1156
 3753TIP3    H232675   6.168   5.304  12.893 -0.4258  0.2535 -0.6148
 3754TIP3   OH232676   0.559   4.485  16.636 -0.3171 -0.0767  0.6248
 3754TIP3    H132677   0.616   4.467  16.561 -0.3617 -1.5799  0.9057
 3754TIP3    H232678   0.594   4.430  16.706  1.9688  3.9254  2.9414
 3755TIP3   OH232679   2.662   2.905  10.729  0.5744 -0.5335 -0.0617
 3755TIP3    H132680   2.736   2.874  10.781  0.0716 -1.8029 -0.0619
 3755TIP3    H232681   2.679   2.872  10.641  0.0154 -0.8623 -0.0542
 3756TIP3   OH232682   1.679   6.217   1.985 -0.5868 -0.5896  0.2392
 3756TIP3    H132683   1.702   6.292   1.931  1.9655 -1.4058  0.0850
 3756TIP3    H232684   1.604   6.247   2.037 -0.6755  1.4719 -0.9826
 3757TIP3   OH232685   3.603   1.555   5.437 -0.2105  0.0535  0.0390
 3757TIP3    H132686   3.539   1.623   5.414 -0.2678  0.1802  0.5725
 3757TIP3    H232687   3.591   1.541   5.531  0.4993  0.0220  0.1259
 3758TIP3   OH232688   6.088   1.936  13.291 -0.2994 -0.0646 -0.6104
 3758TIP3    H132689   6.086   1.847  13.255 -1.7344 -1.6295  2.7892
 3758TIP3    H232690   6.176   1.968  13.272  0.7132 -2.7413 -0.9326
 3759TIP3   OH232691   3.228   0.872  15.590  0.4040 -0.3925  0.0893
 3759TIP3    H132692   3.222   0.901  15.681  2.2431  0.0669  0.0928
 3759TIP3    H232693   3.162   0.925  15.544 -1.4241 -1.4816  1.2900
 3760TIP3   OH232694   1.535   1.570  10.777 -0.1281 -0.1994 -0.1011
 3760TIP3    H132695   1.597   1.631  10.737 -0.0220 -0.6198 -0.5877
 3760TIP3    H232696   1.501   1.518  10.704 -1.3931  0.3098  0.0901
 3761TIP3   OH232697   5.536   0.725   6.101 -0.2086 -0.4533 -0.6723
 3761TIP3    H132698   5.482   0.773   6.038 -0.3343  1.2868  0.6863
 3761TIP3    H232699   5.604   0.787   6.127 -0.6459 -0.8194  1.5118
 3762TIP3   OH232700   3.756   4.174   3.691  0.2091 -0.0276  0.2378
 3762TIP3    H132701   3.768   4.244   3.756  1.9185 -1.1904  1.2340
 3762TIP3    H232702   3.827   4.113   3.708 -0.9712 -1.8066 -0.9156
 3763TIP3   OH232703   2.238   0.210   0.628  0.0819 -0.0734 -0.6526
 3763TIP3    H132704   2.217   0.136   0.570  0.9899 -0.1264 -0.9316
 3763TIP3    H232705   2.199   0.186   0.712 -2.6749  0.7352 -1.6044
 3764TIP3   OH232706   3.385   4.197  16.293  0.3174  0.2302  0.1759
 3764TIP3    H132707   3.353   4.216  16.381  0.3358 -1.0501  0.4773
 3764TIP3    H232708   3.479   4.184  16.304  0.0181 -2.2457  0.4294
 3765TIP3   OH232709   6.435   2.586  15.134 -0.1990 -0.6738 -0.0667
 3765TIP3    H132710   6.381   2.603  15.057 -1.1261 -0.6547  0.5698
 3765TIP3    H232711   6.506   2.529  15.102  1.0159  1.5113 -1.4981
 3766TIP3   OH232712   6.707   3.719  14.680  0.1935 -0.1756 -0.2388
 3766TIP3    H132713   6.679   3.628  14.672 -0.8627 -0.0046  1.2223
 3766TIP3    H232714   6.728   3.746  14.590  0.2788 -1.7695 -0.7172
 3767TIP3   OH232715   1.596   0.353  14.079  0.1738  0.1678 -0.0512
 3767TIP3    H132716   1.505   0.382  14.080  0.3920  0.9961  2.5524
 3767TIP3    H232717   1.594   0.268  14.035 -1.5223  1.0542 -1.7699
 3768TIP3   OH232718   1.666   4.384   4.952  0.0461  0.3861 -0.2622
 3768TIP3    H132719   1.688   4.373   5.044 -0.6640 -2.8263 -0.3860
 3768TIP3    H232720   1.742   4.429   4.915  1.5315 -0.6465  1.3876
 3769TIP3   OH232721   4.342   3.015  11.492 -0.2075 -0.3815  0.5719
 3769TIP3    H132722   4.258   2.993  11.451 -0.1221  0.4841 -0.0791
 3769TIP3    H232723   4.326   3.098  11.536  0.8210  0.8176 -1.2108
 3770TIP3   OH232724   6.542   2.038  11.102  0.2742  0.4412 -0.8638
 3770TIP3    H132725   6.505   1.976  11.039 -1.0562 -1.0252  1.2359
 3770TIP3    H232726   6.470   2.098  11.121 -0.2179 -0.6693  1.0724
 3771TIP3   OH232727   5.153   3.915  11.143 -0.2768 -0.3098 -0.5187
 3771TIP3    H132728   5.153   3.820  11.157 -0.4751 -0.3406 -0.7208
 3771TIP3    H232729   5.069   3.933  11.101 -0.4445  0.0213 -0.0536
 3772TIP3   OH232730   1.314   1.404   4.448 -0.3443 -1.1956  0.5698
 3772TIP3    H132731   1.389   1.410   4.507  0.3222 -0.7500 -0.3058
 3772TIP3    H232732   1.353   1.393   4.361 -1.2044  0.9131 -0.1599
 3773TIP3   OH232733   6.644   5.203  14.492 -0.3576 -0.0302  0.4015
 3773TIP3    H132734   6.720   5.154  14.523 -1.3563 -0.9748  1.4597
 3773TIP3    H232735   6.663   5.294  14.515  0.5743 -0.2086  0.3653
 3774TIP3   OH232736   0.234   0.791   5.456 -0.3697  0.3825  0.0456
 3774TIP3    H132737   0.259   0.704   5.488 -1.9831 -0.3399 -0.5803
 3774TIP3    H232738   0.297   0.809   5.386  1.0337  0.4938  1.2829
 3775TIP3   OH232739   0.122   5.400   4.247  0.8076 -0.1183 -0.0064
 3775TIP3    H132740   0.027   5.391   4.241  0.8287 -0.1960 -0.2234
 3775TIP3    H232741   0.137   5.491   4.273  0.7138  0.1985 -1.0409
 3776TIP3   OH232742   4.406   3.575   5.712 -0.1133 -0.4732  0.0859
 3776TIP3    H132743   4.439   3.486   5.697 -0.3577 -0.2471 -2.0702
 3776TIP3    H232744   4.443   3.627   5.641 -2.6337  0.4143 -0.7031
 3777TIP3   OH232745   2.111   4.952   0.884 -0.0692  0.1895 -0.1043
 3777TIP3    H132746   2.122   5.035   0.838 -0.1733  0.2348 -0.0467
 3777TIP3    H232747   2.200   4.919   0.897 -0.0656 -1.1967 -2.8547
 3778TIP3   OH232748   0.173   2.639  11.431 -0.2314 -0.1857  0.1167
 3778TIP3    H132749   0.111   2.569  11.456  0.3379 -0.5577  0.5056
 3778TIP3    H232750   0.176   2.696  11.508 -1.3069  0.7285 -0.4909
 3779TIP3   OH232751   0.694   1.610  12.080  0.9275  0.0441 -0.1285
 3779TIP3    H132752   0.724   1.680  12.138  1.0411 -0.0839 -0.0343
 3779TIP3    H232753   0.711   1.644  11.992  1.9681 -0.3065 -0.0671
 3780TIP3   OH232754   6.589   6.060   6.281  0.3672 -0.4497  0.6090
 3780TIP3    H132755   6.617   6.109   6.204 -0.7541 -0.7879 -0.0231
 3780TIP3    H232756   6.664   6.064   6.340  0.8232  0.7888 -0.0266
 3781TIP3   OH232757   6.456   0.008   1.283 -0.3784 -0.4289 -0.0006
 3781TIP3    H132758   6.511   0.086   1.277 -1.5366  0.3699 -0.6371
 3781TIP3    H232759   6.377   0.038   1.329  0.2358 -1.8766  2.1366
 3782TIP3   OH232760   4.847   3.074  13.466 -0.0256 -0.9348  0.0447
 3782TIP3    H132761   4.793   3.020  13.523 -1.1851 -1.4814 -1.5030
 3782TIP3    H232762   4.928   3.088  13.516 -1.2809 -0.7171  2.1021
 3783TIP3   OH232763   3.797   0.209  16.893  0.5380  0.1701 -0.3140
 3783TIP3    H132764   3.721   0.173  16.939  0.1037 -0.2354 -1.3286
 3783TIP3    H232765   3.851   0.133  16.872  1.1619  0.4427  0.2776
 3784TIP3   OH232766   2.344   1.052  10.748 -0.1577 -0.3746 -0.2061
 3784TIP3    H132767   2.380   1.128  10.703  1.5890 -0.9067  0.2219
 3784TIP3    H232768   2.402   1.038  10.823 -1.4765 -1.0761  0.7352
 3785TIP3   OH232769   6.548   1.106  14.990 -0.5021 -0.2662 -0.2648
 3785TIP3    H132770   6.456   1.113  14.965 -0.8020 -1.4181  0.4241
 3785TIP3    H232771   6.578   1.197  14.997 -1.7160  0.1391 -0.0278
 3786TIP3   OH232772   2.316   1.871   4.042  0.0859  0.0677 -0.0480
 3786TIP3    H132773   2.402   1.859   4.003 -0.6085  0.9234 -1.9800
 3786TIP3    H232774   2.324   1.951   4.095  0.1602  0.9814 -1.3764
 3787TIP3   OH232775   5.004   2.347   3.994 -0.1263  0.2649  0.9777
 3787TIP3    H132776   4.997   2.290   4.071 -1.0766 -0.2939  0.4962
 3787TIP3    H232777   4.927   2.403   3.999 -1.0654 -0.8331 -0.3772
 3788TIP3   OH232778   3.266   2.086  11.901 -0.0276 -0.5959  0.0065
 3788TIP3    H132779   3.231   2.171  11.873  1.3231  0.5765  1.7068
 3788TIP3    H232780   3.190   2.040  11.936 -0.2917  1.1929  1.9852
 3789TIP3   OH232781   3.505   5.545  14.828  0.3234 -0.0009  0.4194
 3789TIP3    H132782   3.557   5.517  14.903  0.8664 -0.2790 -0.0552
 3789TIP3    H232783   3.501   5.468  14.771  1.2071  0.6408 -0.5486
 3790TIP3   OH232784   6.300   1.568  12.936  0.1872  0.2267 -0.2103
 3790TIP3    H132785   6.346   1.582  12.854 -1.2354  0.4821 -0.9891
 3790TIP3    H232786   6.338   1.632  12.996  0.4086  0.8603 -1.0120
 3791TIP3   OH232787   4.459   3.692   0.268  0.5989  0.0944 -0.2606
 3791TIP3    H132788   4.399   3.620   0.250  0.8211 -0.3677  0.7874
 3791TIP3    H232789   4.523   3.656   0.330 -0.0621  1.5413  1.3422
 3792TIP3   OH232790   0.478   0.916  14.523  1.2417  0.0653  0.2735
 3792TIP3    H132791   0.453   1.008  14.514 -0.7436 -0.3385  1.2234
 3792TIP3    H232792   0.556   0.907  14.467  1.0166  2.1258 -0.4528
 3793TIP3   OH232793   4.048   3.265   0.647 -0.1679  0.2689 -0.0497
 3793TIP3    H132794   4.000   3.341   0.615  0.2975  0.7927  0.4859
 3793TIP3    H232795   4.080   3.291   0.733  0.0020 -0.5306  0.1356
 3794TIP3   OH232796   6.789   6.350  13.324  0.3101  1.1218 -0.1570
 3794TIP3    H132797   6.835   6.421  13.279 -0.1193  1.9917  0.7233
 3794TIP3    H232798   6.833   6.270  13.295  2.5163  1.9037  0.7508
 3795TIP3   OH232799   2.004   5.525  13.830 -0.2560 -0.1840  0.3773
 3795TIP3    H132800   1.938   5.523  13.761 -1.9679 -1.4132  1.9398
 3795TIP3    H232801   2.074   5.579  13.795 -1.6758  0.4104 -1.7370
 3796TIP3   OH232802   1.046   5.039   5.664  0.2720  0.0444 -0.2590
 3796TIP3    H132803   1.039   4.949   5.694 -0.2415 -0.8500 -2.8352
 3796TIP3    H232804   0.973   5.085   5.708  0.0551 -0.9669  0.4583
 3797TIP3   OH232805   2.038   3.617   4.594 -0.0509  0.2593  0.1299
 3797TIP3    H132806   2.065   3.690   4.650 -1.2922  0.9602 -0.1428
 3797TIP3    H232807   1.955   3.587   4.633  0.1623 -0.6391 -0.0919
 3798TIP3   OH232808   6.184   3.576   6.110  0.4841  0.3182 -0.0511
 3798TIP3    H132809   6.203   3.491   6.070  0.2308  0.2013  0.0750
 3798TIP3    H232810   6.260   3.630   6.088  1.2489 -0.3103  0.9173
 3799TIP3   OH232811   2.569   4.927  14.312  0.2358  0.1171  0.7655
 3799TIP3    H132812   2.624   4.889  14.244 -1.2160 -2.1035  0.7495
 3799TIP3    H232813   2.612   4.902  14.394  0.1303 -0.1930  0.7257
 3800TIP3   OH232814   0.832   1.854  11.146  0.0222 -0.7626 -0.6924
 3800TIP3    H132815   0.757   1.817  11.193 -0.3965 -0.3963 -1.0568
 3800TIP3    H232816   0.806   1.849  11.054  0.3814 -0.4814 -0.8079
 3801TIP3   OH232817   4.571   2.185  14.093 -0.3011  0.4771 -0.5779
 3801TIP3    H132818   4.664   2.209  14.094 -0.0729 -0.0841 -2.8956
 3801TIP3    H232819   4.570   2.094  14.064 -1.5476  0.0518  0.6587
 3802TIP3   OH232820   6.357   0.040   2.437  0.6610  0.3482 -0.4944
 3802TIP3    H132821   6.277   0.050   2.489  0.5934 -0.4094 -0.4480
 3802TIP3    H232822   6.421   0.094   2.483  0.8655 -1.0421  0.9634
 3803TIP3   OH232823   4.870   2.364  13.696  0.3730  0.3625  0.2548
 3803TIP3    H132824   4.782   2.348  13.661 -0.2798 -1.0923  2.3399
 3803TIP3    H232825   4.908   2.276  13.706  1.1394  0.8229  1.5651
 3804TIP3   OH232826   6.367   4.124  13.351  0.7184  0.2616  0.0370
 3804TIP3    H132827   6.340   4.065  13.421 -0.6103  1.6148  0.7326
 3804TIP3    H232828   6.299   4.115  13.284  0.1852  1.3879  0.4038
 3805TIP3   OH232829   0.553   1.144  11.466  1.0474  0.5981 -0.2416
 3805TIP3    H132830   0.618   1.080  11.496  0.8633  0.8201  0.6620
 3805TIP3    H232831   0.570   1.222  11.519  0.3768  0.8316 -0.3619
 3806TIP3   OH232832   1.854   3.851   1.796  0.4809  0.4857 -0.1456
 3806TIP3    H132833   1.855   3.946   1.780  0.3060  0.6711  0.8968
 3806TIP3    H232834   1.903   3.840   1.877  2.7766 -0.6071 -1.5723
 3807TIP3   OH232835   1.160   3.586  13.120 -1.0437 -0.4849 -0.0378
 3807TIP3    H132836   1.157   3.494  13.145 -2.5893 -0.2354  0.7592
 3807TIP3    H232837   1.087   3.627  13.165  0.5201  1.4784  0.9079
 3808TIP3   OH232838   3.223   2.158  17.091  0.0756  0.0589  0.0292
 3808TIP3    H132839   3.180   2.087  17.041  1.0962  1.0311 -2.3758
 3808TIP3    H232840   3.300   2.116  17.130 -0.6997 -0.7090  0.7914
 3809TIP3   OH232841   0.699   6.485  12.886 -0.5812  0.4932 -0.4909
 3809TIP3    H132842   0.717   6.567  12.932  0.3600  0.9307 -1.5798
 3809TIP3    H232843   0.776   6.431  12.903 -0.9821  0.0208 -0.1748
 3810TIP3   OH232844   0.230   5.064  12.233 -0.0312 -0.0386  0.4742
 3810TIP3    H132845   0.311   5.113  12.216 -0.2218  0.6559  1.4789
 3810TIP3    H232846   0.245   5.021  12.317 -1.1060  1.0377  1.2534
 3811TIP3   OH232847   6.028   4.308  13.698 -0.6487  0.4212  0.4790
 3811TIP3    H132848   5.967   4.349  13.637  1.2082  0.7886 -1.2468
 3811TIP3    H232849   6.064   4.234  13.650 -0.5976 -0.4992  1.8952
 3812TIP3   OH232850   5.524   0.211   4.611  0.2428 -0.0998 -0.2087
 3812TIP3    H132851   5.582   0.284   4.635  0.3270 -0.1274 -0.3290
 3812TIP3    H232852   5.445   0.225   4.663 -0.8920  1.6217 -2.2657
 3813TIP3   OH232853   3.124   4.553  14.070  0.9935 -0.1386  0.0488
 3813TIP3    H132854   3.125   4.610  13.993  2.7645 -0.2181 -0.0261
 3813TIP3    H232855   3.042   4.504  14.062  0.3719  0.9973 -0.9180
 3814TIP3   OH232856   0.499   2.673   5.371 -0.1066 -0.5919 -0.4846
 3814TIP3    H132857   0.429   2.691   5.433  0.5189 -1.0741  0.3935
 3814TIP3    H232858   0.565   2.627   5.423  1.5493  1.1924 -0.8750
 3815TIP3   OH232859   5.360   0.155   1.079 -0.0067 -0.0169  0.3893
 3815TIP3    H132860   5.314   0.097   1.140 -1.0296  0.8242  0.4512
 3815TIP3    H232861   5.380   0.100   1.004 -0.9749 -0.4560  0.4338
 3816TIP3   OH232862   3.439   4.444  15.678  0.1667  0.4745  0.2369
 3816TIP3    H132863   3.448   4.468  15.771  1.4923  2.6761 -0.3847
 3816TIP3    H232864   3.406   4.523  15.636 -2.0386 -1.0029 -0.9891
 3817TIP3   OH232865   6.676   6.098  17.072 -0.6350 -0.4910  0.4107
 3817TIP3    H132866   6.632   6.074  17.153  0.3177 -1.0393  0.7866
 3817TIP3    H232867   6.635   6.044  17.005  0.5793 -2.2637  1.0293
 3818TIP3   OH232868   5.412   1.836   6.321  0.1269 -0.0135  0.7146
 3818TIP3    H132869   5.386   1.790   6.400  0.3938 -1.0784  0.1904
 3818TIP3    H232870   5.348   1.907   6.313 -0.0309 -0.0181  1.7566
 3819TIP3   OH232871   3.705   3.148  15.277  0.1049  0.4706  0.0273
 3819TIP3    H132872   3.743   3.098  15.204 -1.8507 -0.3172 -0.5238
 3819TIP3    H232873   3.779   3.193  15.316  1.7024 -1.4833 -0.5571
 3820TIP3   OH232874   5.481   4.846  13.161 -0.2446  0.0942  0.2039
 3820TIP3    H132875   5.392   4.860  13.194  0.2500 -1.1640  2.3079
 3820TIP3    H232876   5.507   4.763  13.200  1.5049 -0.0823 -1.2182
 3821TIP3   OH232877   1.218   6.163  15.724 -0.1564 -0.2579  0.7229
 3821TIP3    H132878   1.195   6.085  15.673  1.4212 -0.2496 -0.0544
 3821TIP3    H232879   1.203   6.136  15.815 -1.2847 -0.8760  0.3750
 3822TIP3   OH232880   6.461   0.245  16.197 -0.4274  0.1072  0.2802
 3822TIP3    H132881   6.509   0.233  16.115  0.7600  1.1119  0.7829
 3822TIP3    H232882   6.445   0.157  16.229  0.4258 -0.2724 -0.2975
 3823TIP3   OH232883   6.231   0.798  11.600 -0.0784 -0.1383  0.0638
 3823TIP3    H132884   6.284   0.721  11.620  0.1051 -0.3888 -1.2886
 3823TIP3    H232885   6.290   0.872  11.614  0.4458 -0.3786 -0.8077
 3824TIP3   OH232886   0.589   2.816   4.762 -0.2959  0.1975 -0.2888
 3824TIP3    H132887   0.560   2.893   4.712  0.0142 -0.0450 -0.8560
 3824TIP3    H232888   0.591   2.745   4.697  0.4925 -0.0366 -0.0189
 3825TIP3   OH232889   0.088   6.048  11.472 -0.1459 -0.0626 -0.6021
 3825TIP3    H132890   0.146   5.976  11.446 -0.5393 -1.0978  1.1771
 3825TIP3    H232891   0.007   6.004  11.497 -1.3593  1.2684 -1.9914
 3826TIP3   OH232892   3.455   2.702   1.470  0.3679 -0.5140  0.4996
 3826TIP3    H132893   3.514   2.777   1.482  0.4727 -0.7189  1.3289
 3826TIP3    H232894   3.372   2.742   1.445  0.5069 -0.1365  0.6241
 3827TIP3   OH232895   3.086   1.122  13.880 -0.1736 -0.4203  0.0734
 3827TIP3    H132896   3.130   1.061  13.821  0.4469  1.3822 -1.4350
 3827TIP3    H232897   2.993   1.112  13.860  0.0042 -0.0884 -0.9964
 3828TIP3   OH232898   1.928   5.948  16.166  0.0410 -0.0133  0.0382
 3828TIP3    H132899   1.893   5.941  16.255 -1.6473  1.6679 -0.4331
 3828TIP3    H232900   1.860   5.912  16.110  0.3983  0.3989 -0.6800
 3829TIP3   OH232901   5.713   2.464   2.678  0.2821  0.4946  0.3174
 3829TIP3    H132902   5.714   2.369   2.673 -0.6854  0.3512  2.0957
 3829TIP3    H232903   5.624   2.489   2.655  0.5117  0.9860 -0.0811
 3830TIP3   OH232904   6.668   3.188   0.698  0.2273 -0.8901 -1.2012
 3830TIP3    H132905   6.618   3.189   0.616 -0.7331 -0.4121 -0.6308
 3830TIP3    H232906   6.714   3.272   0.700 -1.3400  0.0167 -0.3464
 3831TIP3   OH232907   3.052   6.357   0.584 -0.6105 -0.2959 -0.9052
 3831TIP3    H132908   3.004   6.439   0.591 -2.6128 -1.4400 -0.4770
 3831TIP3    H232909   3.144   6.383   0.587 -1.1819  1.9097 -0.7202
 3832TIP3   OH232910   4.415   4.042  11.228 -0.1615  0.3377  0.1245
 3832TIP3    H132911   4.380   3.953  11.232  2.0406 -0.5536  0.9008
 3832TIP3    H232912   4.384   4.076  11.144 -2.3557 -0.5283  0.4971
 3833TIP3   OH232913   4.388   4.367  14.466 -0.7083 -0.5835 -0.4274
 3833TIP3    H132914   4.477   4.374  14.501 -0.8370 -2.7208  0.4797
 3833TIP3    H232915   4.367   4.455  14.436  1.2166  0.2709  0.5592
 3834TIP3   OH232916   5.879   1.287  12.147 -0.5714 -0.2581  0.3903
 3834TIP3    H132917   5.958   1.297  12.200 -1.7265  0.0603  2.1477
 3834TIP3    H232918   5.823   1.360  12.172 -1.0786  0.0813 -1.5356
 3835TIP3   OH232919   5.085   4.230   1.744 -0.2010  0.1810 -0.0343
 3835TIP3    H132920   5.063   4.202   1.655 -0.5870  1.2985 -0.3065
 3835TIP3    H232921   5.016   4.292   1.768 -0.2862 -0.3553  1.1832
 3836TIP3   OH232922   2.688   4.872   0.784 -0.1115 -0.2572 -0.4008
 3836TIP3    H132923   2.720   4.794   0.830  1.3344  0.4331 -0.1636
 3836TIP3    H232924   2.664   4.841   0.697  1.7660 -0.7776 -0.7958
 3837TIP3   OH232925   4.479   1.849  10.490 -0.3181  0.1182  0.4413
 3837TIP3    H132926   4.564   1.811  10.512  0.2486  1.1525  0.0575
 3837TIP3    H232927   4.416   1.786  10.524  0.5860 -1.5588 -0.8265
 3838TIP3   OH232928   1.153   0.539  16.219 -0.5806 -0.2502  1.1896
 3838TIP3    H132929   1.145   0.447  16.194  1.4608  0.0110 -0.6819
 3838TIP3    H232930   1.237   0.544  16.264  0.0525  0.9542 -0.0856
 3839TIP3   OH232931   6.580   0.385  15.927  0.4837 -0.1734 -0.2509
 3839TIP3    H132932   6.607   0.472  15.957  2.2126 -1.0153  0.7585
 3839TIP3    H232933   6.505   0.402  15.869 -0.0099  1.8663  0.8980
 3840TIP3   OH232934   5.055   2.733   5.929 -0.5988 -0.4840  0.2472
 3840TIP3    H132935   5.120   2.789   5.888 -1.2876 -1.0822 -1.7475
 3840TIP3    H232936   5.095   2.707   6.013  0.5224  1.3797  0.3284
 3841TIP3   OH232937   1.094   5.401   5.149 -0.7515  0.3138 -0.6933
 3841TIP3    H132938   1.042   5.360   5.219 -1.1615  2.0060  0.0410
 3841TIP3    H232939   1.035   5.467   5.112  0.2080  0.8929 -1.2039
 3842TIP3   OH232940   6.234   4.194   5.898 -0.6032 -0.2027 -1.2053
 3842TIP3    H132941   6.157   4.168   5.848 -2.2539  0.7387  0.7364
 3842TIP3    H232942   6.200   4.231   5.979  1.9044 -0.0068 -0.1288
 3843TIP3   OH232943   4.805   4.609  10.720 -0.2890 -0.1148 -0.8159
 3843TIP3    H132944   4.840   4.698  10.716 -0.1748  0.0070  1.5501
 3843TIP3    H232945   4.711   4.620  10.726 -0.2553 -0.1296 -0.2170
 3844TIP3   OH232946   1.486   3.570  14.104  0.6049  0.2299  0.4987
 3844TIP3    H132947   1.417   3.575  14.038  2.0389  0.8870 -1.0054
 3844TIP3    H232948   1.442   3.593  14.186 -1.1900 -0.4891 -0.2105
 3845TIP3   OH232949   1.485   2.251  13.154 -0.1136 -0.3471 -0.4166
 3845TIP3    H132950   1.539   2.313  13.105  1.0624 -0.1533  1.0498
 3845TIP3    H232951   1.448   2.193  13.088 -1.7031  2.1985 -1.9045
 3846TIP3   OH232952   0.061   2.989  15.932 -0.1120 -0.1958  0.0822
 3846TIP3    H132953   0.049   2.968  16.024 -0.5592  1.4755  0.4319
 3846TIP3    H232954   0.105   2.912  15.895 -2.8702 -2.3466  0.9568
 3847TIP3   OH232955   5.291   0.719  11.460  0.4365 -0.2851  0.1305
 3847TIP3    H132956   5.377   0.746  11.491 -0.7197  1.2512  2.2020
 3847TIP3    H232957   5.256   0.663  11.530  0.0802 -1.6951 -1.1094
 3848TIP3   OH232958   1.789   2.328  11.959 -0.3077  0.3497  0.2716
 3848TIP3    H132959   1.865   2.375  11.993 -0.1221  0.1475  0.1411
 3848TIP3    H232960   1.734   2.313  12.035 -0.0918  0.2662  0.4144
 3849TIP3   OH232961   2.432   1.912  10.919  0.1350 -0.5608 -0.1879
 3849TIP3    H132962   2.463   1.937  11.006 -2.5671  1.1531  0.4131
 3849TIP3    H232963   2.377   1.835  10.934 -1.3099  0.4427 -0.1217
 3850TIP3   OH232964   6.137   1.649  15.105  0.1325  0.2934  0.4819
 3850TIP3    H132965   6.199   1.645  15.032 -0.8093  1.1909 -0.3987
 3850TIP3    H232966   6.087   1.568  15.098 -3.0400  2.2202 -2.7891
 3851TIP3   OH232967   1.225   0.411   4.846  0.3003 -0.4149  0.5492
 3851TIP3    H132968   1.142   0.446   4.813 -0.0036  1.8238  3.3536
 3851TIP3    H232969   1.279   0.489   4.861  2.5520 -1.7478 -0.1139
 3852TIP3   OH232970   6.234   4.983   1.614 -0.5405  0.4092  0.2571
 3852TIP3    H132971   6.222   5.069   1.573 -0.7813  0.6673  0.8622
 3852TIP3    H232972   6.156   4.971   1.668 -1.8683 -1.3797 -1.8633
 3853TIP3   OH232973   5.173   3.205   4.332 -0.1535  0.2869 -0.3050
 3853TIP3    H132974   5.106   3.167   4.275 -0.3197  0.7328 -0.4133
 3853TIP3    H232975   5.243   3.141   4.333 -1.2491 -0.9835  1.1374
 3854TIP3   OH232976   2.556   3.087   3.849  0.1396 -0.1962  0.2201
 3854TIP3    H132977   2.479   3.106   3.903  0.5810  0.8168  0.5245
 3854TIP3    H232978   2.626   3.140   3.888  0.6671 -0.0823 -0.8492
 3855TIP3   OH232979   6.318   4.340  15.424 -0.5200  0.2261  0.1091
 3855TIP3    H132980   6.250   4.395  15.462 -1.7048 -0.3727 -1.0524
 3855TIP3    H232981   6.318   4.261  15.478  0.1949  0.7736  0.9186
 3856TIP3   OH232982   5.295   1.585  11.838  0.2665 -0.0624 -0.3622
 3856TIP3    H132983   5.375   1.537  11.862  0.1366  0.0983  0.4256
 3856TIP3    H232984   5.253   1.604  11.922 -0.3071  0.3603 -0.7416
 3857TIP3   OH232985   6.027   2.371   1.378 -0.1283 -0.0179  0.3776
 3857TIP3    H132986   6.117   2.355   1.348  0.1132  1.4311  0.2638
 3857TIP3    H232987   5.974   2.311   1.326  0.6882 -0.3140 -0.1437
 3858TIP3   OH232988   3.481   2.375   4.945 -0.1891  0.4787  0.5822
 3858TIP3    H132989   3.524   2.444   4.894 -0.1872  1.0109  1.2982
 3858TIP3    H232990   3.483   2.298   4.887  0.2476  0.9410 -0.0300
 3859TIP3   OH232991   5.829   4.031   1.503  0.0109 -0.1983 -1.0546
 3859TIP3    H132992   5.905   4.064   1.550  0.2965 -1.0025 -0.9479
 3859TIP3    H232993   5.759   4.093   1.524  0.5802  0.4422 -1.0068
 3860TIP3   OH232994   6.647   3.591  16.929  0.5643 -0.1664 -0.0534
 3860TIP3    H132995   6.605   3.655  16.986  1.3457 -0.0406  0.4003
 3860TIP3    H232996   6.586   3.517  16.927 -0.2465  0.4979 -0.4065
 3861TIP3   OH232997   4.845   5.528   4.822  0.5090 -0.6255 -0.5889
 3861TIP3    H132998   4.830   5.443   4.864  0.1076 -1.8691 -3.0734
 3861TIP3    H232999   4.781   5.586   4.864  1.2686 -1.2880  1.6710
 3862TIP3   OH233000   0.656   0.020   5.306 -0.5529 -0.0948 -0.3236
 3862TIP3    H133001   0.610  -0.063   5.301  1.0303 -1.0658  0.2921
 3862TIP3    H233002   0.588   0.087   5.297 -1.7050 -1.4353 -2.0875
 3863TIP3   OH233003   4.437   2.549   2.889 -0.3328  0.3408 -0.0514
 3863TIP3    H133004   4.416   2.606   2.963  0.1231  1.0374 -0.4561
 3863TIP3    H233005   4.355   2.542   2.840 -0.5555  0.1272  0.3416
 3864TIP3   OH233006   1.380   5.061  11.007  0.0726 -0.3391  0.5421
 3864TIP3    H133007   1.336   5.127  10.954  1.8155  0.6511  0.2710
 3864TIP3    H233008   1.321   4.986  11.005 -2.3091  1.3986  1.4340
 3865TIP3   OH233009   4.743   6.470  13.167  0.1079 -0.1479  0.0912
 3865TIP3    H133010   4.780   6.435  13.086 -0.1680 -0.2103 -0.0062
 3865TIP3    H233011   4.773   6.561  13.169 -0.0273 -0.0968 -0.1649
 3866TIP3   OH233012   6.040   6.043   5.045  0.2471 -0.5883  0.0439
 3866TIP3    H133013   6.070   5.960   5.082  1.8206  0.7809  2.0995
 3866TIP3    H233014   5.984   6.018   4.972 -1.3270 -3.4851  2.0512
 3867TIP3   OH233015   3.543   4.197   3.099 -0.0915  0.3806 -0.0419
 3867TIP3    H133016   3.481   4.177   3.168  2.5896 -1.7448  1.9647
 3867TIP3    H233017   3.550   4.116   3.049  1.0198  0.5767 -0.2338
 3868TIP3   OH233018   4.113   3.354  14.136  0.3263 -0.2241  0.3701
 3868TIP3    H133019   4.048   3.283  14.133 -0.0684  0.1628 -0.7805
 3868TIP3    H233020   4.136   3.369  14.044 -0.0227  1.5111  0.5234
 3869TIP3   OH233021   4.031   3.388  13.818 -1.1415 -0.2191 -0.2087
 3869TIP3    H133022   3.957   3.379  13.878 -1.4682 -3.0626 -0.8914
 3869TIP3    H233023   4.006   3.338  13.741  1.5783 -1.6446 -0.3005
 3870TIP3   OH233024   0.748   1.010  15.250  0.6183 -0.7881 -0.6547
 3870TIP3    H133025   0.677   0.958  15.289 -1.7061  3.0110  0.7793
 3870TIP3    H233026   0.796   1.045  15.325  0.8242  0.6341 -1.4040
 3871TIP3   OH233027   0.465   6.596   4.649 -0.6105 -0.5706 -0.2296
 3871TIP3    H133028   0.444   6.689   4.658 -0.9765 -0.7789  1.1677
 3871TIP3    H233029   0.383   6.556   4.620 -0.8266 -0.6518  0.4794
 3872TIP3   OH233030   5.934   6.785  16.468 -0.2142 -0.5736 -0.5112
 3872TIP3    H133031   5.843   6.814  16.477 -0.1467 -0.7516  0.9204
 3872TIP3    H233032   5.986   6.857  16.503  0.0045 -1.8697  2.0231
 3873TIP3   OH233033   5.685   2.447  13.273  0.4308 -0.6660 -0.0449
 3873TIP3    H133034   5.730   2.483  13.349 -1.0024 -0.2212  0.6302
 3873TIP3    H233035   5.593   2.443  13.300 -0.1064 -0.4887 -1.7581
 3874TIP3   OH233036   4.097   6.049  12.547 -0.5822  0.0565  0.0562
 3874TIP3    H133037   4.049   6.007  12.476 -0.7605  1.0689 -0.4361
 3874TIP3    H233038   4.187   6.017  12.538 -1.0594 -1.6733  0.8425
 3875TIP3   OH233039   1.824   0.641   1.911 -0.4875  0.6888 -0.3040
 3875TIP3    H133040   1.829   0.639   2.006 -0.4082 -2.9085 -0.2399
 3875TIP3    H233041   1.737   0.606   1.891 -0.8176  2.1465 -1.5897
 3876TIP3   OH233042   1.069   4.096  12.860 -0.2938 -0.1948 -0.4523
 3876TIP3    H133043   1.129   4.089  12.786  2.5198  0.9310  1.5389
 3876TIP3    H233044   1.027   4.010  12.866 -1.3759 -0.0322 -3.8319
 3877TIP3   OH233045   4.113   0.604  16.874  0.3288  0.3218 -0.3836
 3877TIP3    H133046   4.184   0.587  16.935  0.6816  0.6744 -0.6905
 3877TIP3    H233047   4.046   0.540  16.896 -0.1947  1.4102  1.3754
 3878TIP3   OH233048   6.054   3.950  16.548  0.1050  0.2007 -0.1426
 3878TIP3    H133049   6.096   3.921  16.467 -0.1005 -0.1294 -0.1298
 3878TIP3    H233050   6.036   3.870  16.596  1.0326  0.4392  0.6340
 3879TIP3   OH233051   3.964   1.258   2.617 -0.2130  0.8926 -0.5919
 3879TIP3    H133052   3.911   1.314   2.674  0.8321  0.2140  1.0934
 3879TIP3    H233053   3.899   1.213   2.562 -1.3751  0.4877  1.0441
 3880TIP3   OH233054   2.907   2.980   2.329  0.1020 -0.8015  0.3713
 3880TIP3    H133055   2.816   2.982   2.360 -0.3148  0.7812 -0.8271
 3880TIP3    H233056   2.909   2.908   2.267 -1.0349  0.5782 -1.3962
 3881TIP3   OH233057   6.334   2.445   2.563  0.7142  0.4076 -0.2554
 3881TIP3    H133058   6.347   2.460   2.656 -2.6852 -2.1819  0.8381
 3881TIP3    H233059   6.375   2.360   2.547  2.3531  1.3685 -1.5350
 3882TIP3   OH233060   4.054   0.601  13.671  0.5655 -0.2049 -0.2187
 3882TIP3    H133061   3.960   0.602  13.687  0.6511 -1.0338  0.4196
 3882TIP3    H233062   4.078   0.693  13.658 -0.2757  0.0384 -0.0712
 3883TIP3   OH233063   3.577   1.549  16.686 -0.2173  0.2091 -0.0039
 3883TIP3    H133064   3.647   1.526  16.747 -0.5245  1.3018  0.7897
 3883TIP3    H233065   3.618   1.544  16.600  0.4253 -0.6073  0.3325
 3884TIP3   OH233066   3.219   1.629  16.177  0.0203 -0.5059  0.0829
 3884TIP3    H133067   3.312   1.645  16.166  0.3710 -1.5192  1.4045
 3884TIP3    H233068   3.210   1.594  16.266 -1.7153  0.3308  0.2772
 3885TIP3   OH233069   1.426   0.170   5.828 -0.4328 -0.4177  0.2355
 3885TIP3    H133070   1.443   0.164   5.922  1.1137 -2.5472 -0.1291
 3885TIP3    H233071   1.359   0.103   5.811 -0.6714 -0.0759 -0.1999
 3886TIP3   OH233072   2.013   0.485   0.055 -0.4392 -0.1159  0.8148
 3886TIP3    H133073   2.085   0.479  -0.008  0.3742  2.7678  1.3674
 3886TIP3    H233074   1.974   0.397   0.053 -0.3208 -0.2924 -3.4755
 3887TIP3   OH233075   1.364   6.404  13.750 -0.7638 -0.3298 -0.0255
 3887TIP3    H133076   1.408   6.450  13.821  0.2622 -1.5224  0.1360
 3887TIP3    H233077   1.351   6.315  13.784 -4.0033  0.0983  0.2447
 3888TIP3   OH233078   0.392   2.404   2.553  0.5081 -0.2954  0.0919
 3888TIP3    H133079   0.435   2.419   2.468 -1.2684  0.7887 -0.6818
 3888TIP3    H233080   0.441   2.458   2.614  1.4521 -0.6199 -0.3607
 3889TIP3   OH233081   6.501   1.248  15.669 -0.0234  0.3926  0.6918
 3889TIP3    H133082   6.537   1.240  15.581  0.6304  1.9328  0.7894
 3889TIP3    H233083   6.417   1.201  15.666  1.0400 -1.5522 -0.0926
 3890TIP3   OH233084   5.353   0.250  16.012 -0.3338 -0.4564 -0.0670
 3890TIP3    H133085   5.324   0.203  16.091  0.2729 -0.6640  0.0336
 3890TIP3    H233086   5.399   0.184  15.960  0.3056 -0.0296 -0.0479
 3891TIP3   OH233087   4.949   0.102   0.690 -0.0122 -0.1049  0.4067
 3891TIP3    H133088   4.938   0.068   0.779  0.0351  0.5729  0.6720
 3891TIP3    H233089   4.891   0.178   0.686  0.8686  0.5703  0.2436
 3892TIP3   OH233090   3.342   4.267  17.013  0.1479 -0.1154 -0.4130
 3892TIP3    H133091   3.367   4.351  16.976  0.4396 -0.2187 -0.4542
 3892TIP3    H233092   3.395   4.203  16.966 -0.8726 -0.4313 -1.1646
 3893TIP3   OH233093   5.268   0.286  14.956 -0.6758 -0.5194 -0.3734
 3893TIP3    H133094   5.259   0.360  15.017 -2.1985  0.6880 -1.9676
 3893TIP3    H233095   5.258   0.325  14.870  1.7803 -2.1288 -1.4965
 3894TIP3   OH233096   0.277   5.844  13.067 -0.2490 -0.6188 -0.3614
 3894TIP3    H133097   0.271   5.761  13.019 -2.0852 -0.1066 -1.1155
 3894TIP3    H233098   0.202   5.843  13.127 -2.2641  1.7109 -2.5495
 3895TIP3   OH233099   4.224   2.224   5.716  0.3452  0.1318  0.1585
 3895TIP3    H133100   4.261   2.264   5.638  1.7938 -1.3089  0.0695
 3895TIP3    H233101   4.263   2.137   5.721  0.2914  0.1588  2.4699
 3896TIP3   OH233102   0.356   3.028  16.631 -0.3332  0.0995  0.2861
 3896TIP3    H133103   0.280   3.074  16.596  1.4530  1.8936 -1.4718
 3896TIP3    H233104   0.363   3.058  16.721 -0.2797  1.9096 -0.2877
 3897TIP3   OH233105   2.714   5.664  10.423 -0.0814  0.3491  0.1266
 3897TIP3    H133106   2.708   5.573  10.393 -0.2362  0.4121 -0.0332
 3897TIP3    H233107   2.807   5.677  10.442  0.1569  0.5609 -1.1292
 3898TIP3   OH233108   3.800   3.386   0.947  0.1797  0.3031  0.2291
 3898TIP3    H133109   3.837   3.360   1.032 -0.2399 -1.8356 -0.1818
 3898TIP3    H233110   3.870   3.434   0.904  0.9427  0.0735  1.1801
 3899TIP3   OH233111   4.700   1.030   6.118  0.8014  0.1769 -0.3548
 3899TIP3    H133112   4.629   1.042   6.180  0.4743 -1.1973 -0.4124
 3899TIP3    H233113   4.664   0.970   6.052  1.2096  1.4217 -1.7556
 3900TIP3   OH233114   2.919   4.014  12.646 -0.3684  0.1370  0.1406
 3900TIP3    H133115   2.842   3.992  12.594 -0.1458 -0.4184  0.0370
 3900TIP3    H233116   2.977   4.059  12.584 -0.0015 -0.7385 -0.1673
 3901TIP3   OH233117   0.972   4.174  14.263  0.1855  0.3323 -0.4893
 3901TIP3    H133118   1.019   4.187  14.346 -1.3973  1.6252  0.2727
 3901TIP3    H233119   0.882   4.199  14.283 -0.5757 -0.8553 -2.2214
 3902TIP3   OH233120   6.516   4.618   5.321 -0.0864 -0.7460  0.4784
 3902TIP3    H133121   6.604   4.587   5.299 -0.0983  0.4439 -1.4664
 3902TIP3    H233122   6.529   4.707   5.352 -0.5673 -0.7569  0.7293
 3903TIP3   OH233123   6.429   6.393   5.069 -0.2516 -0.4738  0.1144
 3903TIP3    H133124   6.370   6.459   5.034 -1.0260 -1.3371 -0.2433
 3903TIP3    H233125   6.506   6.396   5.012 -0.0361  0.4886  0.4379
 3904TIP3   OH233126   6.788   3.383   2.809 -0.4584 -0.0501 -0.6706
 3904TIP3    H133127   6.708   3.425   2.777  0.6286  2.3382 -0.4153
 3904TIP3    H233128   6.859   3.430   2.765  0.8628 -1.2976  0.0505
 3905TIP3   OH233129   0.389   3.491  13.999  0.5589  0.1434 -0.0063
 3905TIP3    H133130   0.358   3.521  14.085 -0.5451  1.1282 -0.7248
 3905TIP3    H233131   0.443   3.564  13.967 -3.1551  2.2015 -2.3124
 3906TIP3   OH233132   2.275   2.528   0.156 -0.3007  0.2071 -0.7951
 3906TIP3    H133133   2.301   2.467   0.086  0.7884  0.0052 -0.2317
 3906TIP3    H233134   2.250   2.472   0.229  2.4706  0.3650  0.3761
 3907TIP3   OH233135   1.123   5.992   5.157 -0.6547 -0.3727 -0.4658
 3907TIP3    H133136   1.038   6.035   5.153 -0.1608  0.5804 -0.9544
 3907TIP3    H233137   1.105   5.909   5.202 -1.7379  0.0342 -0.1066
 3908TIP3   OH233138   1.695   6.085   4.894  0.1352  0.8079 -0.2295
 3908TIP3    H133139   1.632   6.157   4.893 -0.9416 -0.1087 -0.0850
 3908TIP3    H233140   1.679   6.041   4.977 -0.0308 -0.2910 -0.8268
 3909TIP3   OH233141   4.837   6.061  13.590  0.0941  0.0518 -0.3819
 3909TIP3    H133142   4.800   6.067  13.678  0.5544  1.7513 -0.2653
 3909TIP3    H233143   4.814   6.144  13.549  3.0363  0.8547 -0.5774
 3910TIP3   OH233144   2.598   4.163   2.145  0.0022  0.0203 -0.1517
 3910TIP3    H133145   2.666   4.166   2.078  0.0383 -2.0386 -0.2816
 3910TIP3    H233146   2.646   4.165   2.228 -0.1099  4.6791  0.0525
 3911TIP3   OH233147   5.935   3.706  11.653  0.1443  0.3734 -1.0571
 3911TIP3    H133148   5.947   3.677  11.563  0.3508 -2.3961 -0.2266
 3911TIP3    H233149   5.936   3.626  11.705  0.4072  1.8913  1.4783
 3912TIP3   OH233150   4.219   1.756   1.242  0.0608 -0.1072  0.5904
 3912TIP3    H133151   4.168   1.765   1.323  0.0091  1.7173  0.3957
 3912TIP3    H233152   4.154   1.745   1.173  0.0407 -0.2987  0.6410
 3913TIP3   OH233153   5.817   2.928  15.496  0.2573 -0.1018  0.1119
 3913TIP3    H133154   5.822   2.916  15.591  0.9673 -0.2709  0.0578
 3913TIP3    H233155   5.908   2.922  15.466  0.0904  0.4186 -0.5254
 3914TIP3   OH233156   1.266   4.159  11.782  0.3167  0.2529 -0.3086
 3914TIP3    H133157   1.317   4.230  11.743  0.8838  0.0642  0.0827
 3914TIP3    H233158   1.265   4.178  11.875  1.2982 -0.7451 -0.0632
 3915TIP3   OH233159   4.089   1.431  13.596  0.4558 -0.0018  0.0408
 3915TIP3    H133160   4.070   1.486  13.520  1.1010  0.4455  0.1940
 3915TIP3    H233161   4.148   1.484  13.649  1.3053 -0.9582  0.0637
 3916TIP3   OH233162   1.334   6.749   2.880 -0.0680 -0.0689 -0.2174
 3916TIP3    H133163   1.383   6.784   2.805  0.7581  0.4317  0.5409
 3916TIP3    H233164   1.262   6.811   2.893  0.5208  0.5437  0.1817
 3917TIP3   OH233165   4.794   5.247   6.478  0.0987  0.3570  0.3379
 3917TIP3    H133166   4.739   5.325   6.485  1.6238  1.4557  0.6300
 3917TIP3    H233167   4.777   5.214   6.390  0.2068  1.6381 -0.1861
 3918TIP3   OH233168   0.719   6.619   4.753  0.7015  0.2013  0.2028
 3918TIP3    H133169   0.715   6.561   4.829 -0.7465 -0.7325 -0.5447
 3918TIP3    H233170   0.628   6.627   4.724  1.1889  0.7720 -1.2433
 3919TIP3   OH233171   2.142   6.394  15.384  0.0961 -0.2035 -0.1504
 3919TIP3    H133172   2.146   6.438  15.299  1.5842  0.4508  0.2384
 3919TIP3    H233173   2.216   6.430  15.433  0.1959 -1.7400  0.8702
 3920TIP3   OH233174   3.304   0.261   1.630 -0.2969 -0.3613  0.1315
 3920TIP3    H133175   3.385   0.260   1.681  0.0566  1.1910 -0.3331
 3920TIP3    H233176   3.296   0.352   1.601 -1.1498 -0.9354 -1.5183
 3921TIP3   OH233177   0.143   3.987  13.685 -0.1883 -0.0627 -0.8511
 3921TIP3    H133178   0.171   3.955  13.600  0.1855  1.2254 -1.2316
 3921TIP3    H233179   0.067   4.042  13.667 -0.4359 -0.2140 -0.2959
 3922TIP3   OH233180   6.618   4.709   3.414  0.3159  0.5575  0.3882
 3922TIP3    H133181   6.588   4.621   3.438  1.7788 -0.2313 -0.5479
 3922TIP3    H233182   6.703   4.717   3.457  0.5231  1.2223 -0.1352
 3923TIP3   OH233183   3.254   0.081   1.969  0.3652  0.1183  0.3530
 3923TIP3    H133184   3.165   0.089   1.935  0.4008 -0.2134  0.1807
 3923TIP3    H233185   3.292   0.010   1.919 -0.5082 -2.3776  2.9884
 3924TIP3   OH233186   1.149   4.250  17.015  0.3235  0.0063 -0.1216
 3924TIP3    H133187   1.091   4.277  17.086 -0.3928 -2.4703  0.3138
 3924TIP3    H233188   1.098   4.265  16.935 -0.1249 -0.2208  0.1182
 3925TIP3   OH233189   5.761   1.884  13.506 -0.1080  0.0575 -0.2392
 3925TIP3    H133190   5.692   1.904  13.569 -0.2739 -0.0195 -0.3984
 3925TIP3    H233191   5.805   1.807  13.543  0.4154  0.5970  0.2786
 3926TIP3   OH233192   4.362   0.860   0.223  0.1474  0.7926  0.5442
 3926TIP3    H133193   4.325   0.941   0.257  0.1554  1.1571 -0.2994
 3926TIP3    H233194   4.310   0.791   0.264  0.1330  1.2158  1.2573
 3927TIP3   OH233195   3.228   3.972   2.139  0.2537 -0.2104 -0.0123
 3927TIP3    H133196   3.230   4.068   2.140 -0.0567 -0.2082  0.2459
 3927TIP3    H233197   3.248   3.946   2.228  1.0197 -0.4033 -0.2295
 3928TIP3   OH233198   3.055   6.578   5.320  0.3560  0.3859  0.7466
 3928TIP3    H133199   3.098   6.645   5.267  0.0299  0.2101  0.2542
 3928TIP3    H233200   3.107   6.499   5.304  0.8413  0.5531  1.4579
 3929TIP3   OH233201   2.419   4.091  13.891 -1.2448  0.5271  0.0712
 3929TIP3    H133202   2.358   4.026  13.858 -0.4051  0.8187 -2.2129
 3929TIP3    H233203   2.412   4.165  13.830  0.7221  0.9181  0.2378
 3930TIP3   OH233204   3.776   2.582   2.892  0.0405  0.5330 -0.2503
 3930TIP3    H133205   3.700   2.641   2.887 -1.1607 -0.9889 -0.7759
 3930TIP3    H233206   3.746   2.510   2.947  0.5606 -0.8470 -1.6967
 3931TIP3   OH233207   4.000   3.789  15.574 -0.8583  0.2496  0.0410
 3931TIP3    H133208   4.009   3.833  15.490 -1.0946 -0.3999 -0.3262
 3931TIP3    H233209   4.083   3.741  15.586  0.9361  3.4509  2.0479
 3932TIP3   OH233210   4.830   1.723   3.307 -0.2468 -0.1600  0.2453
 3932TIP3    H133211   4.795   1.802   3.267 -0.6182 -0.5982 -0.3170
 3932TIP3    H233212   4.760   1.658   3.298  1.2202 -1.5399 -2.3913
 3933TIP3   OH233213   0.280   0.891   0.179  0.1682  0.4249  0.0065
 3933TIP3    H133214   0.199   0.920   0.137  0.1353  1.9544  1.0473
 3933TIP3    H233215   0.342   0.962   0.162  1.1246 -0.4567 -0.2673
 3934TIP3   OH233216   3.125   2.313  11.379 -0.0647 -0.0683  0.0905
 3934TIP3    H133217   3.141   2.347  11.467 -0.7499 -2.0323  1.0537
 3934TIP3    H233218   3.032   2.328  11.364 -0.1058 -0.3680  0.0261
 3935TIP3   OH233219   6.078   6.710   2.042 -0.1959  0.0105 -0.1194
 3935TIP3    H133220   6.155   6.656   2.061  2.0539  2.3784 -1.7726
 3935TIP3    H233221   6.089   6.787   2.097 -0.7551  0.8909 -1.1954
 3936TIP3   OH233222   3.147   3.014   0.240 -0.1439  0.4310 -0.4708
 3936TIP3    H133223   3.113   2.925   0.243 -2.3921  1.2544  0.2612
 3936TIP3    H233224   3.218   3.015   0.305 -1.4258 -0.3217  1.0003
 3937TIP3   OH233225   6.421   3.118   3.806  0.2606  0.2414  0.5339
 3937TIP3    H133226   6.385   3.194   3.762 -1.0330 -0.1594  0.8494
 3937TIP3    H233227   6.486   3.153   3.867  1.4709  0.8584 -1.0722
 3938TIP3   OH233228   6.108   5.251  11.951 -0.2921  0.1009 -0.1439
 3938TIP3    H133229   6.047   5.304  12.002  3.4589  2.7813  2.0905
 3938TIP3    H233230   6.123   5.173  12.005  1.0624  1.2929  1.2853
 3939TIP3   OH233231   1.572   4.055  10.536  0.3910 -0.2358  0.0690
 3939TIP3    H133232   1.519   4.109  10.478  1.5326  0.2070 -0.5930
 3939TIP3    H233233   1.561   3.966  10.502  0.9034 -0.0049 -0.7455
 3940TIP3   OH233234   4.243   0.025   4.007 -0.0401 -0.1993 -0.1721
 3940TIP3    H133235   4.228   0.120   4.001 -0.5897 -0.2464  0.4100
 3940TIP3    H233236   4.299   0.005   3.931 -1.7635  0.2218 -1.6206
 3941TIP3   OH233237   5.624   0.644  13.551 -0.1390  0.0068 -0.4873
 3941TIP3    H133238   5.656   0.651  13.461  2.1937  0.3402  0.3009
 3941TIP3    H233239   5.642   0.730  13.589 -1.5432  0.0208  0.1848
 3942TIP3   OH233240   5.390   0.773  12.449  0.4552 -0.1863  0.0859
 3942TIP3    H133241   5.482   0.760  12.473  0.3417 -0.5845  0.3133
 3942TIP3    H233242   5.366   0.693  12.403 -0.0159 -0.4529  0.7763
 3943TIP3   OH233243   3.021   5.107   6.669 -0.3345 -0.6127  0.0603
 3943TIP3    H133244   2.937   5.095   6.715 -0.2870  0.4418  0.4433
 3943TIP3    H233245   3.084   5.059   6.722 -0.2757  0.6214  1.1542
 3944TIP3   OH233246   2.554   4.188   0.595 -0.5495 -0.1880  0.4081
 3944TIP3    H133247   2.582   4.209   0.684  0.8422 -0.3401  0.0202
 3944TIP3    H233248   2.459   4.179   0.602 -0.5953  0.9169  1.6527
 3945TIP3   OH233249   6.729   0.329  12.651  0.0933  0.0395  0.6729
 3945TIP3    H133250   6.742   0.423  12.666 -0.9278 -0.0036  2.0724
 3945TIP3    H233251   6.753   0.315  12.559 -1.8029  2.0786 -0.2122
 3946TIP3   OH233252   3.556   5.338   2.971 -0.3375 -0.1610 -0.3031
 3946TIP3    H133253   3.553   5.261   2.914  0.7453  0.4083 -1.1747
 3946TIP3    H233254   3.539   5.304   3.058 -0.0234 -1.3748 -0.6907
 3947TIP3   OH233255   3.144   5.730  11.035  0.1511  0.1880 -0.1142
 3947TIP3    H133256   3.159   5.745  11.129  1.2215  0.1977 -0.2738
 3947TIP3    H233257   3.140   5.635  11.026  1.4330  0.1297 -0.2401
 3948TIP3   OH233258   2.388   4.403  12.896  0.3708  0.4902  0.0102
 3948TIP3    H133259   2.438   4.440  12.823  0.1992 -0.8173 -0.7995
 3948TIP3    H233260   2.411   4.310  12.897 -1.5494 -0.0384 -0.0184
 3949TIP3   OH233261   3.609   6.702   4.224 -0.4367  0.3542  0.3951
 3949TIP3    H133262   3.689   6.754   4.221 -0.7188  0.7466 -0.5219
 3949TIP3    H233263   3.633   6.626   4.278  0.4053  0.7010  0.5341
 3950TIP3   OH233264   3.209   3.062   0.754  0.5118 -0.9925 -0.3363
 3950TIP3    H133265   3.268   3.088   0.824  0.5785 -1.2237 -0.3062
 3950TIP3    H233266   3.206   3.138   0.695  1.5787 -1.3172 -0.8370
 3951TIP3   OH233267   0.641   6.147   4.538 -0.5112  0.1833  0.0952
 3951TIP3    H133268   0.636   6.071   4.480 -2.8417  0.7034 -0.4977
 3951TIP3    H233269   0.695   6.210   4.491 -0.2229 -0.3708 -0.3235
 3952TIP3   OH233270   0.842   0.201  16.439 -0.2659 -0.1789 -0.0746
 3952TIP3    H133271   0.879   0.271  16.385  0.8448 -0.1403  0.6922
 3952TIP3    H233272   0.787   0.247  16.503  1.2038  0.1413  1.0322
 3953TIP3   OH233273   4.645   4.007   2.789  0.1357  0.0739 -0.2496
 3953TIP3    H133274   4.644   3.912   2.799  0.0474 -0.0875 -1.6495
 3953TIP3    H233275   4.707   4.037   2.856 -2.0571 -0.6649  2.2992
 3954TIP3   OH233276   2.308   1.378   3.945  0.0126 -0.0458  0.0654
 3954TIP3    H133277   2.308   1.304   4.006  2.4127  1.3056  1.9007
 3954TIP3    H233278   2.377   1.359   3.883 -1.7535 -0.9332 -1.7205
 3955TIP3   OH233279   1.926   0.236  12.032  0.1787  0.1216  0.2583
 3955TIP3    H133280   1.958   0.324  12.050 -2.6092  1.5993 -1.3945
 3955TIP3    H233281   1.894   0.240  11.942 -0.3771 -2.4915  0.2648
 3956TIP3   OH233282   3.854   4.596  17.111 -0.2120  0.0008 -0.1716
 3956TIP3    H133283   3.933   4.545  17.130  1.3082  1.5053 -2.0224
 3956TIP3    H233284   3.811   4.606  17.196  1.3723 -1.1783  0.8358
 3957TIP3   OH233285   6.695   3.528  12.150  0.5535  0.7785  0.1179
 3957TIP3    H133286   6.767   3.470  12.128  0.0060  0.3466 -0.5471
 3957TIP3    H233287   6.657   3.490  12.229  0.0738  0.1098 -0.4241
 3958TIP3   OH233288   3.993   3.520  17.226 -0.1209  0.5761  0.3490
 3958TIP3    H133289   3.914   3.469  17.207  0.0655 -0.2700  1.7175
 3958TIP3    H233290   4.065   3.460  17.209  0.0734 -0.0577  2.9432
 3959TIP3   OH233291   2.181   1.471  16.743  0.6272 -0.6182 -0.2744
 3959TIP3    H133292   2.207   1.383  16.770 -1.3402 -0.6297  1.9338
 3959TIP3    H233293   2.183   1.522  16.824 -0.0851  0.8826 -1.1738
 3960TIP3   OH233294   4.694   2.989   0.305  0.1091 -0.3697  0.6387
 3960TIP3    H133295   4.682   2.940   0.223  1.1169 -0.8833  0.7834
 3960TIP3    H233296   4.716   2.922   0.370  1.0665  0.2109  0.9367
 3961TIP3   OH233297   2.616   3.639   4.393  0.0800 -0.0272 -0.3723
 3961TIP3    H133298   2.620   3.589   4.475 -1.0090 -1.8237 -1.3528
 3961TIP3    H233299   2.707   3.646   4.365  0.2507 -1.9290 -0.4246
 3962TIP3   OH233300   5.942   2.994   2.680  0.0725 -0.4475  0.2563
 3962TIP3    H133301   5.863   3.045   2.660  0.4635  1.1145  2.3425
 3962TIP3    H233302   5.917   2.903   2.662 -2.2640 -0.0268  0.9706
 3963TIP3   OH233303   1.604   0.691   5.301  0.3639  0.6024 -0.4764
 3963TIP3    H133304   1.581   0.763   5.359  0.9453  0.9680 -0.6901
 3963TIP3    H233305   1.524   0.639   5.294  0.1062  0.9094  0.1330
 3964TIP3   OH233306   3.155   1.785  14.235  0.1614 -0.0624 -0.2686
 3964TIP3    H133307   3.067   1.820  14.229 -0.1689 -0.1400  2.7540
 3964TIP3    H233308   3.176   1.757  14.146 -2.7272  0.1969 -1.1137
 3965TIP3   OH233309   0.419   6.413   1.299  0.0328  0.3020  0.0766
 3965TIP3    H133310   0.464   6.356   1.361  0.1967 -0.9681 -1.1698
 3965TIP3    H233311   0.488   6.442   1.240 -0.0704  1.7328  0.6151
 3966TIP3   OH233312   1.557   5.442  15.423  0.4705  0.0844  0.1246
 3966TIP3    H133313   1.595   5.478  15.343 -0.3389 -0.4565 -0.5218
 3966TIP3    H233314   1.463   5.460  15.415  0.6469  3.0486  2.5193
 3967TIP3   OH233315   1.947   0.797   2.996 -0.3424 -0.1622  0.3092
 3967TIP3    H133316   2.017   0.860   3.016 -1.3979  0.7887  1.1638
 3967TIP3    H233317   1.929   0.810   2.903  1.3642 -1.2180 -0.1977
 3968TIP3   OH233318   6.355   4.424   1.689  0.2319 -0.0247  0.0005
 3968TIP3    H133319   6.437   4.437   1.736  0.0948 -0.5203  0.3818
 3968TIP3    H233320   6.383   4.405   1.599  0.5099  0.3973 -0.0089
 3969TIP3   OH233321   4.691   1.125  16.042  0.3239 -0.5184  0.2560
 3969TIP3    H133322   4.658   1.169  15.964 -1.1704 -1.4526  0.3012
 3969TIP3    H233323   4.772   1.170  16.064  0.8718 -0.3548 -1.9349
 3970TIP3   OH233324   4.880   2.468  16.533  0.1998 -0.7784  0.5644
 3970TIP3    H133325   4.853   2.470  16.441  0.0490 -0.7763  0.6085
 3970TIP3    H233326   4.905   2.558  16.553 -1.2990 -0.4309  0.9783
 3971TIP3   OH233327   5.087   3.098  14.877 -0.0525  0.5194 -0.3067
 3971TIP3    H133328   5.168   3.048  14.867  0.4635  1.5305 -1.5000
 3971TIP3    H233329   5.021   3.045  14.833 -0.0351 -0.2722  0.5993
 3972TIP3   OH233330   0.547   5.836  10.807 -0.5438 -0.2790 -0.2384
 3972TIP3    H133331   0.631   5.866  10.772 -0.5447 -0.3266 -0.2816
 3972TIP3    H233332   0.497   5.808  10.731 -1.2689  1.3730 -0.4172
 3973TIP3   OH233333   5.971   2.719  16.592 -0.2451 -0.5032  0.3489
 3973TIP3    H133334   6.009   2.714  16.680  0.6035 -0.0490  0.0241
 3973TIP3    H233335   6.040   2.760  16.539 -0.9702 -0.2269 -0.3986
 3974TIP3   OH233336   6.698   2.555  11.043  0.2214 -0.0869 -0.9700
 3974TIP3    H133337   6.723   2.627  10.985  2.1466  0.2491  0.1613
 3974TIP3    H233338   6.705   2.477  10.988  1.7851  0.2477 -1.3117
 3975TIP3   OH233339   5.209   4.336   0.488  0.7125 -0.2293 -0.3738
 3975TIP3    H133340   5.159   4.274   0.541  0.5986  0.4373  0.3170
 3975TIP3    H233341   5.149   4.364   0.420  0.6067 -0.5067 -0.3939
 3976TIP3   OH233342   1.178   1.455  10.390  0.3617 -0.2867 -0.1940
 3976TIP3    H133343   1.125   1.386  10.350  2.2908 -1.6198 -0.6014
 3976TIP3    H233344   1.114   1.515  10.428 -1.4769 -0.8462 -2.1778
 3977TIP3   OH233345   2.651   4.041  11.311 -0.3302  0.3521 -0.2219
 3977TIP3    H133346   2.638   4.051  11.217  0.5079 -2.4187 -0.7286
 3977TIP3    H233347   2.564   4.049  11.348 -1.0572 -0.8295 -1.5533
 3978TIP3   OH233348   3.056   1.587  14.695 -0.5278  0.5896 -0.1319
 3978TIP3    H133349   3.005   1.606  14.774  0.3062 -0.1766  0.6191
 3978TIP3    H233350   3.137   1.637  14.706  0.2342 -0.6780  0.2423
 3979TIP3   OH233351   5.491   3.037   2.371  0.9647 -0.0637  0.4126
 3979TIP3    H133352   5.571   3.083   2.348  1.2678 -1.3659 -1.3829
 3979TIP3    H233353   5.456   3.006   2.287 -0.0610 -1.6767  1.3735
 3980TIP3   OH233354   1.465   5.598  14.404 -0.0917  0.5784  0.7701
 3980TIP3    H133355   1.514   5.524  14.367 -0.1360  0.4679  0.9314
 3980TIP3    H233356   1.456   5.659  14.331  0.4153  0.6636  0.7746
 3981TIP3   OH233357   0.480   1.876   0.406  0.5939 -0.5774 -0.3220
 3981TIP3    H133358   0.478   1.971   0.394 -0.5083 -0.5697 -0.1302
 3981TIP3    H233359   0.502   1.842   0.319 -0.3561 -0.2002 -0.7253
 3982TIP3   OH233360   2.577   3.540  16.693  0.4658  0.0107  0.0866
 3982TIP3    H133361   2.665   3.506  16.680 -0.4252 -2.3700 -0.1369
 3982TIP3    H233362   2.524   3.500  16.624 -0.2894  3.9211 -1.9168
 3983TIP3   OH233363   6.190   2.771  13.897 -0.3743  0.4220 -0.0766
 3983TIP3    H133364   6.215   2.839  13.958  1.0011  0.3850 -0.5644
 3983TIP3    H233365   6.265   2.712  13.894 -1.0497 -0.4457 -0.5926
 3984TIP3   OH233366   5.797   4.380  15.728 -0.9086  0.2934  0.1876
 3984TIP3    H133367   5.805   4.422  15.642 -0.5191  2.7381  1.3295
 3984TIP3    H233368   5.705   4.389  15.750 -1.1175 -0.8180 -0.1634
 3985TIP3   OH233369   5.967   3.971  15.003 -0.1797  0.0312  0.3282
 3985TIP3    H133370   5.879   4.005  14.986  0.0783  0.3429 -0.4380
 3985TIP3    H233371   6.011   4.041  15.051  0.7674  1.4387 -2.3571
 3986TIP3   OH233372   1.987   4.315   0.072 -0.4989 -0.8570  0.6163
 3986TIP3    H133373   1.994   4.402   0.031  1.4134 -0.8638  0.8551
 3986TIP3    H233374   2.061   4.266   0.037 -0.7072 -1.9242  1.6247
 3987TIP3   OH233375   0.230   0.951   0.891 -0.4689  0.3347  0.5841
 3987TIP3    H133376   0.160   1.010   0.860  0.4376  1.2688  0.2731
 3987TIP3    H233377   0.311   0.993   0.862  0.2112 -1.0004  0.4923
 3988TIP3   OH233378   2.901   6.354   3.639  0.2568 -0.6866 -0.3130
 3988TIP3    H133379   2.867   6.332   3.553 -0.3874  1.6391 -0.7229
 3988TIP3    H233380   2.843   6.424   3.671  1.2118 -0.6479  1.4780
 3989TIP3   OH233381   1.719   0.968   1.029 -0.1582 -0.2322 -0.1971
 3989TIP3    H133382   1.666   0.951   1.107  2.9202  1.6667  2.5726
 3989TIP3    H233383   1.724   1.064   1.024 -0.1066 -0.3083 -2.6908
 3990TIP3   OH233384   0.977   6.379   3.718  0.4471 -0.2096  0.1996
 3990TIP3    H133385   1.001   6.318   3.648 -1.4890 -0.8376  0.0344
 3990TIP3    H233386   0.923   6.445   3.675  0.9068  0.5421  0.7529
 3991TIP3   OH233387   5.580   0.006   0.705  0.0688  0.2217  0.1286
 3991TIP3    H133388   5.588  -0.057   0.633  0.3011  0.4820 -0.0802
 3991TIP3    H233389   5.614   0.088   0.668  0.0223  0.4020  0.4806
 3992TIP3   OH233390   6.548   1.755   4.455  0.1028  0.5859  0.4669
 3992TIP3    H133391   6.453   1.752   4.455  0.1127 -0.3079  1.2530
 3992TIP3    H233392   6.574   1.682   4.511  1.2408  1.0823  0.6101
 3993TIP3   OH233393   3.235   5.626   6.145  0.7060 -0.1925 -0.3734
 3993TIP3    H133394   3.264   5.712   6.176  0.8073  0.3059 -1.8140
 3993TIP3    H233395   3.149   5.613   6.186 -0.3810  1.6421 -1.9416
 3994TIP3   OH233396   1.195   1.547   3.243  0.4392  0.1182  0.6658
 3994TIP3    H133397   1.189   1.465   3.292  1.2981 -0.4949 -0.2510
 3994TIP3    H233398   1.175   1.523   3.153 -2.6094  1.4801  0.8514
 3995TIP3   OH233399   0.683   6.039  11.956  0.1480  0.0971 -0.5443
 3995TIP3    H133400   0.704   6.132  11.953  1.6782 -0.1075  1.5829
 3995TIP3    H233401   0.745   5.998  11.896 -0.5491  0.4271 -1.5059
 3996TIP3   OH233402   0.554   1.933  13.511  0.5367  0.2350 -0.3149
 3996TIP3    H133403   0.503   1.852  13.519  0.1163  0.5988  1.1208
 3996TIP3    H233404   0.524   1.973  13.430  0.0317 -0.5747 -0.5337
 3997TIP3   OH233405   4.515   4.492  15.441 -0.0750  0.2034  0.6028
 3997TIP3    H133406   4.603   4.458  15.457  0.0313 -0.2413 -0.7854
 3997TIP3    H233407   4.522   4.586  15.456  1.1315  0.4652 -1.2566
 3998TIP3   OH233408   0.714   2.168  15.788  0.5677 -0.1430  0.4806
 3998TIP3    H133409   0.782   2.221  15.746 -0.2182  0.4811 -0.0297
 3998TIP3    H233410   0.735   2.172  15.881 -0.3584  2.4309  0.6598
 3999TIP3   OH233411   1.939   2.996  14.233  0.0143 -0.7214 -0.0508
 3999TIP3    H133412   1.916   3.078  14.276  0.6569 -0.2086 -0.6537
 3999TIP3    H233413   1.857   2.963  14.197 -0.2220 -0.2701  0.0694
 4000TIP3   OH233414   1.848   4.871  16.119  0.0587 -0.7272 -0.4167
 4000TIP3    H133415   1.899   4.811  16.174 -1.1455 -1.7880 -0.4112
 4000TIP3    H233416   1.758   4.863  16.153 -0.3682  0.0105 -1.3457
 4001TIP3   OH233417   2.515   4.630  14.370  0.2481  0.2646  0.0432
 4001TIP3    H133418   2.564   4.610  14.450 -0.4683 -3.1216 -0.2018
 4001TIP3    H233419   2.576   4.609  14.299  0.5865  2.4302 -0.3689
 4002TIP3   OH233420   0.470   2.604   1.845 -0.0716 -0.9022 -0.0957
 4002TIP3    H133421   0.443   2.518   1.813 -0.9824 -1.1771  1.3407
 4002TIP3    H233422   0.432   2.610   1.932  0.2451  0.8397 -0.0496
 4003TIP3   OH233423   1.064   2.590   5.509 -0.0961 -0.0477  0.2574
 4003TIP3    H133424   1.091   2.654   5.443  1.6623 -0.6537  0.3356
 4003TIP3    H233425   1.060   2.507   5.461 -0.1749 -0.2601  0.6305
 4004TIP3   OH233426   0.296   0.522   0.545 -0.0857  0.4174  0.1257
 4004TIP3    H133427   0.253   0.564   0.471  0.5312  0.8895  0.0276
 4004TIP3    H233428   0.227   0.472   0.588 -0.9270  1.7796  0.4298
 4005TIP3   OH233429   1.555   5.952  16.145  0.0539 -0.6517 -0.7639
 4005TIP3    H133430   1.612   6.025  16.169  1.6802 -2.5067  1.4929
 4005TIP3    H233431   1.607   5.899  16.085 -0.6154 -0.6488 -1.3615
 4006TIP3   OH233432   5.997   0.987  14.696  0.5025 -0.2424  0.1709
 4006TIP3    H133433   6.032   1.051  14.635  0.0558  1.2532  1.4338
 4006TIP3    H233434   6.075   0.941  14.729  0.8954  0.1287 -0.2272
 4007TIP3   OH233435   5.022   5.206  13.098 -0.1272  0.0264 -0.0755
 4007TIP3    H133436   5.092   5.217  13.163 -0.0449 -0.1114 -0.1402
 4007TIP3    H233437   5.010   5.294  13.061  0.6017 -0.1197 -0.6646
 4008TIP3   OH233438   3.433   6.556   3.484  0.1199  0.1889  0.1843
 4008TIP3    H133439   3.356   6.608   3.461  1.2669  1.9950  0.2822
 4008TIP3    H233440   3.424   6.540   3.578 -0.1833  0.2649  0.1705
 4009TIP3   OH233441   0.140   2.196  11.604  0.3753 -0.1920 -0.1971
 4009TIP3    H133442   0.216   2.220  11.656  0.0864 -0.6463  0.4661
 4009TIP3    H233443   0.073   2.259  11.629  0.3946 -0.0789 -0.4278
 4010TIP3   OH233444   3.581   4.520  16.345 -0.0234  0.1558 -0.2153
 4010TIP3    H133445   3.562   4.475  16.427 -1.5823  1.3670  0.1320
 4010TIP3    H233446   3.497   4.521  16.299  1.1055 -1.8631 -2.5796
 4011TIP3   OH233447   2.247   2.392  11.468  0.1189 -0.8233 -0.6770
 4011TIP3    H133448   2.280   2.479  11.446  2.6759 -1.4904  0.2209
 4011TIP3    H233449   2.216   2.400  11.559  0.3467 -0.8547 -0.5975
 4012TIP3   OH233450   2.963   3.292  14.875 -0.3411  0.3718  0.2106
 4012TIP3    H133451   3.035   3.327  14.821 -1.0204  2.7327  0.6962
 4012TIP3    H233452   2.885   3.304  14.821 -0.3519 -3.5988 -0.9466
 4013TIP3   OH233453   4.336   3.003   0.380  0.4960 -0.5967 -0.1062
 4013TIP3    H133454   4.329   2.954   0.298 -1.0808 -0.2680 -0.1985
 4013TIP3    H233455   4.265   3.068   0.375  1.4534  0.5560  0.7663
 4014TIP3   OH233456   5.215   1.696   1.947 -0.7461  0.3650  0.0711
 4014TIP3    H133457   5.197   1.790   1.945  0.0917  0.5333 -0.2738
 4014TIP3    H233458   5.309   1.691   1.965 -0.2108 -0.3364 -2.5795
 4015TIP3   OH233459   0.361   5.136  16.723  0.6350 -0.2417  0.1230
 4015TIP3    H133460   0.374   5.104  16.812  0.3329 -2.6213 -0.6112
 4015TIP3    H233461   0.338   5.228  16.734 -0.4645 -0.7172  2.5703
 4016TIP3   OH233462   5.698   6.751  12.992  0.1273  0.1077  0.4950
 4016TIP3    H133463   5.705   6.846  12.984 -2.8566  0.3700 -0.1978
 4016TIP3    H233464   5.697   6.719  12.902 -0.2631 -0.4180  0.6748
 4017TIP3   OH233465   2.656   3.960  13.338 -0.0347 -0.2778  0.5393
 4017TIP3    H133466   2.647   3.998  13.250  2.0453  0.1920  0.4920
 4017TIP3    H233467   2.620   3.871  13.329 -0.7092  0.0836 -0.5292
 4018TIP3   OH233468   0.972   6.743  15.207 -0.8602  0.2567 -0.4271
 4018TIP3    H133469   0.991   6.684  15.280 -1.9248 -0.0285 -0.3584
 4018TIP3    H233470   1.000   6.695  15.130 -3.9754 -1.5385 -0.6405
 4019TIP3   OH233471   4.443   3.989   0.335 -0.2748  0.6543  0.6643
 4019TIP3    H133472   4.372   4.051   0.320  0.0410  0.8273 -0.2227
 4019TIP3    H233473   4.402   3.903   0.327 -0.6531  0.7396  1.5845
 4020TIP3   OH233474   5.499   0.679   2.106  0.4851  0.0352  0.0341
 4020TIP3    H133475   5.436   0.750   2.093  0.6032  0.2948  0.7964
 4020TIP3    H233476   5.482   0.618   2.035  1.4493  1.5966 -1.6303
 4021TIP3   OH233477   3.396   1.699   1.535 -0.5913  0.2248  0.3465
 4021TIP3    H133478   3.396   1.794   1.535 -2.5836  0.3208 -2.0823
 4021TIP3    H233479   3.437   1.674   1.452  0.9017 -1.1192  1.4107
 4022TIP3   OH233480   4.825   1.407   4.876 -0.2941 -0.1402  0.0319
 4022TIP3    H133481   4.783   1.425   4.960  2.0049 -0.3136  1.2886
 4022TIP3    H233482   4.880   1.484   4.860  1.8998 -1.5412  0.4511
 4023TIP3   OH233483   5.055   0.476  12.769  0.6236  0.2400  0.2440
 4023TIP3    H133484   5.041   0.418  12.695  0.9863  1.8899 -1.1951
 4023TIP3    H233485   4.971   0.520  12.781  0.7593  0.4733  0.3531
 4024TIP3   OH233486   5.316   5.114  11.591 -0.1521 -0.3274  0.0406
 4024TIP3    H133487   5.368   5.050  11.640  0.3333 -1.1835 -1.5167
 4024TIP3    H233488   5.243   5.063  11.556 -0.9679  0.4548  0.5813
 4025TIP3   OH233489   0.564   0.946  12.058 -0.0821  0.0637 -0.4262
 4025TIP3    H133490   0.550   0.861  12.018 -1.6476  0.6592 -1.2231
 4025TIP3    H233491   0.582   1.004  11.984 -0.0001  0.6097  0.0154
 4026TIP3   OH233492   5.656   4.774   2.719 -0.3853 -0.3891  0.0964
 4026TIP3    H133493   5.670   4.863   2.753  1.5417 -0.1307 -1.2188
 4026TIP3    H233494   5.716   4.720   2.770  1.5303 -0.2084 -1.8106
 4027TIP3   OH233495   3.624   2.128   1.950  0.3599  0.7343 -0.4805
 4027TIP3    H133496   3.636   2.135   2.045  0.7186  0.2433 -0.4838
 4027TIP3    H233497   3.625   2.218   1.919 -2.2231  1.0766  0.2492
 4028TIP3   OH233498   1.601   3.049  11.118  0.1992  0.3738 -0.2085
 4028TIP3    H133499   1.563   2.962  11.106  1.4800 -0.4510  1.3384
 4028TIP3    H233500   1.545   3.091  11.182 -0.2841  0.6079 -0.7798
 4029TIP3   OH233501   1.763   3.814  16.663 -0.2065  0.1694 -0.7663
 4029TIP3    H133502   1.670   3.794  16.667 -0.2697  0.6259  0.4851
 4029TIP3    H233503   1.794   3.804  16.753  0.8446  0.5365 -1.0676
 4030TIP3   OH233504   2.252   2.606   3.126 -0.1183  0.5382  0.5266
 4030TIP3    H133505   2.247   2.561   3.210  0.3812  1.2379  0.9427
 4030TIP3    H233506   2.254   2.699   3.148  0.2913  0.7244 -0.2445
 4031TIP3   OH233507   0.726   6.167  16.297 -0.0199  0.3996 -0.0700
 4031TIP3    H133508   0.797   6.224  16.267 -1.2580  1.7744 -0.4634
 4031TIP3    H233509   0.683   6.138  16.217  0.3967 -0.8777  0.1412
 4032TIP3   OH233510   1.274   1.357   5.437  0.0727 -0.0579  0.1471
 4032TIP3    H133511   1.273   1.433   5.380 -0.4605 -0.0040  0.2217
 4032TIP3    H233512   1.364   1.324   5.432  0.6244  1.2363  1.0009
 4033TIP3   OH233513   4.204   4.214   4.939  0.1886  0.3847 -0.5417
 4033TIP3    H133514   4.185   4.152   5.009  0.1299  1.1550  0.1350
 4033TIP3    H233515   4.287   4.253   4.964 -0.7136  1.9839  0.0528
 4034TIP3   OH233516   6.006   5.949   6.577 -0.2281 -0.3502  0.1227
 4034TIP3    H133517   6.080   5.913   6.529  0.6700  0.4609  0.8665
 4034TIP3    H233518   5.983   6.029   6.530  1.2225  0.9305  1.4592
 4035TIP3   OH233519   1.516   4.285  14.712  0.0726  0.4353 -0.1545
 4035TIP3    H133520   1.605   4.271  14.743  0.3466  0.3576 -0.9404
 4035TIP3    H233521   1.499   4.212  14.652 -0.8185  0.0073  0.5894
 4036TIP3   OH233522   5.333   2.125   0.052 -0.2351  0.4861 -0.0853
 4036TIP3    H133523   5.279   2.047   0.041 -1.2245  0.8744  1.6724
 4036TIP3    H233524   5.403   2.097   0.111  0.6688  0.3839 -1.1731
 4037TIP3   OH233525   5.274   6.236  16.719  0.3006 -0.2614 -0.1066
 4037TIP3    H133526   5.265   6.309  16.781 -0.8522 -0.4372 -0.0311
 4037TIP3    H233527   5.312   6.165  16.771  0.5168 -0.0133  0.0753
 4038TIP3   OH233528   3.274   5.010  16.476 -0.1157  0.1907  0.7581
 4038TIP3    H133529   3.369   5.002  16.486 -0.0014  0.9554  0.3740
 4038TIP3    H233530   3.242   5.033  16.563  0.0086 -0.4111  0.9642
 4039TIP3   OH233531   5.339   3.654  13.518  0.2136 -0.5422  0.6096
 4039TIP3    H133532   5.286   3.574  13.507 -0.6187  0.1110 -0.3319
 4039TIP3    H233533   5.282   3.714  13.566  0.0890  0.1498 -0.3694
 4040TIP3   OH233534   2.572   5.690  14.538 -0.4106 -0.0431  0.0758
 4040TIP3    H133535   2.645   5.645  14.495  0.0885 -0.1156  0.9901
 4040TIP3    H233536   2.612   5.741  14.608 -1.1409  0.6573  0.0064
 4041TIP3   OH233537   0.985   3.934  10.946  0.0385 -0.3900 -0.0236
 4041TIP3    H133538   0.979   3.859  10.887  1.9983  0.2045 -1.0757
 4041TIP3    H233539   1.038   3.902  11.020 -1.3977 -0.7792  0.8818
 4042TIP3   OH233540   0.943   0.855   4.789 -0.3719 -0.0488 -0.0894
 4042TIP3    H133541   0.867   0.912   4.779  1.7799  2.8138 -2.1306
 4042TIP3    H233542   0.984   0.884   4.871 -0.8399 -0.8082  0.4257
 4043TIP3   OH233543   3.152   0.630   0.824  0.1855  0.0517  0.1052
 4043TIP3    H133544   3.156   0.664   0.734  0.8928  1.4077  0.6227
 4043TIP3    H233545   3.242   0.604   0.843 -0.3972 -2.7562 -0.4535
 4044TIP3   OH233546   4.655   4.263   0.296  0.1414 -0.5114 -0.4429
 4044TIP3    H133547   4.750   4.253   0.290  0.1844 -1.5890  1.3197
 4044TIP3    H233548   4.621   4.175   0.279 -0.5190 -0.2548 -0.4720
 4045TIP3   OH233549   0.311   6.757   0.882 -0.2564 -0.4913  0.3118
 4045TIP3    H133550   0.265   6.778   0.963  0.5696 -1.0767  0.9514
 4045TIP3    H233551   0.296   6.833   0.825 -0.6879  0.0140  1.0822
 4046TIP3   OH233552   1.174   0.005  15.859  0.2042  0.0429 -0.8397
 4046TIP3    H133553   1.244   0.069  15.871 -0.1496  0.0521  1.7605
 4046TIP3    H233554   1.093   0.056  15.868 -0.1132 -0.8228  3.0652
 4047TIP3   OH233555   6.598   0.503   4.403 -0.1001  0.3440  0.2717
 4047TIP3    H133556   6.568   0.413   4.391  1.0350 -0.2279  1.4302
 4047TIP3    H233557   6.520   0.552   4.431 -0.7693 -0.2205 -0.5785
 4048TIP3   OH233558   0.325   6.023  16.313 -0.1229 -0.0183  0.0682
 4048TIP3    H133559   0.232   6.036  16.331 -0.1623 -1.2984  0.9389
 4048TIP3    H233560   0.369   6.045  16.395  0.3017  0.0695 -0.1771
 4049TIP3   OH233561   3.041   5.592   3.305 -0.0148 -0.1928 -0.1077
 4049TIP3    H133562   2.952   5.558   3.321  0.2276 -0.4763  0.7142
 4049TIP3    H233563   3.027   5.678   3.267 -0.6486 -0.7314 -1.1422
 4050TIP3   OH233564   2.632   5.879   2.029 -0.1626 -0.2048  0.5762
 4050TIP3    H133565   2.668   5.941   1.966 -1.6206  0.5090  0.3973
 4050TIP3    H233566   2.630   5.796   1.982 -3.1821  0.7174 -1.1988
 4051TIP3   OH233567   2.102   5.703  12.260  0.3834 -0.5382 -0.4047
 4051TIP3    H133568   2.165   5.631  12.249  1.1062  0.0582 -0.1805
 4051TIP3    H233569   2.154   5.782  12.252 -0.4031 -0.0289 -0.5767
 4052TIP3   OH233570   0.895   1.052  11.312  0.0943 -0.3307  0.7515
 4052TIP3    H133571   0.989   1.047  11.331  0.3298 -0.7242 -0.4335
 4052TIP3    H233572   0.872   0.963  11.284 -0.6626 -0.2699  1.1613
 4053TIP3   OH233573   5.847   1.766   5.227 -0.1576  0.5571  0.4232
 4053TIP3    H133574   5.804   1.838   5.180  0.8787  0.7129 -0.3149
 4053TIP3    H233575   5.924   1.806   5.268  1.1205 -0.3175 -1.0075
 4054TIP3   OH233576   6.257   2.588   3.655  0.2101 -0.1125  0.3350
 4054TIP3    H133577   6.178   2.534   3.651  0.2727 -0.1340 -1.0940
 4054TIP3    H233578   6.314   2.553   3.586  0.6392  1.1437  0.0187
 4055TIP3   OH233579   0.551   1.005  16.792  0.2527  0.4045  0.9089
 4055TIP3    H133580   0.618   0.978  16.730 -1.4219  0.6408 -1.1153
 4055TIP3    H233581   0.572   1.096  16.812  0.3845  0.5787  0.0292
 4056TIP3   OH233582   2.445   6.054   5.655 -0.2604 -0.5023 -0.1142
 4056TIP3    H133583   2.484   6.137   5.681 -0.3314 -0.5399  0.1100
 4056TIP3    H233584   2.472   5.992   5.722  0.7416 -0.9221 -0.8825
 4057TIP3   OH233585   3.460   1.125   0.501  0.4053 -0.0297  0.2548
 4057TIP3    H133586   3.375   1.133   0.457  0.1786 -1.9759  0.2398
 4057TIP3    H233587   3.501   1.210   0.489 -2.3952  1.7585  2.0665
 4058TIP3   OH233588   2.650   0.425  11.574 -0.5460 -0.0129  0.2669
 4058TIP3    H133589   2.669   0.418  11.481 -1.8513  1.1722 -0.1192
 4058TIP3    H233590   2.560   0.394  11.583 -0.3769 -0.2835  1.1650
 4059TIP3   OH233591   5.476   2.561  13.881  0.2145  0.2876 -0.0135
 4059TIP3    H133592   5.387   2.579  13.912  0.0454 -0.7157  0.1214
 4059TIP3    H233593   5.524   2.641  13.899 -0.7423  0.9560 -0.3795
 4060TIP3   OH233594   3.540   6.359   4.929  0.0760  0.0382  0.8135
 4060TIP3    H133595   3.501   6.330   5.012 -2.5237 -0.8141 -0.5756
 4060TIP3    H233596   3.523   6.453   4.925 -0.0834  0.0213  1.1089
 4061TIP3   OH233597   1.563   2.893  13.113 -0.0793  0.4116  0.3397
 4061TIP3    H133598   1.511   2.893  13.033  0.6639 -2.5255 -0.2478
 4061TIP3    H233599   1.516   2.835  13.173  1.0787 -0.1116  0.7829
 4062TIP3   OH233600   4.876   5.187  14.061 -0.0340 -0.2182 -0.3859
 4062TIP3    H133601   4.879   5.147  13.974 -0.2248 -0.2097 -0.3957
 4062TIP3    H233602   4.832   5.270  14.048  1.7769  0.7579 -0.6642
 4063TIP3   OH233603   6.775   3.480  11.468 -0.6795 -0.1569 -0.4315
 4063TIP3    H133604   6.729   3.544  11.522  0.1328 -1.1426  1.5439
 4063TIP3    H233605   6.868   3.498  11.483 -0.4448 -1.1370 -0.6457
 4064TIP3   OH233606   1.062   0.343  11.425  0.0625  0.0870  0.5624
 4064TIP3    H133607   1.021   0.308  11.346 -2.6399  0.0923  1.8447
 4064TIP3    H233608   1.147   0.299  11.430 -0.2984 -0.9541 -1.5870
 4065TIP3   OH233609   2.326   5.331   5.746  0.1237  0.3253  0.4857
 4065TIP3    H133610   2.246   5.379   5.766 -0.3496 -0.4730  0.5306
 4065TIP3    H233611   2.389   5.359   5.812 -0.6974 -0.4705  1.6338
 4066TIP3   OH233612   0.758   3.692   3.824 -0.2257 -0.0406 -0.0820
 4066TIP3    H133613   0.663   3.680   3.824 -0.2030 -0.3470  0.9380
 4066TIP3    H233614   0.776   3.750   3.750 -1.1064 -0.7010 -0.8344
 4067TIP3   OH233615   5.305   1.822  13.839  1.0308 -0.8632  0.1292
 4067TIP3    H133616   5.227   1.818  13.783  0.3133  1.1766  0.8966
 4067TIP3    H233617   5.295   1.748  13.899 -1.4999  0.5152  1.5962
 4068TIP3   OH233618   3.936   2.046  14.486  0.0076  0.5146  0.5781
 4068TIP3    H133619   4.009   2.108  14.496 -0.4873  1.1281  0.4147
 4068TIP3    H233620   3.904   2.061  14.398 -0.1400  0.0418  0.5503
 4069TIP3   OH233621   2.756   1.675   5.926 -0.6387 -0.2225  0.1798
 4069TIP3    H133622   2.834   1.622   5.941 -0.8089 -0.3341  0.7284
 4069TIP3    H233623   2.779   1.761   5.961 -1.3685 -0.7387  2.0905
 4070TIP3   OH233624   1.792   4.780   1.974 -0.4375  0.0362 -0.0416
 4070TIP3    H133625   1.825   4.846   2.034 -1.2090 -0.3728  0.8564
 4070TIP3    H233626   1.841   4.794   1.893  0.2312  0.9438  0.5085
 4071TIP3   OH233627   4.795   3.201  14.154  0.0338 -0.0091  0.0768
 4071TIP3    H133628   4.743   3.150  14.216  1.5555 -1.4892  0.2139
 4071TIP3    H233629   4.794   3.149  14.074  2.7431 -1.1002  0.6271
 4072TIP3   OH233630   2.543   3.756  11.181  0.2403 -0.0407  0.4859
 4072TIP3    H133631   2.619   3.700  11.165 -1.0793 -1.7953  0.0006
 4072TIP3    H233632   2.540   3.766  11.276 -0.0303 -1.6826  0.6924
 4073TIP3   OH233633   5.134   4.103   3.490  0.3955 -0.0381  0.5880
 4073TIP3    H133634   5.166   4.054   3.414 -0.5173 -0.9002  0.7326
 4073TIP3    H233635   5.088   4.178   3.452  1.2815  0.3991  0.3456
 4074TIP3   OH233636   5.895   0.100   3.203  0.0526  0.4930 -0.7587
 4074TIP3    H133637   5.834   0.170   3.178 -0.3933  0.8141  1.1100
 4074TIP3    H233638   5.850   0.054   3.274  1.5065 -0.0030 -0.1406
 4075TIP3   OH233639   6.599   2.181  11.370 -0.5563 -0.2198  0.5212
 4075TIP3    H133640   6.560   2.239  11.436  1.5053  0.4352  1.2240
 4075TIP3    H233641   6.523   2.140  11.327 -2.1511  3.1403 -0.2054
 4076TIP3   OH233642   4.067   6.396   0.427 -0.0660  0.6886 -0.0990
 4076TIP3    H133643   4.067   6.359   0.338 -0.9577  1.1595 -0.3144
 4076TIP3    H233644   4.155   6.380   0.460  1.1928  2.8890 -2.0927
 4077TIP3   OH233645   6.331   0.726   0.547 -0.4192 -0.1313 -0.3449
 4077TIP3    H133646   6.246   0.762   0.572 -0.7112 -0.6389 -0.5863
 4077TIP3    H233647   6.389   0.802   0.544 -0.6669  0.1110  0.6247
 4078TIP3   OH233648   0.217   4.874  13.102 -0.0641 -0.3550 -0.3845
 4078TIP3    H133649   0.294   4.912  13.144 -0.0670 -0.4813 -0.2630
 4078TIP3    H233650   0.251   4.799  13.053 -0.2916 -1.2834  0.8168
 4079TIP3   OH233651   3.690   1.013   4.929 -0.5100 -0.5599 -0.3075
 4079TIP3    H133652   3.743   1.000   5.007  0.9989  0.3019 -1.1387
 4079TIP3    H233653   3.712   0.940   4.872  0.4879  0.2682 -1.0112
 4080TIP3   OH233654   2.574   2.572   4.805  0.0665 -0.1815 -0.2776
 4080TIP3    H133655   2.534   2.520   4.875 -0.0298 -0.9892 -0.9142
 4080TIP3    H233656   2.662   2.535   4.795 -0.1960 -0.6061 -1.1093
 4081TIP3   OH233657   2.739   5.513   2.820  0.4179  0.0038 -0.0925
 4081TIP3    H133658   2.735   5.528   2.725  0.4933 -1.0276 -0.2695
 4081TIP3    H233659   2.671   5.448   2.836  1.2672 -0.7896  0.3596
 4082TIP3   OH233660   2.884   6.740   1.297  0.4248  0.0463  0.7352
 4082TIP3    H133661   2.934   6.821   1.287 -1.2568  1.2276  1.4869
 4082TIP3    H233662   2.836   6.731   1.214  1.4399 -0.8083  0.2168
 4083TIP3   OH233663   1.255   6.559   5.865  0.0548 -0.1766 -0.0576
 4083TIP3    H133664   1.328   6.612   5.832  0.2043 -0.4433 -0.1529
 4083TIP3    H233665   1.179   6.590   5.815 -0.0485  0.6495  0.5952
 4084TIP3   OH233666   4.802   6.098  14.981 -0.2928  0.6929  0.0920
 4084TIP3    H133667   4.868   6.146  15.032 -0.3139 -1.2451  2.1331
 4084TIP3    H233668   4.853   6.047  14.918  0.1098  0.0127  0.9483
 4085TIP3   OH233669   5.244   1.270   3.397 -0.4816 -0.1111  0.1488
 4085TIP3    H133670   5.301   1.345   3.415 -0.3839 -0.4716  1.4559
 4085TIP3    H233671   5.165   1.308   3.360 -0.0582  0.5529 -0.0859
 4086TIP3   OH233672   3.502   6.077  16.179 -0.0999 -0.5554 -0.2522
 4086TIP3    H133673   3.581   6.106  16.224  0.5386  1.4452 -2.4764
 4086TIP3    H233674   3.534   6.020  16.108 -0.8009 -1.1236 -0.1217
 4087TIP3   OH233675   5.758   6.297   0.057  0.5606 -0.7249 -0.5059
 4087TIP3    H133676   5.741   6.386   0.026  2.1276 -0.1519  0.1900
 4087TIP3    H233677   5.673   6.266   0.088  0.4328  1.5257  1.7252
 4088TIP3   OH233678   2.865   5.383  10.727 -0.0229  0.1745 -0.6251
 4088TIP3    H133679   2.821   5.307  10.691  0.8069 -0.3372 -0.5842
 4088TIP3    H233680   2.944   5.392  10.674  0.4871  0.2816  0.1350
 4089TIP3   OH233681   0.511   3.311  11.725 -0.2856 -0.5505  0.0448
 4089TIP3    H133682   0.493   3.241  11.787 -1.2110  0.0990  0.5436
 4089TIP3    H233683   0.571   3.370  11.772  0.7247 -1.1370 -0.4798
 4090TIP3   OH233684   3.467   5.903  12.719 -0.1090 -0.6290 -0.4911
 4090TIP3    H133685   3.562   5.916  12.712 -0.3539  0.3275 -2.4532
 4090TIP3    H233686   3.454   5.811  12.694  0.4306 -1.3340  1.6000
 4091TIP3   OH233687   1.235   5.390   1.907  0.0918  0.1486  0.1236
 4091TIP3    H133688   1.202   5.429   1.825 -0.5522  1.9229  1.1714
 4091TIP3    H233689   1.217   5.297   1.898  1.3727  0.0545 -2.3710
 4092TIP3   OH233690   0.710   0.400  13.775  0.4433  0.2582  0.1276
 4092TIP3    H133691   0.770   0.454  13.723  0.0495  1.0001  0.4345
 4092TIP3    H233692   0.753   0.314  13.779  0.3529  0.0742 -1.6796
 4093TIP3   OH233693   6.214   3.467  16.746 -1.0622 -0.1408  0.3315
 4093TIP3    H133694   6.149   3.412  16.703  0.8468 -1.2442 -1.3470
 4093TIP3    H233695   6.226   3.542  16.687  0.2150 -0.7190 -0.2037
 4094TIP3   OH233696   0.151   5.702  12.369 -0.4400 -0.1110 -0.0669
 4094TIP3    H133697   0.244   5.723  12.364 -0.5329  0.3331  0.0500
 4094TIP3    H233698   0.107   5.780  12.336 -0.7711 -0.3039 -0.0782
 4095TIP3   OH233699   5.142   6.614  15.705 -0.6415 -1.2744  0.2538
 4095TIP3    H133700   5.127   6.699  15.664 -2.0655 -1.7768 -0.3503
 4095TIP3    H233701   5.235   6.596  15.690 -0.1216  0.5024  1.0940
 4096TIP3   OH233702   0.298   4.053   3.607 -0.0221  0.1972 -0.3724
 4096TIP3    H133703   0.280   4.065   3.513 -2.1100  2.2637  0.2075
 4096TIP3    H233704   0.352   4.128   3.631 -0.0328  0.0207  0.2165
 4097TIP3   OH233705   0.446   5.608   0.095 -0.0062 -0.8135  0.7236
 4097TIP3    H133706   0.496   5.567   0.024 -0.1762 -0.8523  0.6239
 4097TIP3    H233707   0.445   5.542   0.164  0.0596 -0.8229  0.7151
 4098TIP3   OH233708   2.166   6.787  12.621 -0.0305  0.2657  0.2716
 4098TIP3    H133709   2.094   6.731  12.590 -0.2118  0.4650  0.3352
 4098TIP3    H233710   2.128   6.874  12.627 -0.0625  0.1980  1.2650
 4099TIP3   OH233711   5.283   0.871   2.142  0.0014  0.3698  0.2593
 4099TIP3    H133712   5.324   0.958   2.140  0.3261  0.2134 -0.1787
 4099TIP3    H233713   5.235   0.866   2.059  0.3502 -0.0398  0.0811
 4100TIP3   OH233714   2.935   2.930   3.130  1.3132  0.2376 -0.5108
 4100TIP3    H133715   2.943   2.904   3.222  0.8394  3.0682  0.4251
 4100TIP3    H233716   3.018   2.971   3.109  0.5272  1.9794 -0.4423
 4101TIP3   OH233717   4.002   4.199  15.706  0.3259 -0.2240  0.0328
 4101TIP3    H133718   4.064   4.272  15.707  0.8118 -0.5466 -2.1658
 4101TIP3    H233719   3.927   4.230  15.757  1.6030  0.7902  1.3643
 4102TIP3   OH233720   1.901   2.381  15.062  0.3439  0.2570 -0.1493
 4102TIP3    H133721   1.995   2.395  15.076  0.4607  0.5024 -1.0998
 4102TIP3    H233722   1.864   2.382  15.149  1.2263  0.1830  0.2438
 4103TIP3   OH233723   6.448   4.423   3.522 -0.2086  0.4165  0.8831
 4103TIP3    H133724   6.454   4.328   3.537  0.3270  0.2273 -0.4295
 4103TIP3    H233725   6.502   4.461   3.591  2.5562 -0.4468 -0.6658
 4104TIP3   OH233726   4.543   4.794   1.405 -0.5030 -0.0792 -0.4604
 4104TIP3    H133727   4.588   4.714   1.377  2.1242  1.3787 -0.7601
 4104TIP3    H233728   4.579   4.813   1.491 -0.3986  1.2412 -0.7761
 4105TIP3   OH233729   0.391   1.679  13.488 -0.1217 -0.3145  0.2305
 4105TIP3    H133730   0.371   1.588  13.466 -1.9060  0.0606  0.1394
 4105TIP3    H233731   0.443   1.673  13.569  2.0720 -1.4744 -1.1620
 4106TIP3   OH233732   6.018   3.177   0.923 -0.3345  0.0763 -0.7058
 4106TIP3    H133733   6.013   3.109   0.856  0.7473  1.5330 -2.3461
 4106TIP3    H233734   5.932   3.218   0.923 -0.6187 -0.5184 -0.5484
 4107TIP3   OH233735   4.294   5.701  14.202  0.1975 -0.0668 -0.2333
 4107TIP3    H133736   4.299   5.711  14.107 -0.2010 -0.3276 -0.2842
 4107TIP3    H233737   4.200   5.694  14.221  0.2080  0.9182  0.2804
 4108TIP3   OH233738   3.565   3.284   1.792  0.5387 -0.0248  0.5550
 4108TIP3    H133739   3.624   3.307   1.863  3.2694  1.4947 -2.0053
 4108TIP3    H233740   3.495   3.349   1.796  1.0597  0.4938  1.3870
 4109TIP3   OH233741   3.812   1.173  16.979  0.4629  0.0749  0.3857
 4109TIP3    H133742   3.816   1.194  17.072  1.2338 -1.0728  0.6338
 4109TIP3    H233743   3.884   1.112  16.965 -0.0288 -0.2575 -0.8369
 4110TIP3   OH233744   3.667   4.097   4.253 -0.3757 -0.2088  0.4561
 4110TIP3    H133745   3.759   4.081   4.273  0.0088  0.5861 -0.5668
 4110TIP3    H233746   3.661   4.088   4.158 -1.1069  0.8543  0.3808
 4111TIP3   OH233747   0.775   4.233   5.065  0.1411  0.1317  0.9287
 4111TIP3    H133748   0.695   4.264   5.022  0.7089 -1.2968 -1.3728
 4111TIP3    H233749   0.752   4.147   5.100  0.3870  0.1786  1.2098
 4112TIP3   OH233750   0.760   5.354   1.098  0.4032  0.6535  0.1116
 4112TIP3    H133751   0.793   5.423   1.155  0.4869  1.3936 -0.8154
 4112TIP3    H233752   0.675   5.385   1.069  0.2565  0.1723  0.0163
 4113TIP3   OH233753   5.655   5.601  13.840 -0.1950  0.0688 -0.6724
 4113TIP3    H133754   5.642   5.696  13.842  1.1251  0.2619  1.4903
 4113TIP3    H233755   5.582   5.565  13.889  1.0026  0.2672  1.3481
 4114TIP3   OH233756   2.209   6.608   1.597 -0.0903  0.2758  0.0683
 4114TIP3    H133757   2.190   6.569   1.682  0.8084  0.8531  0.5479
 4114TIP3    H233758   2.131   6.590   1.545 -1.8437  2.2348  1.8259
 4115TIP3   OH233759   1.785   3.376  15.155  0.3271  0.2774 -0.6573
 4115TIP3    H133760   1.826   3.463  15.154 -0.2021  0.5369 -2.3608
 4115TIP3    H233761   1.859   3.316  15.147  0.6354  0.5969 -0.2977
 4116TIP3   OH233762   6.197   0.108  12.671 -0.5132  0.7109 -0.7461
 4116TIP3    H133763   6.205   0.204  12.669  1.0389  0.6107 -0.2181
 4116TIP3    H233764   6.283   0.076  12.645 -0.9809 -0.5538 -0.7800
 4117TIP3   OH233765   1.778   6.449  13.042 -0.1505 -0.1517 -0.8944
 4117TIP3    H133766   1.849   6.488  13.093 -2.0554  3.0880 -0.4451
 4117TIP3    H233767   1.724   6.403  13.106 -0.3080  0.3443 -0.6718
 4118TIP3   OH233768   0.883   3.119  14.300 -0.1193  0.4404 -0.4502
 4118TIP3    H133769   0.844   3.197  14.340  1.3867  0.8923  0.2271
 4118TIP3    H233770   0.922   3.072  14.374  1.7577  0.7115 -1.2176
 4119TIP3   OH233771   2.179   3.686  12.855  0.0614 -0.0802  0.5935
 4119TIP3    H133772   2.189   3.632  12.932 -1.3221 -0.1397  0.7616
 4119TIP3    H233773   2.218   3.635  12.784  0.3695 -0.5016  1.0603
 4120TIP3   OH233774   2.872   4.296   3.862  0.1871  0.4992 -0.0787
 4120TIP3    H133775   2.948   4.337   3.822  1.1463 -0.2762  0.8645
 4120TIP3    H233776   2.843   4.231   3.798  0.9130  0.1516 -0.0677
 4121TIP3   OH233777   3.521   2.703  13.665  0.3353  0.1347  0.6607
 4121TIP3    H133778   3.602   2.754  13.673 -1.3175  2.9855  0.3809
 4121TIP3    H233779   3.544   2.631  13.607  2.1160  2.1567 -1.3144
 4122TIP3   OH233780   5.363   2.694   3.485  0.1117 -0.5103 -0.1833
 4122TIP3    H133781   5.428   2.745   3.533 -1.4850  0.8945  0.5602
 4122TIP3    H233782   5.412   2.658   3.410  2.0522 -0.6932  1.0917
 4123TIP3   OH233783   3.203   0.879  16.513  0.2872 -0.3672  0.4059
 4123TIP3    H133784   3.146   0.844  16.581 -0.1777  0.5723  0.5164
 4123TIP3    H233785   3.230   0.965  16.547  0.1198  0.0718 -0.5440
 4124TIP3   OH233786   0.580   0.450  11.075  0.3725 -0.3588 -0.5156
 4124TIP3    H133787   0.506   0.395  11.050 -0.2280  0.3337 -0.2908
 4124TIP3    H233788   0.557   0.537  11.043  0.1442  0.2926  1.2967
 4125TIP3   OH233789   3.308   0.744   5.568  0.1967 -0.7371 -0.3933
 4125TIP3    H133790   3.375   0.682   5.597  0.3075 -0.3787  0.1151
 4125TIP3    H233791   3.278   0.787   5.648  2.2191  2.0257 -0.9403
 4126TIP3   OH233792   5.483   1.786  15.687 -0.0177 -0.0261  0.1756
 4126TIP3    H133793   5.478   1.780  15.783 -0.4010 -1.2604  0.0987
 4126TIP3    H233794   5.534   1.865  15.671  1.0373 -0.4119  1.4249
 4127TIP3   OH233795   0.636   5.476  13.976 -0.4122  0.0140 -0.5516
 4127TIP3    H133796   0.601   5.390  13.999  1.9005 -1.1596 -1.1513
 4127TIP3    H233797   0.612   5.532  14.050 -0.2000 -1.6445  0.8402
 4128TIP3   OH233798   1.303   1.915  11.387 -0.2685 -0.4084  0.4460
 4128TIP3    H133799   1.223   1.952  11.350 -0.2558 -1.4313 -0.6740
 4128TIP3    H233800   1.372   1.945  11.328  0.4139  1.6306  2.1882
 4129TIP3   OH233801   5.440   3.988   2.567  0.3371  0.3725 -0.4175
 4129TIP3    H133802   5.462   4.031   2.485 -0.0447  0.3552 -0.5306
 4129TIP3    H233803   5.515   3.931   2.585  0.0150 -0.3444 -1.2444
 4130TIP3   OH233804   1.494   2.277  14.296  0.0134 -0.2316 -0.3889
 4130TIP3    H133805   1.523   2.288  14.387  2.0111 -0.0130 -1.0211
 4130TIP3    H233806   1.429   2.346  14.284  0.0665  0.0432  0.7389
 4131TIP3   OH233807   6.380   4.023   3.070 -0.5093  0.2067 -0.2553
 4131TIP3    H133808   6.452   4.084   3.081 -0.7241  0.3467  0.4318
 4131TIP3    H233809   6.405   3.968   2.996 -1.3315  2.5821 -2.4423
 4132TIP3   OH233810   1.730   1.738  15.776  0.4825 -0.4685  0.3601
 4132TIP3    H133811   1.761   1.671  15.837  0.4705 -0.1013  0.7714
 4132TIP3    H233812   1.768   1.820  15.808 -0.0043 -0.1821  0.2222
 4133TIP3   OH233813   2.689   6.436   3.291 -0.1487 -0.1848  0.1155
 4133TIP3    H133814   2.599   6.414   3.264  0.0317  0.5777 -1.2007
 4133TIP3    H233815   2.725   6.484   3.216  0.5653  1.6237  1.5580
 4134TIP3   OH233816   0.992   0.959  15.038  0.0462  0.0611 -0.6023
 4134TIP3    H133817   0.957   0.870  15.045  0.6346 -0.3580 -2.4101
 4134TIP3    H233818   1.079   0.953  15.078  1.9577 -1.4109 -4.4700
 4135TIP3   OH233819   3.667   1.593   5.733 -0.1098  0.3749  0.1723
 4135TIP3    H133820   3.742   1.537   5.752  1.8424  2.1079 -1.8882
 4135TIP3    H233821   3.684   1.674   5.781 -0.3238  1.0096 -0.7979
 4136TIP3   OH233822   1.973   1.314   5.167 -0.8186  1.2893  0.6193
 4136TIP3    H133823   2.045   1.308   5.230  0.0502  4.2583  0.0619
 4136TIP3    H233824   2.012   1.286   5.084 -1.0271  0.6093  0.7394
 4137TIP3   OH233825   0.409   5.350   3.499  0.0419 -0.3263 -0.0071
 4137TIP3    H133826   0.380   5.323   3.586  0.2332 -3.3667 -0.7641
 4137TIP3    H233827   0.329   5.381   3.455 -0.2716  0.1111  0.8650
 4138TIP3   OH233828   0.793   4.130  12.836 -0.2396  0.4359  0.1312
 4138TIP3    H133829   0.784   4.136  12.741 -0.3826  0.7631  0.1649
 4138TIP3    H233830   0.888   4.136  12.851 -0.0641 -1.3147 -0.0976
 4139TIP3   OH233831   2.544   3.837   0.759  0.8753 -0.4860 -0.1189
 4139TIP3    H133832   2.585   3.772   0.816  2.7433 -0.9078 -1.8422
 4139TIP3    H233833   2.614   3.865   0.700 -0.3096  1.8598 -0.5384
 4140TIP3   OH233834   1.206   6.378   6.078 -0.2465 -0.3499  0.0829
 4140TIP3    H133835   1.153   6.424   6.143 -0.2538 -0.0608 -0.1307
 4140TIP3    H233836   1.227   6.443   6.012  1.2910 -0.1688  0.6995
 4141TIP3   OH233837   0.022   5.168   1.989 -0.2199  0.2812  0.2138
 4141TIP3    H133838  -0.033   5.109   1.936 -0.3712 -0.0458  0.7302
 4141TIP3    H233839   0.099   5.185   1.934  0.0763 -0.8252  0.2759
 4142TIP3   OH233840   2.546   3.033  13.288 -0.3219  0.4219 -0.1402
 4142TIP3    H133841   2.623   2.981  13.267  0.1235  0.6676  0.8271
 4142TIP3    H233842   2.474   2.989  13.242  0.1000 -0.8631  0.3764
 4143TIP3   OH233843   5.802   5.901   0.724 -0.0722  0.2957  0.3690
 4143TIP3    H133844   5.714   5.904   0.761  0.2276 -1.0819  1.3001
 4143TIP3    H233845   5.856   5.952   0.784  0.2733 -1.3113  1.4921
 4144TIP3   OH233846   5.386   5.727  11.533 -0.2087 -0.4998 -0.3356
 4144TIP3    H133847   5.403   5.632  11.531  0.7167 -0.3455 -0.2928
 4144TIP3    H233848   5.473   5.766  11.536 -0.5893  0.3614 -0.4530
 4145TIP3   OH233849   4.600   3.645   5.081  0.1931 -0.2046  0.8828
 4145TIP3    H133850   4.626   3.709   5.014 -1.5199  1.3903  1.6547
 4145TIP3    H233851   4.510   3.622   5.059  1.4097 -4.3980 -0.8072
 4146TIP3   OH233852   3.992   5.239   2.306  0.1134  0.3357  0.1586
 4146TIP3    H133853   4.011   5.147   2.285 -1.1617 -0.2187  1.2674
 4146TIP3    H233854   4.048   5.258   2.381 -0.4190  0.1090  0.6184
 4147TIP3   OH233855   2.478   1.501   0.337 -0.6391  0.4245  0.1615
 4147TIP3    H133856   2.418   1.563   0.295  1.8558  3.7325  1.0086
 4147TIP3    H233857   2.450   1.499   0.429  0.4158  1.9766  0.5596
 4148TIP3   OH233858   5.461   4.073  14.482  0.1653 -0.1772  0.4252
 4148TIP3    H133859   5.476   4.137  14.412  0.0194 -1.3585 -0.7025
 4148TIP3    H233860   5.512   4.107  14.556  1.9238  0.0520 -0.8547
 4149TIP3   OH233861   0.543   0.010  15.859  0.5784  0.2802 -0.2609
 4149TIP3    H133862   0.550   0.102  15.833 -1.0370  0.2741 -0.8689
 4149TIP3    H233863   0.468   0.008  15.919  0.2237 -0.7133 -0.7176
 4150TIP3   OH233864   4.885   3.010   1.768 -0.3490 -0.3295  0.0048
 4150TIP3    H133865   4.959   3.003   1.829  0.7328  0.9960 -1.0781
 4150TIP3    H233866   4.844   2.924   1.770  0.2057 -0.6006  1.8879
 4151TIP3   OH233867   2.556   4.660  15.675  0.2519 -0.4307  0.1195
 4151TIP3    H133868   2.525   4.598  15.609 -1.7513  0.8363 -0.2100
 4151TIP3    H233869   2.498   4.735  15.667 -0.9971 -0.6939  4.1864
 4152TIP3   OH233870   5.530   4.383  15.777  0.3523 -0.4852 -0.2610
 4152TIP3    H133871   5.522   4.312  15.713 -0.7874 -0.2577 -0.3848
 4152TIP3    H233872   5.456   4.440  15.759  0.3746 -0.0878  0.8665
 4153TIP3   OH233873   4.642   4.768   1.105 -0.4179 -0.2498 -0.1435
 4153TIP3    H133874   4.708   4.733   1.165  0.0766  1.1243  0.1767
 4153TIP3    H233875   4.612   4.848   1.148  0.5795  1.2617 -2.0892
 4154TIP3   OH233876   5.243   2.779   5.373  0.4214 -0.6659  0.1834
 4154TIP3    H133877   5.314   2.822   5.422 -1.0936 -0.2341  2.1356
 4154TIP3    H233878   5.229   2.697   5.420 -0.4473 -0.6776 -0.0841
 4155TIP3   OH233879   0.230   6.264   5.181 -0.4939 -1.0189 -0.4334
 4155TIP3    H133880   0.230   6.168   5.186  2.5346 -1.2092 -1.8955
 4155TIP3    H233881   0.271   6.292   5.262 -0.8716 -0.9838 -0.2533
 4156TIP3   OH233882   0.772   4.753  14.519  0.4678 -0.0987  0.1756
 4156TIP3    H133883   0.788   4.727  14.610 -2.7583  0.1651  0.9374
 4156TIP3    H233884   0.748   4.671  14.475  1.0375 -0.0608 -0.2212
 4157TIP3   OH233885   3.746   4.110  11.272 -0.4832 -0.7353  0.7958
 4157TIP3    H133886   3.794   4.043  11.222 -0.9409 -2.6375  2.7816
 4157TIP3    H233887   3.665   4.123  11.223  1.3959  1.7423 -2.0311
 4158TIP3   OH233888   5.367   1.640  14.464 -0.3876 -0.6013  0.6368
 4158TIP3    H133889   5.295   1.665  14.406  0.5798 -1.4115 -0.9908
 4158TIP3    H233890   5.408   1.723  14.488 -0.3594 -0.2733 -0.4758
 4159TIP3   OH233891   5.004   2.839  15.969  0.3366 -0.2753 -0.4477
 4159TIP3    H133892   4.975   2.826  16.060  0.7523 -0.7802 -0.3832
 4159TIP3    H233893   4.984   2.931  15.951  0.9763  0.0507  0.4187
 4160TIP3   OH233894   2.858   1.248   3.955 -0.0146 -0.0774 -0.0849
 4160TIP3    H133895   2.911   1.218   3.882 -0.5881  0.9373 -0.9557
 4160TIP3    H233896   2.827   1.167   3.997 -0.1172 -0.6913 -1.2943
 4161TIP3   OH233897   0.292   3.742  16.517 -0.2851 -0.3093  0.0857
 4161TIP3    H133898   0.382   3.714  16.501  0.0657 -0.2790  1.8282
 4161TIP3    H233899   0.276   3.721  16.609 -0.9982  2.4975  0.6832
 4162TIP3   OH233900   6.067   2.452  12.114  0.3465  0.3695  0.3185
 4162TIP3    H133901   6.011   2.408  12.178 -0.5670  0.9208 -0.0823
 4162TIP3    H233902   6.126   2.383  12.083 -2.3147 -1.1890 -1.7797
 4163TIP3   OH233903   5.281   2.923  16.796 -0.0733  0.0832 -0.0363
 4163TIP3    H133904   5.268   3.000  16.853 -0.4349 -0.4033  0.5567
 4163TIP3    H233905   5.253   2.952  16.710  0.4717  0.8348  0.0291
 4164TIP3   OH233906   1.357   0.954   3.336 -0.6916 -0.6100  0.3642
 4164TIP3    H133907   1.378   0.944   3.428 -1.2996 -0.5793  0.5131
 4164TIP3    H233908   1.358   1.049   3.321 -2.2187 -0.5113  0.7485
 4165TIP3   OH233909   0.909   1.028   2.941  0.6869  0.4837 -0.2928
 4165TIP3    H133910   0.871   0.976   3.012  1.8123 -0.9836 -0.7139
 4165TIP3    H233911   0.836   1.043   2.881  0.5142 -1.5007 -0.6519
 4166TIP3   OH233912   6.546   1.126   0.128 -0.4453 -0.9112 -0.5951
 4166TIP3    H133913   6.495   1.166   0.058 -0.8625 -0.3299  0.0313
 4166TIP3    H233914   6.570   1.040   0.094 -1.2446 -0.9136 -1.1805
 4167TIP3   OH233915   0.964   5.141   2.835 -0.0807  1.0336 -0.2923
 4167TIP3    H133916   0.881   5.102   2.861  0.3109  0.6182  0.3721
 4167TIP3    H233917   1.028   5.105   2.897  0.7652  0.5474 -1.3908
 4168TIP3   OH233918   3.493   3.275  15.147  0.4663 -0.4524 -0.8102
 4168TIP3    H133919   3.488   3.347  15.211 -1.9308 -1.1806 -0.0732
 4168TIP3    H233920   3.572   3.227  15.172  2.6106  2.2808 -1.8165
 4169TIP3   OH233921   0.042   6.665  17.103 -0.3532  0.1752 -0.6023
 4169TIP3    H133922   0.118   6.618  17.069 -1.0713 -2.8962  1.5360
 4169TIP3    H233923   0.074   6.707  17.183 -0.9236 -1.8924  0.8213
 4170TIP3   OH233924   6.439   1.240  16.142  0.1357  0.2022  0.5305
 4170TIP3    H133925   6.409   1.235  16.051  0.1885  1.8215  0.4032
 4170TIP3    H233926   6.457   1.149  16.165  1.8215 -0.1034 -1.6445
 4171TIP3   OH233927   0.556   0.820  15.697  0.3195  0.2036 -0.0604
 4171TIP3    H133928   0.643   0.834  15.658  0.3790  0.4744  0.1636
 4171TIP3    H233929   0.557   0.728  15.724  0.0834 -0.1312 -1.1591
 4172TIP3   OH233930   5.077   0.338   1.542 -0.3041  0.7134 -0.4935
 4172TIP3    H133931   5.064   0.329   1.636  1.2818  0.7019 -0.2459
 4172TIP3    H233932   5.171   0.327   1.530 -0.5698 -0.0007 -2.1718
 4173TIP3   OH233933   3.036   2.976   2.028  0.4775 -0.2870 -0.3642
 4173TIP3    H133934   3.090   3.055   2.023  0.8657 -0.5908 -0.9956
 4173TIP3    H233935   3.037   2.940   1.940  0.3703 -1.0434 -0.0659
 4174TIP3   OH233936   2.280   0.000  11.231  0.3998  0.2389  0.1024
 4174TIP3    H133937   2.191   0.005  11.264 -0.3113 -1.3050 -1.4195
 4174TIP3    H233938   2.306  -0.091  11.244  0.9257  0.1426 -1.3635
 4175TIP3   OH233939   0.564   6.116   0.462  0.6133  0.0883 -0.2778
 4175TIP3    H133940   0.598   6.166   0.537 -0.2987 -0.3466  0.4439
 4175TIP3    H233941   0.560   6.026   0.493  1.7473 -0.3797 -1.4003
 4176TIP3   OH233942   5.625   5.616   4.698  0.0066  0.5996 -0.4708
 4176TIP3    H133943   5.544   5.593   4.744  0.7362  0.0885  0.6151
 4176TIP3    H233944   5.675   5.666   4.763  1.6856 -1.3813 -0.1573
 4177TIP3   OH233945   2.090   2.798  15.693  0.3414 -0.1184 -0.6320
 4177TIP3    H133946   2.036   2.808  15.771 -1.3668 -2.0737 -1.4353
 4177TIP3    H233947   2.156   2.866  15.699  0.2793 -0.2150  2.4967
 4178TIP3   OH233948   6.197   5.920  12.966  0.3844  0.3961  0.3358
 4178TIP3    H133949   6.178   6.013  12.950  2.2741  0.9386  1.0160
 4178TIP3    H233950   6.271   5.921  13.027  0.7642 -1.5676 -0.0416
 4179TIP3   OH233951   5.683   1.132  14.451 -0.2221 -0.2507  0.0501
 4179TIP3    H133952   5.603   1.181  14.435 -0.2931 -0.5862 -0.6713
 4179TIP3    H233953   5.657   1.040  14.443 -0.3041 -0.4789  2.3559
 4180TIP3   OH233954   3.280   1.966   2.898  0.2654 -0.6341  0.8791
 4180TIP3    H133955   3.303   1.901   2.831  0.9766  1.5293 -1.1106
 4180TIP3    H233956   3.185   1.976   2.890  0.4749  0.4497 -0.7282
 4181TIP3   OH233957   6.077   1.431  17.021  0.3457 -0.7250 -0.6061
 4181TIP3    H133958   6.028   1.349  17.015 -3.1032  1.0385  0.2534
 4181TIP3    H233959   6.073   1.468  16.933  0.7959 -0.9088 -0.7048
 4182TIP3   OH233960   2.841   0.041   6.319 -0.1477  0.3584 -0.1060
 4182TIP3    H133961   2.913   0.053   6.258 -0.5783 -1.8810 -1.1607
 4182TIP3    H233962   2.764   0.077   6.275  0.0380  1.3396  0.3579
 4183TIP3   OH233963   0.792   4.680  17.006 -0.5704  0.4238 -0.4799
 4183TIP3    H133964   0.814   4.633  16.926  0.7816  0.6019 -0.2408
 4183TIP3    H233965   0.876   4.713  17.038 -0.9474 -0.4571  1.5354
 4184TIP3   OH233966   1.410   0.321   5.594  0.2439  0.1686  0.1785
 4184TIP3    H133967   1.318   0.302   5.575 -0.2067  1.8552  0.5572
 4184TIP3    H233968   1.422   0.293   5.685  0.2490 -0.4921 -0.0198
 4185TIP3   OH233969   3.504   1.714   3.044  0.3443  0.0273 -0.0235
 4185TIP3    H133970   3.447   1.753   3.110  2.0102  0.4889  1.2012
 4185TIP3    H233971   3.463   1.631   3.023 -0.9020  0.4540  0.6306
 4186TIP3   OH233972   0.677   3.336  13.420 -0.6032  0.2814 -0.3344
 4186TIP3    H133973   0.700   3.259  13.472  1.7660  0.4884 -0.9371
 4186TIP3    H233974   0.690   3.309  13.329 -0.0703  1.2757 -0.5713
 4187TIP3   OH233975   2.460   0.631  11.245  0.0069 -0.0666  0.3327
 4187TIP3    H133976   2.507   0.702  11.290 -2.7286  1.2481  1.3329
 4187TIP3    H233977   2.368   0.651  11.259 -0.9034 -2.5355 -1.4869
 4188TIP3   OH233978   4.417   2.084  15.075 -0.2821 -0.1740  0.6609
 4188TIP3    H133979   4.454   2.100  14.988 -1.8132  1.3767  0.2316
 4188TIP3    H233980   4.487   2.040  15.123  1.2603  0.5617 -0.7958
 4189TIP3   OH233981   5.797   3.841  11.043  0.1092  0.3562 -0.0101
 4189TIP3    H133982   5.780   3.913  11.103 -0.8361  3.0523 -3.2070
 4189TIP3    H233983   5.714   3.793  11.039  0.1958  0.1183  0.7904
 4190TIP3   OH233984   1.549   4.777  13.217 -0.7747  0.2299  0.1480
 4190TIP3    H133985   1.582   4.708  13.159  1.2841  0.8456  0.5059
 4190TIP3    H233986   1.587   4.757  13.302 -0.2528  1.7113  0.2854
 4191TIP3   OH233987   5.176   6.772  11.571 -0.5429  0.1093 -0.1032
 4191TIP3    H133988   5.127   6.853  11.567 -0.2321  0.3390  0.5088
 4191TIP3    H233989   5.264   6.796  11.541  0.0041  0.3884  1.6333
 4192TIP3   OH233990   0.188   6.261   2.950 -0.4682 -0.8243 -0.2001
 4192TIP3    H133991   0.144   6.333   2.995  1.0015 -1.2767  2.1274
 4192TIP3    H233992   0.132   6.242   2.874 -2.0156  1.3102  0.3172
 4193TIP3   OH233993   4.746   5.288   2.309 -0.7170 -0.1362  0.4930
 4193TIP3    H133994   4.708   5.317   2.392 -0.3563  2.0086 -0.0170
 4193TIP3    H233995   4.777   5.369   2.268 -0.4519 -1.1970 -1.5176
 4194TIP3   OH233996   1.665   6.769   4.184  0.2536  0.5533  0.3461
 4194TIP3    H133997   1.654   6.864   4.192 -0.0853  0.4919  0.6690
 4194TIP3    H233998   1.760   6.756   4.187  0.3143  0.8981  0.0763
 4195TIP3   OH233999   5.124   0.469   4.104 -0.1220 -0.3715  0.3045
 4195TIP3    H134000   5.143   0.510   4.019  0.5048  0.1289  0.6779
 4195TIP3    H234001   5.090   0.539   4.158  0.1510 -0.5283  0.6860
 4196TIP3   OH234002   3.580   2.140   3.052 -0.5388  0.3975  0.5295
 4196TIP3    H134003   3.545   2.103   3.134 -1.1287  0.0733  0.1416
 4196TIP3    H234004   3.603   2.230   3.075 -0.4439  0.2293  1.1228
 4197TIP3   OH234005   6.072   4.183  15.176  1.1672 -0.2064  0.0647
 4197TIP3    H134006   6.042   4.185  15.267  0.3442 -1.2787 -0.1623
 4197TIP3    H234007   6.056   4.272  15.144 -1.8838 -0.6832 -0.0289
 4198TIP3   OH234008   4.724   5.234  13.092  0.0561  0.5986 -0.0245
 4198TIP3    H134009   4.813   5.199  13.096  0.0563  0.6432  0.3446
 4198TIP3    H234010   4.687   5.217  13.178 -0.5894 -0.1919 -0.4395
 4199TIP3   OH234011   4.465   0.368  16.745  0.0686  0.0381 -0.1677
 4199TIP3    H134012   4.401   0.351  16.676 -0.0519  0.3347 -0.1295
 4199TIP3    H234013   4.415   0.367  16.826  0.1629 -0.0312 -0.1100
 4200TIP3   OH234014   0.657   5.236   5.279 -0.1949  0.2237 -0.9754
 4200TIP3    H134015   0.700   5.235   5.194 -0.1733 -0.2294 -0.9596
 4200TIP3    H234016   0.571   5.274   5.262  0.6499  2.3635 -0.7871
 4201TIP3   OH234017   1.992   5.342  15.173 -0.0343  0.3403 -0.0945
 4201TIP3    H134018   2.047   5.269  15.144 -0.7448 -0.6826  1.0119
 4201TIP3    H234019   2.015   5.415  15.115  0.5919 -0.8025 -1.3284
 4202TIP3   OH234020   0.642   4.559   5.938 -0.4786  0.3629  0.0374
 4202TIP3    H134021   0.692   4.633   5.905 -0.2318 -0.0345 -0.4908
 4202TIP3    H234022   0.629   4.502   5.862  0.1095 -0.5744  0.6125
 4203TIP3   OH234023   5.286   0.806  13.774  0.2419 -0.1665 -0.3346
 4203TIP3    H134024   5.321   0.718  13.760 -0.4128 -1.3750  4.0072
 4203TIP3    H234025   5.197   0.803  13.738  0.2916 -1.2433 -0.4060
 4204TIP3   OH234026   0.922   5.162  12.261 -0.6271  0.3166 -0.2331
 4204TIP3    H134027   0.905   5.248  12.223  1.3035  1.4271  1.2358
 4204TIP3    H234028   0.985   5.121  12.202 -0.5032  0.4890 -0.2231
 4205TIP3   OH234029   0.348   1.492   0.395  0.1756 -0.2871  0.0260
 4205TIP3    H134030   0.443   1.489   0.409  0.1386 -0.8370  0.1885
 4205TIP3    H234031   0.316   1.550   0.463  0.4917  0.6472 -0.5988
 4206TIP3   OH234032   2.810   4.331  14.471  0.3522  0.3517  0.1976
 4206TIP3    H134033   2.784   4.423  14.476  3.1951  1.2100  0.8098
 4206TIP3    H234034   2.884   4.323  14.531  2.2547 -1.5488 -2.1594
 4207TIP3   OH234035   1.242   5.834  15.089  0.0305  0.5433  0.1550
 4207TIP3    H134036   1.326   5.788  15.094 -0.6607 -0.7662  0.2627
 4207TIP3    H234037   1.178   5.772  15.126 -0.8990  1.7401  0.6196
 4208TIP3   OH234038   0.204   3.479   0.147  0.0200  0.0004  0.2210
 4208TIP3    H134039   0.210   3.386   0.170 -0.9755 -0.4176 -1.0665
 4208TIP3    H234040   0.158   3.519   0.220 -0.8785 -0.8190  0.1253
 4209TIP3   OH234041   1.510   4.524  12.651  0.4508 -0.8472 -0.4037
 4209TIP3    H134042   1.454   4.535  12.575 -1.4266  0.3178  1.0695
 4209TIP3    H234043   1.475   4.446  12.696  1.4668 -1.4570 -0.6325
 4210TIP3   OH234044   0.449   0.805   3.221  0.5162  0.6737 -0.3437
 4210TIP3    H134045   0.357   0.796   3.199  0.7237 -0.4324 -0.8581
 4210TIP3    H234046   0.495   0.796   3.137  1.1818 -0.8591  0.1334
 4211TIP3   OH234047   1.801   2.584  14.913  0.4122 -0.3470  0.4912
 4211TIP3    H134048   1.830   2.509  14.965  1.1614 -1.9606 -2.0986
 4211TIP3    H234049   1.864   2.590  14.842 -0.5365  1.7949 -0.2558
 4212TIP3   OH234050   0.816   4.375   0.150 -0.1399  0.0490  0.7718
 4212TIP3    H134051   0.739   4.320   0.139  0.5147 -0.8661  0.6588
 4212TIP3    H234052   0.795   4.456   0.103 -0.9748 -0.2386  0.6411
 4213TIP3   OH234053   2.741   1.065  15.998  0.5584  0.2352  0.0345
 4213TIP3    H134054   2.691   1.141  16.028  0.3694  0.2889 -0.4024
 4213TIP3    H234055   2.675   0.996  15.988  0.6209  0.2111 -0.2221
 4214TIP3   OH234056   3.423   4.210   2.753 -0.1068 -0.0693 -0.3689
 4214TIP3    H134057   3.500   4.252   2.792 -1.6792  1.3352  1.4530
 4214TIP3    H234058   3.389   4.155   2.824 -0.3017 -1.3788 -1.4544
 4215TIP3   OH234059   5.986   4.245  12.618 -0.3499  0.6754  0.4643
 4215TIP3    H134060   5.939   4.164  12.600 -0.8169  0.9181  0.5698
 4215TIP3    H234061   5.922   4.314  12.602  0.4519  1.1175 -1.0604
 4216TIP3   OH234062   3.939   4.071   4.317 -0.0679  0.1918  0.3576
 4216TIP3    H134063   3.956   3.980   4.341 -0.8203 -0.0009  0.1851
 4216TIP3    H234064   3.994   4.122   4.376 -0.2957 -0.3422  1.0493
 4217TIP3   OH234065   5.822   0.027  11.801  0.0695 -0.2744 -0.0450
 4217TIP3    H134066   5.916   0.015  11.791  0.2570 -0.7052  1.8695
 4217TIP3    H234067   5.803  -0.003  11.890 -1.4308  2.2243  0.5791
 4218TIP3   OH234068   5.916   6.142   6.355 -0.4440  0.0019 -0.8375
 4218TIP3    H134069   5.928   6.119   6.263 -1.2636 -3.0931 -0.2738
 4218TIP3    H234070   5.866   6.223   6.353 -0.6773 -0.1326 -3.1060
 4219TIP3   OH234071   2.506   3.967  11.785 -0.3965  0.3226 -0.4046
 4219TIP3    H134072   2.413   3.988  11.775 -0.6030  1.1600  2.5154
 4219TIP3    H234073   2.548   4.015  11.714 -1.9878  1.7819 -0.4418
 4220TIP3   OH234074   5.180   2.619  13.853 -0.2075  0.0716 -0.5633
 4220TIP3    H134075   5.099   2.570  13.847 -0.1174 -0.7030  2.6905
 4220TIP3    H234076   5.177   2.680  13.779 -3.0223 -0.9188 -1.3858
 4221TIP3   OH234077   2.579   6.336  12.103  0.0310 -0.0933  0.3424
 4221TIP3    H134078   2.587   6.244  12.080 -1.1201 -0.0040 -0.4833
 4221TIP3    H234079   2.539   6.377  12.026  1.3166  1.2741  0.3353
 4222TIP3   OH234080   5.214   2.339   0.179 -0.2822 -0.0441  0.7803
 4222TIP3    H134081   5.200   2.296   0.264 -2.6476 -1.0540 -0.0252
 4222TIP3    H234082   5.248   2.271   0.122  1.8746  0.7820  1.0050
 4223TIP3   OH234083   5.624   3.131  11.692  0.2461 -1.0937 -0.1086
 4223TIP3    H134084   5.603   3.212  11.740 -0.6850 -0.5412 -1.3905
 4223TIP3    H234085   5.649   3.069  11.761 -0.6971 -0.2301  1.0685
 4224TIP3   OH234086   4.765   5.315  12.457  1.2732  0.1273  0.8952
 4224TIP3    H134087   4.816   5.365  12.394  1.7849  1.4873  2.3183
 4224TIP3    H234088   4.727   5.381  12.515 -1.2282 -0.9080  0.5660
 4225TIP3   OH234089   1.595   2.591  11.793  0.0629 -0.4411 -0.5580
 4225TIP3    H134090   1.514   2.641  11.784 -1.0057 -2.1533 -0.7917
 4225TIP3    H234091   1.653   2.627  11.726 -0.3015  1.1091 -0.0928
 4226TIP3   OH234092   5.498   4.336   2.202 -0.5742  0.0181 -0.1531
 4226TIP3    H134093   5.557   4.326   2.127  0.2307  1.2331  0.2661
 4226TIP3    H234094   5.421   4.381   2.167 -2.0071 -2.8968 -1.0154
 4227TIP3   OH234095   1.387   3.092   1.881  0.5287 -0.0877 -0.0985
 4227TIP3    H134096   1.399   3.026   1.813 -1.1485  1.0874 -1.6413
 4227TIP3    H234097   1.383   3.175   1.834  2.1307  1.1278  1.7294
 4228TIP3   OH234098   1.584   0.337   2.840 -0.2274 -0.0546  0.0728
 4228TIP3    H134099   1.661   0.387   2.866 -1.2127  0.3908  2.3211
 4228TIP3    H234100   1.513   0.402   2.836 -0.5925 -0.5084 -1.6397
 4229TIP3   OH234101   4.524   0.575  15.858 -0.1699 -0.3685  0.2884
 4229TIP3    H134102   4.585   0.634  15.814 -0.1795  0.4191  1.3083
 4229TIP3    H234103   4.552   0.487  15.830 -0.7661  0.0951 -2.0450
 4230TIP3   OH234104   0.962   2.511   5.885  0.0089  0.5443 -0.0291
 4230TIP3    H134105   0.867   2.509   5.897 -0.6121 -0.8889 -3.8222
 4230TIP3    H234106   0.976   2.573   5.813  1.9079  0.2708  0.0493
 4231TIP3   OH234107   2.923   0.764  17.163  0.0370  0.0154  0.1169
 4231TIP3    H134108   2.895   0.727  17.247  0.9181  0.6844  0.7267
 4231TIP3    H234109   2.979   0.697  17.124 -1.0870 -0.6621 -0.3591
 4232TIP3   OH234110   3.131   3.334  15.093 -0.2853  0.5608  0.7907
 4232TIP3    H134111   3.067   3.311  15.160 -0.7503 -0.0764  0.1477
 4232TIP3    H234112   3.094   3.299  15.012  0.8429  0.2594  0.3890
 4233TIP3   OH234113   4.565   5.223   6.821 -0.1662 -0.2850  0.4211
 4233TIP3    H134114   4.481   5.190   6.790 -0.3600  1.0787 -0.5480
 4233TIP3    H234115   4.544   5.300   6.873  0.4202 -0.6079  1.1677
 4234TIP3   OH234116   4.560   4.415  15.143  0.1215 -0.3154 -0.0525
 4234TIP3    H134117   4.583   4.421  15.236 -1.1974  0.5427  0.2538
 4234TIP3    H234118   4.561   4.321  15.124 -2.2198 -0.7515  1.5746
 4235TIP3   OH234119   6.394   2.382   2.889 -0.2388 -0.5554  0.2989
 4235TIP3    H134120   6.440   2.337   2.959  1.9800  0.0813 -0.6715
 4235TIP3    H234121   6.455   2.381   2.815 -2.3244 -0.8375 -1.5286
 4236TIP3   OH234122   1.358   6.663  13.158  0.4900  0.3304 -0.1547
 4236TIP3    H134123   1.343   6.756  13.171 -0.4204  0.1758 -0.0077
 4236TIP3    H234124   1.452   6.655  13.148  0.8685  0.9816  2.2304
 4237TIP3   OH234125   0.285   4.900  16.016 -0.1036  0.1947 -0.0837
 4237TIP3    H134126   0.354   4.937  16.070  1.2937  0.2407 -1.8091
 4237TIP3    H234127   0.295   4.805  16.026 -0.2347  0.2096  0.1926
 4238TIP3   OH234128   6.740   4.724  12.859 -0.1890  0.0866 -0.1618
 4238TIP3    H134129   6.746   4.642  12.809 -0.7978  0.4796 -0.9041
 4238TIP3    H234130   6.741   4.792  12.792 -1.7338  0.5928  0.3038
 4239TIP3   OH234131   1.960   3.733  11.104  0.4947  0.2197 -0.2170
 4239TIP3    H134132   1.921   3.672  11.166  1.4192  1.7101  1.9488
 4239TIP3    H234133   2.055   3.722  11.115  0.6912  2.1252  0.3750
 4240TIP3   OH234134   1.222   6.507   1.216 -0.1608  0.1111  0.3316
 4240TIP3    H134135   1.277   6.460   1.153 -3.6153 -1.6154 -1.6797
 4240TIP3    H234136   1.210   6.593   1.177  1.0513  0.5192  0.8078
 4241TIP3   OH234137   0.203   0.622   0.013  0.1735  0.4180  0.2032
 4241TIP3    H134138   0.149   0.670  -0.050  0.0678  0.9001  0.6549
 4241TIP3    H234139   0.177   0.530   0.001  0.5389  0.4395 -0.8125
 4242TIP3   OH234140   5.191   0.934  16.660 -0.0074  0.3922  0.1888
 4242TIP3    H134141   5.205   0.982  16.742 -1.2698 -0.8853  1.2130
 4242TIP3    H234142   5.211   0.843  16.681 -0.7174 -0.0164 -0.8039
 4243TIP3   OH234143   5.823   0.481  15.273 -0.2464 -0.1824  0.1619
 4243TIP3    H134144   5.829   0.405  15.216 -0.4705 -0.2529  0.2331
 4243TIP3    H234145   5.831   0.556  15.214 -0.6631 -0.2515  0.0151
 4244TIP3   OH234146   1.254   4.565   3.085 -0.0376  0.2800 -0.4472
 4244TIP3    H134147   1.330   4.569   3.143 -0.3024 -0.0164 -0.0763
 4244TIP3    H234148   1.289   4.533   3.002  0.4190  1.1043 -0.5865
 4245TIP3   OH234149   6.036   1.771  16.312 -0.5994  0.2379  0.3836
 4245TIP3    H134150   5.985   1.849  16.336 -0.6791  0.0122  0.9461
 4245TIP3    H234151   6.090   1.800  16.238 -0.8357  0.7475  0.4058
 4246TIP3   OH234152   5.333   1.454   6.140  0.7065  0.4770  0.1677
 4246TIP3    H134153   5.299   1.473   6.227 -0.2842  0.2064 -0.1515
 4246TIP3    H234154   5.418   1.413   6.156 -0.9972 -2.9741  1.1777
 4247TIP3   OH234155   0.871   6.236   4.858 -0.1356  0.0163  0.5023
 4247TIP3    H134156   0.844   6.144   4.858 -1.1840  0.3114  0.7201
 4247TIP3    H234157   0.800   6.282   4.903  0.1877  0.9898  0.0478
 4248TIP3   OH234158   5.105   1.810   0.802 -0.7136  0.2622 -0.0309
 4248TIP3    H134159   5.143   1.777   0.883 -1.4707  0.0415  0.2379
 4248TIP3    H234160   5.076   1.899   0.823  0.2079  0.6633 -0.4114
 4249TIP3   OH234161   1.621   4.079   4.501  0.1497 -0.2582  0.2269
 4249TIP3    H134162   1.530   4.092   4.474  0.3732  0.0051 -0.4320
 4249TIP3    H234163   1.622   3.992   4.541  0.1303 -1.5427 -2.3488
 4250TIP3   OH234164   2.018   6.268  11.981 -0.5518  0.3666 -0.0362
 4250TIP3    H134165   2.091   6.209  11.997  1.0312  2.4689  0.9254
 4250TIP3    H234166   1.941   6.221  12.014  0.6170 -1.1549  0.6357
 4251TIP3   OH234167   5.125   4.463  13.866  0.8389 -0.5902  0.5792
 4251TIP3    H134168   5.086   4.381  13.896  1.5645 -1.0805  0.2067
 4251TIP3    H234169   5.181   4.438  13.793  1.5977  0.1426  0.8907
 4252TIP3   OH234170   1.666   2.929  16.926 -0.0142  0.2939  0.4771
 4252TIP3    H134171   1.646   3.007  16.874  1.1749  0.5452  0.3616
 4252TIP3    H234172   1.670   2.961  17.017  1.4732  0.6018  0.3298
 4253TIP3   OH234173   2.540   6.207  13.509 -0.0878 -0.7652 -0.0682
 4253TIP3    H134174   2.585   6.265  13.447 -1.5611  0.9071  0.3592
 4253TIP3    H234175   2.577   6.230  13.594 -1.4462  0.3791  0.2412
 4254TIP3   OH234176   6.705   2.014  14.269  0.3808  0.0286  0.4832
 4254TIP3    H134177   6.619   2.041  14.302 -0.2994 -0.5366 -0.7361
 4254TIP3    H234178   6.685   1.963  14.191  1.7209 -1.7778  1.2325
 4255TIP3   OH234179   6.451   6.794   3.704  0.0791  0.4420 -0.1133
 4255TIP3    H134180   6.420   6.882   3.723  0.3359  0.8998 -1.6822
 4255TIP3    H234181   6.540   6.791   3.740 -0.6875  0.0851  1.8343
 4256TIP3   OH234182   6.486   0.559  16.551  0.3789  0.2411  0.2823
 4256TIP3    H134183   6.499   0.517  16.465 -0.5147  1.2066 -0.3417
 4256TIP3    H234184   6.391   0.567  16.560  0.3980 -0.8364  1.8791
 4257TIP3   OH234185   6.641   1.282   2.191 -0.6465  0.3866  0.1574
 4257TIP3    H134186   6.616   1.339   2.119  1.3776 -0.4263 -1.2751
 4257TIP3    H234187   6.586   1.204   2.181 -0.9202  0.6040 -0.0234
 4258TIP3   OH234188   3.318   0.339  13.349  0.3330  0.3721  0.2288
 4258TIP3    H134189   3.401   0.304  13.384  0.2705 -1.6475 -1.4398
 4258TIP3    H234190   3.268   0.261  13.325 -1.5014  1.5975 -0.1054
 4259TIP3   OH234191   2.562   0.171   1.603  0.0454 -0.0240 -0.0939
 4259TIP3    H134192   2.480   0.134   1.570  0.6382 -0.4332 -1.1599
 4259TIP3    H234193   2.630   0.123   1.556  0.8854  0.7616  0.2960
 4260TIP3   OH234194   3.545   5.922  16.653  0.3519 -0.1393  0.1008
 4260TIP3    H134195   3.577   5.969  16.730  1.8424  0.5534 -0.8884
 4260TIP3    H234196   3.508   5.989  16.597 -0.3065 -0.5774  0.0020
 4261TIP3   OH234197   6.079   6.084   2.314 -0.0436  0.7551  0.0506
 4261TIP3    H134198   6.022   6.069   2.239 -1.2036  0.3433  0.9810
 4261TIP3    H234199   6.139   6.154   2.286  1.0622 -0.9021 -2.0298
 4262TIP3   OH234200   1.965   0.973  14.296 -0.3441 -0.0860 -0.3714
 4262TIP3    H134201   2.048   0.938  14.265  0.3131  1.3460 -0.3144
 4262TIP3    H234202   1.988   1.032  14.368 -1.3505  0.6386 -0.6041
 4263TIP3   OH234203   2.998   2.956  14.155  0.2072  0.2761 -0.1053
 4263TIP3    H134204   3.071   2.898  14.134  0.9043  0.4005  1.7632
 4263TIP3    H234205   3.037   3.043  14.163 -0.6735  0.8999 -1.9368
 4264TIP3   OH234206   0.605   5.630  13.209  0.3002 -0.2406  0.4631
 4264TIP3    H134207   0.531   5.600  13.157 -0.2529 -0.4450  1.3453
 4264TIP3    H234208   0.581   5.719  13.237  0.1972 -0.4612  1.0909
 4265TIP3   OH234209   1.283   3.499  12.701  0.1371 -0.0527  0.9411
 4265TIP3    H134210   1.197   3.541  12.706  1.3239  3.4241 -2.6776
 4265TIP3    H234211   1.336   3.544  12.766 -0.0860 -0.1913  1.2180
 4266TIP3   OH234212   5.267   1.207   4.270  0.4875 -0.1305  0.2027
 4266TIP3    H134213   5.174   1.199   4.288  0.2873  0.8542 -0.3008
 4266TIP3    H234214   5.307   1.131   4.312 -0.4513 -0.1550  1.0781
 4267TIP3   OH234215   0.019   3.591  13.614 -0.1078 -0.0267  0.1067
 4267TIP3    H134216   0.014   3.649  13.690 -0.9375 -0.1599  0.1602
 4267TIP3    H234217   0.099   3.541  13.628  0.6147  1.0815  0.0699
 4268TIP3   OH234218   0.170   4.449   4.320 -0.1032  0.5433 -0.1957
 4268TIP3    H134219   0.173   4.450   4.415  0.2649 -3.1162 -0.0006
 4268TIP3    H234220   0.260   4.467   4.293 -0.1838  1.4673  0.1405
 4269TIP3   OH234221   2.411   1.811   6.563  0.1112 -0.0007 -0.0461
 4269TIP3    H134222   2.466   1.886   6.586 -0.2846 -0.3966  2.4590
 4269TIP3    H234223   2.322   1.841   6.577 -0.1092 -0.5852 -0.1554
 4270TIP3   OH234224   6.785   2.645  15.399  0.0033  0.5873 -0.8115
 4270TIP3    H134225   6.838   2.572  15.368  0.4117  1.6831 -2.8739
 4270TIP3    H234226   6.701   2.634  15.354  0.5729  2.1670 -2.3682
 4271TIP3   OH234227   1.695   4.172   5.594  0.3034 -0.2844  0.2620
 4271TIP3    H134228   1.682   4.206   5.683 -1.8359  1.0182 -0.4725
 4271TIP3    H234229   1.644   4.091   5.592 -2.2786  1.2494 -0.5820
 4272TIP3   OH234230   4.850   1.586  13.799  0.2008 -0.0305 -0.0923
 4272TIP3    H134231   4.764   1.590  13.758 -0.6822  0.0587  1.7024
 4272TIP3    H234232   4.856   1.666  13.852  1.3273 -0.1039 -0.0831
 4273TIP3   OH234233   1.653   5.202  16.698  0.3794  0.1564  0.3704
 4273TIP3    H134234   1.579   5.222  16.754 -0.0280 -0.9473  0.2441
 4273TIP3    H234235   1.646   5.109  16.680  1.6127  0.0945  0.0777
 4274TIP3   OH234236   0.487   5.904  12.789  0.1504 -0.1039 -0.1329
 4274TIP3    H134237   0.414   5.857  12.747  0.3189  1.1098 -1.9090
 4274TIP3    H234238   0.564   5.850  12.770 -0.0282 -0.4836  0.2075
 4275TIP3   OH234239   1.401   1.193   1.199  0.2743  0.3454 -0.2645
 4275TIP3    H134240   1.310   1.174   1.177 -0.1579 -0.2036  1.7873
 4275TIP3    H234241   1.397   1.262   1.265  1.1269 -1.4316  1.7665
 4276TIP3   OH234242   4.740   4.532   2.225  0.2062 -0.0401  0.1884
 4276TIP3    H134243   4.708   4.474   2.295  0.4578  1.0034  1.1986
 4276TIP3    H234244   4.672   4.598   2.215  0.2245 -0.1159 -0.4843
 4277TIP3   OH234245   5.455   4.333   1.638  0.5336 -0.1866  0.1146
 4277TIP3    H134246   5.396   4.399   1.603 -1.1351 -1.0753  1.1007
 4277TIP3    H234247   5.398   4.260   1.663  2.1450 -1.4293  0.3746
 4278TIP3   OH234248   1.357   0.340   6.373  0.2917 -0.4809  0.3013
 4278TIP3    H134249   1.406   0.265   6.407  1.9863 -0.2803 -1.5734
 4278TIP3    H234250   1.409   0.416   6.399 -1.0437  0.0688  1.5581
 4279TIP3   OH234251   1.058   0.270  11.131 -0.0891 -0.4230 -0.3185
 4279TIP3    H134252   0.970   0.241  11.155  0.4425 -0.1640  2.2084
 4279TIP3    H234253   1.044   0.338  11.065 -1.7785 -0.3021  0.1242
 4280TIP3   OH234254   5.076   4.342  14.464 -0.0760  0.4447  0.0638
 4280TIP3    H134255   5.106   4.287  14.391 -1.2029 -2.2190  1.4638
 4280TIP3    H234256   4.988   4.309  14.483 -0.0461  1.4774  2.2363
 4281TIP3   OH234257   6.556   5.623  15.104  0.5481  0.5072  0.6856
 4281TIP3    H134258   6.492   5.636  15.174  0.6555  0.4985  0.7863
 4281TIP3    H234259   6.607   5.704  15.103  1.1804  0.1233  1.2723
 4282TIP3   OH234260   6.179   1.301  12.318  0.2908  0.8323  0.2725
 4282TIP3    H134261   6.268   1.274  12.338  0.4864  1.1444 -0.1738
 4282TIP3    H234262   6.187   1.392  12.289  0.0575  0.3017 -1.5415
 4283TIP3   OH234263   5.859   4.248   1.275 -0.2536  0.2814  0.2146
 4283TIP3    H134264   5.924   4.297   1.225  0.5957 -1.9216 -0.9628
 4283TIP3    H234265   5.897   4.240   1.363  0.8810 -0.5757 -0.3376
 4284TIP3   OH234266   1.613   0.580  14.687  0.0195  0.5689  0.2035
 4284TIP3    H134267   1.604   0.539  14.773 -2.2023 -1.6066 -0.9353
 4284TIP3    H234268   1.607   0.508  14.625 -0.3805  2.2436 -1.8478
 4285TIP3   OH234269   1.609   3.436  12.426  0.6602  0.3391  0.1069
 4285TIP3    H134270   1.629   3.530  12.431 -0.0444  0.4586  0.7683
 4285TIP3    H234271   1.548   3.428  12.353  0.5347  0.4280  0.2021
 4286TIP3   OH234272   3.465   2.403  13.987  0.1176 -0.6701 -0.4327
 4286TIP3    H134273   3.420   2.376  13.907  1.3940 -1.8364 -0.7770
 4286TIP3    H234274   3.402   2.383  14.057 -0.7623 -0.2195 -1.0721
 4287TIP3   OH234275   1.618   1.830   4.527 -0.5943  0.0992  0.3972
 4287TIP3    H134276   1.710   1.817   4.552 -0.9124 -0.9462  1.1025
 4287TIP3    H234277   1.574   1.851   4.609 -1.7668 -3.9730  1.0095
 4288TIP3   OH234278   5.369   3.494  12.690 -0.7108 -0.1077 -0.1011
 4288TIP3    H134279   5.377   3.418  12.631 -1.0837 -0.0440 -0.2367
 4288TIP3    H234280   5.361   3.455  12.777 -0.2358 -0.2048 -0.1008
 4289TIP3   OH234281   4.447   6.684  11.493 -0.2217 -0.5046 -0.2147
 4289TIP3    H134282   4.398   6.725  11.422 -0.1756  4.2334  2.0899
 4289TIP3    H234283   4.386   6.686  11.568  1.1789 -1.0450  0.9791
 4290TIP3   OH234284   6.567   1.864   2.814 -0.5492  0.8320  0.5929
 4290TIP3    H134285   6.658   1.838   2.807 -0.8891  0.1123 -2.3852
 4290TIP3    H234286   6.522   1.786   2.845 -0.2553  1.0737  1.6846
 4291TIP3   OH234287   4.100   5.017   2.488 -0.4026 -0.5569  0.2358
 4291TIP3    H134288   4.067   4.991   2.402 -2.1537  0.5200  0.5316
 4291TIP3    H234289   4.157   4.945   2.515  0.4712 -0.7653 -1.9572
 4292TIP3   OH234290   1.079   2.987  13.336 -0.2828 -0.6691 -0.0305
 4292TIP3    H134291   1.127   2.940  13.404  0.9471 -0.5410 -0.7857
 4292TIP3    H234292   1.034   3.057  13.382 -0.0126 -0.9921  0.7385
 4293TIP3   OH234293   4.622   3.187  13.352 -0.2914 -0.0678  0.1985
 4293TIP3    H134294   4.593   3.253  13.415 -2.7237 -0.6164 -0.2561
 4293TIP3    H234295   4.703   3.152  13.389 -1.0992  0.3512  2.4905
 4294TIP3   OH234296   6.780   3.772  13.813 -0.1991 -0.4346 -0.4811
 4294TIP3    H134297   6.690   3.744  13.828 -0.0648  0.5079  2.9601
 4294TIP3    H234298   6.772   3.863  13.784 -0.3526 -1.0049 -2.3401
 4295TIP3   OH234299   5.821   6.264  15.410  0.1836 -0.0419 -0.3954
 4295TIP3    H134300   5.768   6.199  15.363 -1.9723 -1.2632  3.3287
 4295TIP3    H234301   5.773   6.346  15.398  0.4620 -0.0131 -1.4361
 4296TIP3   OH234302   4.121   6.721   2.294 -0.2738  0.5468 -0.0423
 4296TIP3    H134303   4.039   6.737   2.247 -0.3490  0.1909 -0.0382
 4296TIP3    H234304   4.129   6.626   2.295 -0.0455  0.5688  0.2764
 4297TIP3   OH234305   0.269   3.346   4.934 -0.4609  0.1737  0.1677
 4297TIP3    H134306   0.281   3.386   5.020 -2.3187 -1.3054  1.1776
 4297TIP3    H234307   0.312   3.261   4.940  0.8815  0.7255 -0.9820
 4298TIP3   OH234308   5.487   0.974   1.473 -0.0115 -0.0596  0.3488
 4298TIP3    H134309   5.504   0.890   1.432  0.0861  0.2902 -0.3507
 4298TIP3    H234310   5.572   1.018   1.475 -0.4174  0.9103 -1.3703
 4299TIP3   OH234311   4.130   2.001  12.046  0.2583  0.4877 -0.5052
 4299TIP3    H134312   4.130   2.023  11.953 -4.5249 -2.5192 -1.5875
 4299TIP3    H234313   4.060   2.055  12.083  0.7513  0.1898  0.9352
 4300TIP3   OH234314   2.915   3.875  15.514 -0.1645  0.3743  0.6297
 4300TIP3    H134315   2.968   3.954  15.502 -0.1761  0.8341  3.0128
 4300TIP3    H234316   2.895   3.846  15.426  2.8319  1.0121 -0.3869
 4301TIP3   OH234317   2.428   3.935  10.746  0.2950  0.0413  0.0660
 4301TIP3    H134318   2.421   4.031  10.750  0.3350  0.2036 -2.1603
 4301TIP3    H234319   2.520   3.918  10.727  0.0346 -0.3387 -0.9109
 4302TIP3   OH234320   1.915   2.449   4.243  0.0761  0.9918  0.1050
 4302TIP3    H134321   1.973   2.484   4.310 -0.5607  2.0835  0.1049
 4302TIP3    H234322   1.844   2.408   4.293  0.7047 -0.1316  0.1028
 4303TIP3   OH234323   5.734   0.826  10.804  0.0364 -0.2877  0.1421
 4303TIP3    H134324   5.817   0.848  10.761  0.2993 -0.9948  0.2784
 4303TIP3    H234325   5.717   0.900  10.862 -0.1569  0.5315 -0.9270
 4304TIP3   OH234326   6.708   1.355  15.102 -0.1558  0.5793  0.2633
 4304TIP3    H134327   6.803   1.345  15.109  0.1570  1.2125 -2.0721
 4304TIP3    H234328   6.696   1.444  15.067 -1.6299  0.6291  0.8430
 4305TIP3   OH234329   5.107   3.410  14.652 -0.1356 -0.0806  0.0331
 4305TIP3    H134330   5.123   3.414  14.558 -0.7249 -4.1977 -0.4132
 4305TIP3    H234331   5.194   3.397  14.690  0.1328  1.8117  0.1880
 4306TIP3   OH234332   5.201   3.378  13.736 -0.0297 -0.3263  0.0895
 4306TIP3    H134333   5.245   3.329  13.666 -0.2966 -2.1682  1.1419
 4306TIP3    H234334   5.153   3.311  13.785  0.6868  0.7923  2.4412
 4307TIP3   OH234335   1.275   5.638  16.826 -0.2545  0.3176  0.4082
 4307TIP3    H134336   1.352   5.638  16.770 -0.6179  0.1347 -0.0947
 4307TIP3    H234337   1.264   5.730  16.851 -1.0813  0.6975 -1.2075
 4308TIP3   OH234338   1.087   4.932   1.139  0.0134  0.2673 -0.6446
 4308TIP3    H134339   1.033   4.861   1.173 -0.2734  0.6103 -0.3743
 4308TIP3    H234340   1.043   5.012   1.170  0.4134  0.5563 -0.8221
 4309TIP3   OH234341   1.423   5.304   0.131  0.1699  0.3106  0.0355
 4309TIP3    H134342   1.481   5.228   0.122 -1.0993 -0.8119  0.9547
 4309TIP3    H234343   1.378   5.290   0.214 -0.6031  1.7339 -0.1142
 4310TIP3   OH234344   4.451   2.255  17.023 -0.1970  0.0520  0.5493
 4310TIP3    H134345   4.543   2.227  17.022 -0.3375 -0.5240  1.6593
 4310TIP3    H234346   4.420   2.241  16.934  1.1700  1.5925 -0.2215
 4311TIP3   OH234347   0.084   1.386  13.265  0.2899 -0.0934  0.0969
 4311TIP3    H134348   0.156   1.439  13.301  0.9353 -1.4240  0.8445
 4311TIP3    H234349   0.117   1.354  13.182 -0.7410  1.9767 -1.2064
 4312TIP3   OH234350   6.200   6.404  14.066  0.2206  0.1356 -0.2688
 4312TIP3    H134351   6.197   6.396  13.970  2.9916 -2.3071 -0.3006
 4312TIP3    H234352   6.116   6.367  14.095  0.9537 -3.0810 -1.7317
 4313TIP3   OH234353   4.527   0.747  11.581  0.4872 -0.1333 -0.3878
 4313TIP3    H134354   4.453   0.696  11.614 -0.5672  1.7896  0.3660
 4313TIP3    H234355   4.493   0.836  11.574  2.5427  0.6639 -0.7264
 4314TIP3   OH234356   4.106   3.623   5.709 -0.7655 -0.2409  0.8596
 4314TIP3    H134357   4.182   3.642   5.764 -1.0161 -0.4315  1.2698
 4314TIP3    H234358   4.116   3.682   5.634  0.5868 -1.2954  0.1665
 4315TIP3   OH234359   2.286   5.589  11.236  0.3788  0.0680 -0.3531
 4315TIP3    H134360   2.206   5.640  11.249  0.0400 -0.6281  0.3797
 4315TIP3    H234361   2.301   5.591  11.141 -1.5596 -1.3339 -0.7556
 4316TIP3   OH234362   2.997   5.611   1.709 -0.2016  0.2719 -0.0421
 4316TIP3    H134363   3.069   5.552   1.729 -0.4572  0.3241  1.1061
 4316TIP3    H234364   3.026   5.697   1.740 -0.3123  0.5211 -0.6041
 4317TIP3   OH234365   5.536   5.865  14.730 -0.0329 -0.1387  0.1948
 4317TIP3    H134366   5.588   5.829  14.658  0.6531 -0.8743  1.0361
 4317TIP3    H234367   5.559   5.958  14.733 -0.0555 -0.1029 -0.5100
 4318TIP3   OH234368   0.019   2.866   3.255 -0.8358 -0.2959 -0.3026
 4318TIP3    H134369   0.005   2.786   3.204  1.6193  0.1979 -1.9837
 4318TIP3    H234370   0.087   2.913   3.206 -0.3687  1.6118  2.0000
 4319TIP3   OH234371   3.814   1.457  14.439  0.1039 -0.3192 -0.2449
 4319TIP3    H134372   3.812   1.524  14.508  2.8956  0.4050 -0.7458
 4319TIP3    H234373   3.766   1.497  14.366  3.2803  2.1521 -1.2309
 4320TIP3   OH234374   4.472   0.735   1.395 -0.9063 -0.6383 -0.1187
 4320TIP3    H134375   4.555   0.780   1.407 -1.2274 -0.0039 -0.2459
 4320TIP3    H234376   4.408   0.805   1.381 -1.3880 -1.1386 -0.4666
 4321TIP3   OH234377   2.954   1.481   3.177  0.2907  0.1308 -0.1178
 4321TIP3    H134378   2.919   1.505   3.263  1.1716  0.6230  0.1155
 4321TIP3    H234379   2.981   1.390   3.186 -0.4833 -0.1138 -0.1660
 4322TIP3   OH234380   2.340   3.328  11.414  0.0924  0.1850 -0.4932
 4322TIP3    H134381   2.415   3.331  11.354  0.8044  1.1604  0.4212
 4322TIP3    H234382   2.377   3.301  11.498 -0.4340  1.4985  0.1799
 4323TIP3   OH234383   3.045   6.660   4.196  0.5498  0.2445 -0.3448
 4323TIP3    H134384   2.990   6.600   4.147 -0.1030  0.5477  0.0101
 4323TIP3    H234385   3.085   6.606   4.264 -1.0268  0.4361  0.7812
 4324TIP3   OH234386   0.053   4.532   0.094 -0.4544  0.0647  0.0302
 4324TIP3    H134387   0.139   4.548   0.134  0.4479 -1.4128 -1.1972
 4324TIP3    H234388  -0.002   4.502   0.166 -0.4052  2.3665  1.1221
 4325TIP3   OH234389   4.973   0.174  11.532  0.4661  0.1079  0.4948
 4325TIP3    H134390   4.912   0.133  11.594  0.5811 -1.3022 -0.2838
 4325TIP3    H234391   4.916   0.213  11.465  0.3705  0.7526  0.9458
 4326TIP3   OH234392   1.815   2.501   6.628  0.5389  0.2928  0.0747
 4326TIP3    H134393   1.841   2.583   6.670 -1.1458  0.8686  0.0669
 4326TIP3    H234394   1.782   2.527   6.542 -3.1760  0.1475  1.2750
 4327TIP3   OH234395   5.579   4.578   4.154 -0.0507  0.7679 -0.2434
 4327TIP3    H134396   5.668   4.545   4.164 -0.6269 -0.6295  0.5676
 4327TIP3    H234397   5.533   4.509   4.105 -0.8546  1.1621 -0.0641
 4328TIP3   OH234398   6.001   6.477  11.849  0.2952 -0.0957  0.0436
 4328TIP3    H134399   5.917   6.436  11.872 -0.3843  2.0550  1.8250
 4328TIP3    H234400   5.988   6.509  11.760 -0.3049 -0.9111 -0.1708
 4329TIP3   OH234401   4.484   5.243   1.390 -0.0359 -0.4839  0.6227
 4329TIP3    H134402   4.436   5.292   1.322  2.2744 -0.6641 -1.2916
 4329TIP3    H234403   4.572   5.281   1.388  1.3096 -3.4063  0.4058
 4330TIP3   OH234404   4.250   3.140  16.714 -0.0397  0.4500 -0.4419
 4330TIP3    H134405   4.315   3.071  16.705  0.8721  0.6209  3.4522
 4330TIP3    H234406   4.167   3.099  16.687  0.8000 -1.5126 -0.1490
 4331TIP3   OH234407   5.786   6.558   3.924 -0.0142 -0.1824  0.1006
 4331TIP3    H134408   5.785   6.610   4.005  1.9881 -0.7704  0.5744
 4331TIP3    H234409   5.740   6.477   3.948  1.1119 -0.6197  0.8908
 4332TIP3   OH234410   1.849   3.853  10.456 -0.1865  0.4052  0.1969
 4332TIP3    H134411   1.761   3.866  10.421 -0.2097 -0.1779  0.0261
 4332TIP3    H234412   1.840   3.781  10.517  0.4792 -0.8364 -1.0992
 4333TIP3   OH234413   6.042   5.686   0.086  0.1267 -0.2714  0.5959
 4333TIP3    H134414   5.985   5.612   0.066  0.0101  0.0439 -0.2808
 4333TIP3    H234415   6.028   5.703   0.180 -1.7625  0.2419  0.2563
 4334TIP3   OH234416   2.198   3.971  12.841  0.1522 -0.1554  1.0244
 4334TIP3    H134417   2.206   3.982  12.746 -1.5267  1.0265  0.9628
 4334TIP3    H234418   2.183   3.877  12.853 -2.6062  0.0137 -0.2245
 4335TIP3   OH234419   0.767   6.348  11.923  0.2698 -0.1362 -0.0053
 4335TIP3    H134420   0.856   6.326  11.952 -0.1412 -2.0283 -0.0497
 4335TIP3    H234421   0.762   6.317  11.833 -0.4625 -0.1370  0.0274
 4336TIP3   OH234422   2.719   1.400  15.901 -0.5790 -0.2067 -0.6233
 4336TIP3    H134423   2.779   1.386  15.973  0.0406  0.5816 -0.9828
 4336TIP3    H234424   2.741   1.332  15.838 -0.8540 -0.6445 -0.2556
 4337TIP3   OH234425   6.333   2.120   2.191  0.0336 -0.1044 -0.8138
 4337TIP3    H134426   6.339   2.157   2.280 -1.9268  0.7078 -0.9658
 4337TIP3    H234427   6.329   2.197   2.134 -0.8794 -0.5642 -1.4013
 4338TIP3   OH234428   0.048   2.403   5.657 -0.3957 -0.2128 -0.0442
 4338TIP3    H134429   0.027   2.340   5.726 -1.1502 -1.4189 -1.3520
 4338TIP3    H234430   0.118   2.457   5.696 -0.7574 -0.8789  1.6360
 4339TIP3   OH234431   2.955   1.731   4.147 -0.2355 -0.2758 -0.0003
 4339TIP3    H134432   3.035   1.738   4.199 -0.8647  0.9280  0.8640
 4339TIP3    H234433   2.953   1.640   4.119  1.6914 -0.2212 -0.4750
 4340TIP3   OH234434   4.680   5.567  13.210  0.3903 -0.3369 -0.7207
 4340TIP3    H134435   4.734   5.641  13.185  1.3554 -0.7113  0.1882
 4340TIP3    H234436   4.727   5.526  13.282 -0.7788 -1.0707 -0.3449
 4341TIP3   OH234437   5.680   3.260  15.290  0.4537 -0.0084 -0.5198
 4341TIP3    H134438   5.649   3.259  15.381  0.5786 -0.9349 -0.4811
 4341TIP3    H234439   5.774   3.273  15.297  0.5102 -0.4050 -0.4935
 4342TIP3   OH234440   5.221   0.778  14.393  0.6672  0.2865 -0.2937
 4342TIP3    H134441   5.245   0.842  14.326  0.6769 -0.2606 -0.8202
 4342TIP3    H234442   5.172   0.711  14.345 -1.8705  1.3062  0.7222
 4343TIP3   OH234443   4.330   1.856   0.606  0.1883 -0.4035  0.0002
 4343TIP3    H134444   4.373   1.940   0.588 -0.8797 -0.1635 -1.6306
 4343TIP3    H234445   4.326   1.813   0.520  0.5341 -2.0587  0.7752
 4344TIP3   OH234446   3.706   2.793   5.027 -0.2781  0.0462  0.1981
 4344TIP3    H134447   3.624   2.762   4.988 -2.0613  0.9875  2.9243
 4344TIP3    H234448   3.726   2.729   5.096 -0.8319  1.7197  2.0138
 4345TIP3   OH234449   1.708   6.332   1.391 -0.4616 -0.1499  0.1870
 4345TIP3    H134450   1.718   6.380   1.309 -0.0530 -0.5611 -0.0099
 4345TIP3    H234451   1.615   6.338   1.412 -0.6756 -0.5555 -0.6220
 4346TIP3   OH234452   1.696   6.229  13.189  0.3061  0.3824 -0.1329
 4346TIP3    H134453   1.619   6.183  13.153  0.1072  0.0388  0.6896
 4346TIP3    H234454   1.765   6.162  13.190 -0.2584 -0.2742  2.0110
 4347TIP3   OH234455   5.580   1.604  13.602  0.1226  0.0862 -0.1055
 4347TIP3    H134456   5.634   1.529  13.575  0.4986 -0.0555  1.0042
 4347TIP3    H234457   5.638   1.656  13.658 -0.9711 -0.2424  1.3889
 4348TIP3   OH234458   3.991   3.176  16.021  0.0694  0.7870  0.4061
 4348TIP3    H134459   4.070   3.193  16.073 -0.4354  0.0349  1.4615
 4348TIP3    H234460   3.993   3.242  15.953  1.3031  1.1612  0.7724
 4349TIP3   OH234461   5.286   6.584  15.276  0.5830 -0.1093  0.0572
 4349TIP3    H134462   5.283   6.530  15.355 -1.6362  2.6178  2.0376
 4349TIP3    H234463   5.368   6.632  15.283  2.0647 -2.2705 -1.1925
 4350TIP3   OH234464   5.581   1.318  12.415  0.0962 -0.0593 -0.0034
 4350TIP3    H134465   5.530   1.255  12.364  1.6167 -0.5844 -0.9613
 4350TIP3    H234466   5.625   1.372  12.350  1.0427  0.1310  0.7651
 4351TIP3   OH234467   1.523   4.218  13.728 -0.0498  0.1332  0.2598
 4351TIP3    H134468   1.549   4.165  13.804  0.3323  0.3257  0.2632
 4351TIP3    H234469   1.606   4.242  13.686 -0.2827 -1.0195 -0.9415
 4352TIP3   OH234470   6.184   2.910  13.117 -0.0378  0.6636 -0.2155
 4352TIP3    H134471   6.173   2.907  13.022  2.3037  1.8656 -0.6040
 4352TIP3    H234472   6.157   2.824  13.147  0.0600 -0.0651 -2.0764
 4353TIP3   OH234473   3.937   3.121  14.098  0.4883  0.3034  0.0540
 4353TIP3    H134474   3.884   3.165  14.165  0.3489 -2.3697  1.9011
 4353TIP3    H234475   3.874   3.099  14.029 -0.6848 -1.5657  1.5740
 4354TIP3   OH234476   4.079   3.983   2.901 -0.8099 -0.0129  0.6528
 4354TIP3    H134477   4.171   4.005   2.915 -1.0536  0.6845  1.2040
 4354TIP3    H234478   4.081   3.895   2.863  0.0901  0.1071  0.4045
 4355TIP3   OH234479   4.424   5.168   1.652 -0.6479  0.1051  0.3737
 4355TIP3    H134480   4.343   5.117   1.647  0.4214 -1.5603 -1.1763
 4355TIP3    H234481   4.436   5.202   1.563  0.5375  0.0100  0.4922
 4356TIP3   OH234482   3.075   4.936  11.506 -0.3836 -0.1991  0.1580
 4356TIP3    H134483   3.144   4.990  11.467 -0.8424  0.7652  0.6500
 4356TIP3    H234484   2.995   4.986  11.491 -1.0633 -1.4848 -0.7593
 4357TIP3   OH234485   5.076   6.551  13.036 -0.3073 -0.0578  0.5766
 4357TIP3    H134486   5.113   6.465  13.015  0.2541  0.2213  0.3950
 4357TIP3    H234487   4.999   6.558  12.981 -0.2242 -0.3508  0.4205
 4358TIP3   OH234488   2.812   6.534   6.676  0.4210 -0.0881  0.3716
 4358TIP3    H134489   2.725   6.573   6.679  0.0731 -0.6704 -1.1410
 4358TIP3    H234490   2.800   6.445   6.707  0.4758 -0.1642  0.1762
 4359TIP3   OH234491   4.870   5.718  15.483  0.2179  0.2697  0.2367
 4359TIP3    H134492   4.777   5.734  15.468  0.0668 -0.5840  0.1976
 4359TIP3    H234493   4.915   5.781  15.427 -0.3267  1.3431  0.9716
 4360TIP3   OH234494   5.026   5.764   1.095  0.3017  0.1799 -0.8598
 4360TIP3    H134495   5.059   5.712   1.021  0.5635 -0.3060 -0.4042
 4360TIP3    H234496   5.018   5.701   1.167 -0.9330  0.4356 -0.7582
 4361TIP3   OH234497   0.367   3.298  14.211  0.3174 -0.0568  0.3270
 4361TIP3    H134498   0.358   3.380  14.259  1.6347  0.0080  0.4949
 4361TIP3    H234499   0.282   3.255  14.220 -0.1092  0.8944  0.9571
 4362TIP3   OH234500   0.163   0.867   3.202 -0.6691  1.0562 -0.3220
 4362TIP3    H134501   0.067   0.874   3.201 -0.6600  1.1695 -0.5839
 4362TIP3    H234502   0.183   0.830   3.288 -0.9829  0.5114 -0.4764
 4363TIP3   OH234503   0.133   0.664   1.850  0.9186 -0.3544 -0.2396
 4363TIP3    H134504   0.143   0.639   1.758 -1.3208 -0.9689 -0.3766
 4363TIP3    H234505   0.179   0.748   1.856  1.1308 -0.3024 -1.9170
 4364TIP3   OH234506   1.845   4.406  10.756 -0.2629 -0.0479  0.0363
 4364TIP3    H134507   1.933   4.368  10.758 -1.1878 -2.3311  1.3294
 4364TIP3    H234508   1.812   4.386  10.668  0.1396 -0.0381 -0.1199
 4365TIP3   OH234509   6.500   1.542   1.470 -0.5420 -0.1011  0.4705
 4365TIP3    H134510   6.546   1.581   1.544 -0.3787  0.1369  0.2452
 4365TIP3    H234511   6.463   1.617   1.423 -1.7247 -0.3226  1.0178
 4366TIP3   OH234512   5.509   5.674  11.168  0.1984  0.4521  0.0858
 4366TIP3    H134513   5.567   5.600  11.186 -0.1161 -0.3893 -1.9983
 4366TIP3    H234514   5.421   5.641  11.189  0.1445  0.5269 -0.0233
 4367TIP3   OH234515   4.141   2.819  12.800 -0.3876 -0.1934 -0.0964
 4367TIP3    H134516   4.107   2.830  12.889 -1.4311 -1.0221 -0.3644
 4367TIP3    H234517   4.155   2.908  12.768  1.4294  0.1121  1.3901
 4368TIP3   OH234518   1.283   5.080   5.155 -0.6334  0.4839  0.0406
 4368TIP3    H134519   1.216   5.101   5.090 -0.7235  0.2394  0.0556
 4368TIP3    H234520   1.344   5.022   5.109 -0.8521  0.0795  0.2606
 4369TIP3   OH234521   0.674   6.448  13.643 -0.1746  0.4953 -0.3583
 4369TIP3    H134522   0.749   6.499  13.674 -0.2352  0.5570 -0.3143
 4369TIP3    H234523   0.676   6.368  13.696  1.3187 -0.6389 -2.0084
 4370TIP3   OH234524   5.194   1.406   5.186  0.4922  0.3746  1.0880
 4370TIP3    H134525   5.144   1.487   5.190  0.4270  0.4095 -0.0345
 4370TIP3    H234526   5.202   1.388   5.092  1.0978 -0.5485  1.3073
 4371TIP3   OH234527   1.749   3.494  13.127 -0.0294 -0.2024 -0.0741
 4371TIP3    H134528   1.665   3.506  13.082 -0.6371 -1.2113  0.7144
 4371TIP3    H234529   1.781   3.582  13.142 -1.3245  0.2412  0.2534
 4372TIP3   OH234530   5.742   2.724   0.806  0.8728 -0.0431  0.1392
 4372TIP3    H134531   5.820   2.674   0.827 -0.2117 -2.5201 -1.2184
 4372TIP3    H234532   5.767   2.779   0.732  1.1514 -1.5206 -0.9107
 4373TIP3   OH234533   5.736   2.527   1.508  1.0729  0.1997 -0.0131
 4373TIP3    H134534   5.810   2.540   1.449  0.6025  1.8291 -0.2873
 4373TIP3    H234535   5.729   2.609   1.557 -1.9194  1.0378 -1.5819
 4374TIP3   OH234536   6.762   5.573  13.570 -0.9261 -0.2011  0.1549
 4374TIP3    H134537   6.667   5.579  13.577 -0.9731 -1.6857  1.1738
 4374TIP3    H234538   6.794   5.650  13.618 -1.6110 -0.1816  0.5955
 4375TIP3   OH234539   2.998   3.333  14.340 -0.8110  0.3358 -0.2362
 4375TIP3    H134540   3.043   3.318  14.423  1.1429  0.4312 -1.2023
 4375TIP3    H234541   2.912   3.365  14.364 -0.2477  0.4658  1.7509
 4376TIP3   OH234542   3.585   2.251   0.271  0.4090  0.0677 -0.1503
 4376TIP3    H134543   3.650   2.201   0.222  1.2532  0.5686  0.4403
 4376TIP3    H234544   3.551   2.189   0.336  0.4877 -0.1124 -0.2808
 4377TIP3   OH234545   6.201   5.040   2.618  0.2898 -0.3391 -0.4520
 4377TIP3    H134546   6.236   5.068   2.533 -0.5236  1.6091 -0.1971
 4377TIP3    H234547   6.200   4.944   2.613 -0.4553 -0.2790 -2.9615
 4378TIP3   OH234548   6.648   1.422  17.036  0.0074 -0.3693 -0.2258
 4378TIP3    H134549   6.658   1.507  17.078 -4.3648  0.5467 -0.5142
 4378TIP3    H234550   6.661   1.439  16.943  1.1443 -0.4899 -0.0946
 4379TIP3   OH234551   5.719   1.595  14.643  0.1945  0.7580  0.4401
 4379TIP3    H134552   5.723   1.563  14.733  0.7973 -0.2599  0.0640
 4379TIP3    H234553   5.653   1.665  14.645 -1.9438 -1.1716  1.0876
 4380TIP3   OH234554   1.627   5.318  12.877  1.1113  0.4499 -0.1142
 4380TIP3    H134555   1.539   5.294  12.850  1.5284 -1.4541  0.0951
 4380TIP3    H234556   1.615   5.362  12.961  0.4949 -2.0309  1.1847
 4381TIP3   OH234557   2.530   1.844   4.854 -0.3052  0.0726 -0.5901
 4381TIP3    H134558   2.501   1.915   4.796 -0.1127  1.9939  1.5477
 4381TIP3    H234559   2.617   1.820   4.820 -0.4217  0.7680 -1.4192
 4382TIP3   OH234560   0.227   6.651   4.458  0.0570 -0.2752  0.0754
 4382TIP3    H134561   0.292   6.658   4.387  1.2889 -0.1686  1.1733
 4382TIP3    H234562   0.157   6.597   4.421  0.8131 -0.4718 -1.1248
 4383TIP3   OH234563   6.248   5.601  16.560  0.4246  0.9293 -0.3072
 4383TIP3    H134564   6.242   5.616  16.466 -0.3899 -0.9634 -0.6147
 4383TIP3    H234565   6.234   5.506  16.570 -1.7922  1.3624  1.8697
 4384TIP3   OH234566   6.548   3.306   3.175 -0.3970 -0.4013 -0.0363
 4384TIP3    H134567   6.561   3.280   3.266  0.7736 -0.1894 -0.1319
 4384TIP3    H234568   6.618   3.263   3.126 -1.1335 -0.6804 -0.8839
 4385TIP3   OH234569   3.477   1.168   4.992  0.2827  0.2643 -0.6125
 4385TIP3    H134570   3.509   1.250   4.954  2.3088  0.3769  1.1866
 4385TIP3    H234571   3.543   1.103   4.968  0.0658 -0.2698  0.1910
 4386TIP3   OH234572   5.370   6.695  16.308  0.3037 -0.0752  0.0082
 4386TIP3    H134573   5.430   6.711  16.236  0.7459  0.6800  0.5415
 4386TIP3    H234574   5.383   6.768  16.368 -0.1419 -0.6297  0.8040
 4387TIP3   OH234575   4.199   4.806   0.941 -0.0770 -0.4705  0.2147
 4387TIP3    H134576   4.167   4.877   0.885  0.2660 -0.6370 -0.1947
 4387TIP3    H234577   4.123   4.750   0.953 -0.3646 -0.0097  0.5816
 4388TIP3   OH234578   2.487   5.872   1.674  0.6503 -0.3719  0.2683
 4388TIP3    H134579   2.567   5.898   1.721  2.1482 -1.8880 -1.3242
 4388TIP3    H234580   2.517   5.812   1.606 -1.7877 -0.4283 -0.8621
 4389TIP3   OH234581   2.300   3.824   1.622  0.0208 -0.2774 -0.5963
 4389TIP3    H134582   2.275   3.833   1.713  2.5222  0.9821  0.0555
 4389TIP3    H234583   2.295   3.730   1.604 -3.2386 -0.2852 -0.0922
 4390TIP3   OH234584   4.889   3.929  10.978  0.3457  0.1511 -0.7725
 4390TIP3    H134585   4.904   3.955  10.887 -0.2226  1.1419 -0.5990
 4390TIP3    H234586   4.819   3.987  11.008 -1.2350 -1.8438 -0.4479
 4391TIP3   OH234587   5.396   5.678  15.574 -0.1442  0.3509  0.4383
 4391TIP3    H134588   5.424   5.599  15.528  2.1115  1.3679 -0.1043
 4391TIP3    H234589   5.435   5.671  15.661  1.4408  1.5331 -0.1309
 4392TIP3   OH234590   1.565   6.562   2.784  0.1887  0.4478  0.0979
 4392TIP3    H134591   1.499   6.626   2.808  1.7587  1.5652  1.7378
 4392TIP3    H234592   1.523   6.477   2.797 -1.4790  1.1024 -0.7622
 4393TIP3   OH234593   0.935   3.921  13.720  0.5804 -0.2027  0.3807
 4393TIP3    H134594   1.022   3.914  13.680  0.7184 -0.7372  0.7664
 4393TIP3    H234595   0.935   4.007  13.761  0.3222  0.5017 -1.0232
 4394TIP3   OH234596   0.559   4.234   0.602  0.0806  0.0802 -0.2497
 4394TIP3    H134597   0.526   4.175   0.534 -2.2117 -0.5597  1.3060
 4394TIP3    H234598   0.557   4.320   0.561 -2.3148 -0.1218 -0.7482
 4395TIP3   OH234599   2.399   3.994   3.221  0.3277 -0.0271 -0.6519
 4395TIP3    H134600   2.351   4.077   3.221 -0.3825 -0.3447  2.2828
 4395TIP3    H234601   2.485   4.017   3.185 -0.0034  1.8765 -0.3476
 4396TIP3   OH234602   5.427   0.869  15.531 -0.4092 -0.7729 -0.2557
 4396TIP3    H134603   5.411   0.781  15.564 -2.5429  0.1260  1.3311
 4396TIP3    H234604   5.402   0.865  15.438  0.6764 -2.0878 -0.5182
 4397TIP3   OH234605   5.961   4.387   5.058 -1.1997  0.2234  0.1871
 4397TIP3    H134606   5.997   4.351   4.977 -3.5986 -0.3416 -0.7239
 4397TIP3    H234607   6.001   4.473   5.066  0.8785 -0.6365 -0.2876
 4398TIP3   OH234608   6.224   5.485  11.196  0.7566 -0.0606  0.2276
 4398TIP3    H134609   6.206   5.528  11.112 -1.1853 -2.2402 -0.6016
 4398TIP3    H234610   6.314   5.456  11.189  0.3202 -1.1299 -1.6038
 4399TIP3   OH234611   2.806   5.567  14.434  0.0893 -0.1264 -0.4685
 4399TIP3    H134612   2.900   5.566  14.454  0.1881  0.0111 -0.9038
 4399TIP3    H234613   2.802   5.559  14.339 -0.3614 -0.7645 -0.4033
 4400TIP3   OH234614   0.938   5.074  14.857 -0.3639 -0.7329 -0.2551
 4400TIP3    H134615   0.982   5.158  14.846  0.9793 -1.5497 -1.4112
 4400TIP3    H234616   1.008   5.009  14.851 -1.5942 -2.0310 -1.2410
 4401TIP3   OH234617   6.724   5.420   2.089 -0.2992  0.0887 -0.3510
 4401TIP3    H134618   6.775   5.341   2.074 -0.7454 -0.3680  0.4271
 4401TIP3    H234619   6.655   5.418   2.023  0.2658  0.3423 -0.9550
 4402TIP3   OH234620   0.755   3.186  13.184 -0.2937  0.2271 -0.3080
 4402TIP3    H134621   0.691   3.172  13.114 -0.7351  2.0191 -0.3269
 4402TIP3    H234622   0.747   3.110  13.240 -0.1584 -1.1135 -2.0190
 4403TIP3   OH234623   3.054   0.434  13.031 -0.3574 -0.0888 -0.5417
 4403TIP3    H134624   3.021   0.513  12.989  0.4332  0.0119 -0.9880
 4403TIP3    H234625   3.061   0.456  13.123  2.3218  1.2702 -0.9695
 4404TIP3   OH234626   4.788   1.042   1.885  0.5440  0.0195  0.3590
 4404TIP3    H134627   4.870   1.072   1.845  0.9228  0.3292  1.3542
 4404TIP3    H234628   4.796   0.947   1.887  0.8431  0.0437  0.3681
 4405TIP3   OH234629   6.732   3.002  13.299  1.0060 -0.2614  0.1944
 4405TIP3    H134630   6.702   2.953  13.375 -2.2502  0.5553 -0.4190
 4405TIP3    H234631   6.791   2.943  13.253 -0.6513 -2.6053  0.9186
 4406TIP3   OH234632   2.907   2.520   0.350 -0.3091  0.2575  0.8404
 4406TIP3    H134633   2.853   2.468   0.410 -0.9139  0.1422  0.2071
 4406TIP3    H234634   2.869   2.504   0.264 -1.5582  2.9998  0.7759
 4407TIP3   OH234635   4.198   2.840  16.290  0.0469 -0.6143 -0.2213
 4407TIP3    H134636   4.232   2.922  16.256  2.9253 -0.4933  2.4731
 4407TIP3    H234637   4.265   2.775  16.267 -1.0326 -1.7538 -0.2707
 4408TIP3   OH234638   6.165   3.745   6.539 -0.6943 -0.0999  1.0175
 4408TIP3    H134639   6.138   3.799   6.464  0.1267  3.0759  2.8469
 4408TIP3    H234640   6.217   3.675   6.500 -0.2938  1.4241 -1.4069
 4409TIP3   OH234641   2.698   6.573   1.754  0.5623 -0.4673  0.7328
 4409TIP3    H134642   2.714   6.580   1.848 -0.0094  1.7269  0.7299
 4409TIP3    H234643   2.616   6.622   1.740  2.5570  2.6803 -1.3262
 4410TIP3   OH234644   3.802   5.873   3.170 -0.2388 -0.1034 -0.4210
 4410TIP3    H134645   3.722   5.911   3.206  0.5465  0.2593  1.0373
 4410TIP3    H234646   3.831   5.935   3.103  0.0151  0.9362  0.6167
 4411TIP3   OH234647   1.298   2.884   3.298 -0.6737 -0.5790  0.4493
 4411TIP3    H134648   1.214   2.842   3.278 -0.4907  0.1262 -2.0717
 4411TIP3    H234649   1.339   2.899   3.213  0.7029  1.7837  1.4159
 4412TIP3   OH234650   5.657   4.230   6.230  0.0629  0.7283 -0.2639
 4412TIP3    H134651   5.749   4.217   6.255  0.0428  0.6344 -0.2374
 4412TIP3    H234652   5.613   4.151   6.262 -0.1163  1.0055  0.1868
 4413TIP3   OH234653   5.318   2.871  15.599  0.6920  0.8583 -0.2663
 4413TIP3    H134654   5.281   2.949  15.643  1.8290  1.0455  0.3935
 4413TIP3    H234655   5.322   2.896  15.507 -2.8617  0.0371 -0.8148
 4414TIP3   OH234656   1.326   3.912  12.139 -0.2728  0.7137  0.0770
 4414TIP3    H134657   1.331   3.937  12.231  0.5774 -0.1574  0.2857
 4414TIP3    H234658   1.237   3.878  12.128 -0.3612  0.7737  0.5884
 4415TIP3   OH234659   5.233   4.239  14.982 -0.2802  0.3755  0.1083
 4415TIP3    H134660   5.225   4.334  14.977 -1.4950  0.3219  0.7646
 4415TIP3    H234661   5.309   4.225  15.039  1.1550  0.9200 -1.5779
 4416TIP3   OH234662   2.922   4.930   5.248 -0.2784  0.4872 -0.6164
 4416TIP3    H134663   2.972   4.869   5.194 -0.3229 -0.8494  0.8053
 4416TIP3    H234664   2.913   4.887   5.332 -0.9519  2.1576  0.2196
 4417TIP3   OH234665   2.651   1.435   4.013 -0.0093 -0.1979 -0.0508
 4417TIP3    H134666   2.605   1.382   3.948  0.7275  0.1855 -0.8951
 4417TIP3    H234667   2.741   1.439   3.983  0.8305 -1.6680  2.0409
 4418TIP3   OH234668   1.920   3.737  13.043  0.6483  0.5005  0.8526
 4418TIP3    H134669   1.907   3.820  12.996  0.7269 -0.0611 -0.1906
 4418TIP3    H234670   1.916   3.670  12.975  1.9173 -0.2567  1.4771
 4419TIP3   OH234671   0.584   4.452   2.466  0.0849  0.1288  0.0631
 4419TIP3    H134672   0.608   4.420   2.552 -1.8659 -0.1670  0.5491
 4419TIP3    H234673   0.552   4.541   2.481  0.2633  0.2814 -0.4426
 4420TIP3   OH234674   0.563   1.306   1.650  0.0782 -0.1289 -0.1483
 4420TIP3    H134675   0.574   1.287   1.557  1.5178 -0.7848  0.1365
 4420TIP3    H234676   0.531   1.224   1.688  1.2647 -0.4319  0.2245
 4421TIP3   OH234677   5.895   0.146   1.048 -0.7306 -0.3325 -0.0123
 4421TIP3    H134678   5.811   0.115   1.014 -0.3345 -2.0506  0.4619
 4421TIP3    H234679   5.940   0.184   0.972 -0.8086 -1.9836 -0.9351
 4422TIP3   OH234680   4.392   3.819   6.195  0.1539 -0.2383 -0.1884
 4422TIP3    H134681   4.459   3.817   6.264 -1.6296  0.8394  1.6900
 4422TIP3    H234682   4.313   3.785   6.237 -1.4686  2.1704 -1.0609
 4423TIP3   OH234683   1.663   1.330  10.488  0.5356 -0.0728  0.0055
 4423TIP3    H134684   1.586   1.380  10.515  0.3975 -0.8619  1.1181
 4423TIP3    H234685   1.737   1.384  10.515  0.3833 -0.1796  0.6569
 4424TIP3   OH234686   1.260   2.838   1.158  0.7261  0.2687  0.1097
 4424TIP3    H134687   1.342   2.797   1.183  1.1980 -0.1911 -1.9752
 4424TIP3    H234688   1.267   2.849   1.063 -0.3197  3.0920  0.2481
 4425TIP3   OH234689   1.457   5.755  17.149 -0.3357  0.0817  0.2506
 4425TIP3    H134690   1.377   5.803  17.130 -0.6425  0.0715  1.4058
 4425TIP3    H234691   1.525   5.803  17.102 -0.8488  0.7885  0.2098
 4426TIP3   OH234692   5.548   6.504  11.879  0.4877  0.5221  0.7309
 4426TIP3    H134693   5.548   6.584  11.932 -1.2458  1.2066 -0.2285
 4426TIP3    H234694   5.463   6.463  11.897  0.2448  0.3035 -0.8071
 4427TIP3   OH234695   6.143   3.615  13.509  0.1370 -0.0788 -0.2128
 4427TIP3    H134696   6.175   3.568  13.586 -0.6852  0.2644  0.3580
 4427TIP3    H234697   6.049   3.598  13.508  0.2283 -0.6190 -1.5368
 4428TIP3   OH234698   3.231   4.115   3.206  0.3052 -0.7181  0.4359
 4428TIP3    H134699   3.244   4.115   3.300 -0.1503 -1.1466  0.5029
 4428TIP3    H234700   3.237   4.023   3.180 -1.3089 -0.8294  0.3145
 4429TIP3   OH234701   2.376   4.444  16.464  0.4324 -0.3927  0.0556
 4429TIP3    H134702   2.333   4.523  16.433  0.2575 -1.1449 -1.7269
 4429TIP3    H234703   2.469   4.466  16.466  0.3185  0.0732  0.2587
 4430TIP3   OH234704   1.548   0.898  15.436 -0.3082  0.9132  0.5250
 4430TIP3    H134705   1.506   0.826  15.389  0.3478  1.5244 -1.0514
 4430TIP3    H234706   1.517   0.977  15.392  1.7547  1.4281 -0.1287
 4431TIP3   OH234707   4.676   6.100  12.555  0.3090  0.0188  0.0961
 4431TIP3    H134708   4.654   6.032  12.619  1.0557 -0.1543  0.1776
 4431TIP3    H234709   4.623   6.175  12.580 -0.7590 -0.6206 -0.1753
 4432TIP3   OH234710   1.846   3.195   3.667 -0.2165 -0.2673  0.2093
 4432TIP3    H134711   1.790   3.126   3.703  0.7265 -2.2617 -1.9022
 4432TIP3    H234712   1.788   3.248   3.612 -1.0100  0.9258  2.0921
 4433TIP3   OH234713   0.814   5.602  12.989  0.0417 -0.0702  0.1613
 4433TIP3    H134714   0.755   5.613  13.064 -1.3844 -2.8564 -0.4484
 4433TIP3    H234715   0.881   5.541  13.020 -1.4465 -2.5137 -1.2092
 4434TIP3   OH234716   6.372   3.085  14.373  0.3437  0.4487 -0.2453
 4434TIP3    H134717   6.345   3.125  14.456 -0.5154 -2.0732  0.7840
 4434TIP3    H234718   6.468   3.088  14.375  0.3305  2.8624 -0.4964
 4435TIP3   OH234719   4.628   0.428  16.158  0.4216 -0.3837 -0.1302
 4435TIP3    H134720   4.566   0.383  16.215 -1.1667  1.6416 -0.1782
 4435TIP3    H234721   4.611   0.393  16.071  0.0553 -0.5566  0.0110
 4436TIP3   OH234722   6.065   1.987  15.782  0.7536 -0.1993 -0.3565
 4436TIP3    H134723   6.062   1.913  15.722  0.3733 -0.9875  0.5987
 4436TIP3    H234724   6.155   1.990  15.812  1.1714  0.7675 -1.6245
 4437TIP3   OH234725   5.221   2.878  14.324  0.8205 -0.0821 -0.0922
 4437TIP3    H134726   5.153   2.877  14.391  0.1131 -0.1762 -0.7998
 4437TIP3    H234727   5.266   2.794  14.333  0.5306 -0.2205  0.0565
 4438TIP3   OH234728   1.433   5.011  15.446  0.3485  0.2211 -0.4795
 4438TIP3    H134729   1.521   5.039  15.471  0.3641 -0.1989 -0.0521
 4438TIP3    H234730   1.405   4.955  15.518 -0.3500  0.5170 -0.5149
 4439TIP3   OH234731   3.782   6.770  15.849 -0.1463 -0.4228 -0.0147
 4439TIP3    H134732   3.764   6.724  15.767  0.2706 -0.6671  0.0308
 4439TIP3    H234733   3.724   6.846  15.846 -0.2079 -0.4828 -0.4894
 4440TIP3   OH234734   1.799   6.194   5.196  0.3475  0.5450  0.2384
 4440TIP3    H134735   1.833   6.279   5.170  2.2323  0.3665  1.8559
 4440TIP3    H234736   1.756   6.209   5.280 -0.1996  0.0572  0.0586
 4441TIP3   OH234737   4.431   2.213  12.334 -0.0078 -0.7254 -0.1456
 4441TIP3    H134738   4.449   2.172  12.419  2.0731  1.1717  0.4585
 4441TIP3    H234739   4.492   2.171  12.273 -0.0736 -0.7087 -0.2226
 4442TIP3   OH234740   1.592   3.771   2.267 -0.0023 -0.7147 -0.4111
 4442TIP3    H134741   1.518   3.814   2.308 -0.4645 -0.2435 -1.6882
 4442TIP3    H234742   1.567   3.679   2.263 -0.8300 -0.4595 -1.4472
 4443TIP3   OH234743   5.267   2.662  15.782 -0.5799  0.7800  0.0990
 4443TIP3    H134744   5.215   2.715  15.842  1.3407  1.0352  1.6666
 4443TIP3    H234745   5.275   2.716  15.703 -2.8224  0.6069 -0.2907
 4444TIP3   OH234746   1.142   0.700   0.042 -0.8498 -0.0599  0.7083
 4444TIP3    H134747   1.145   0.706  -0.054  0.9859  2.0103  0.8269
 4444TIP3    H234748   1.052   0.726   0.064 -0.8208  1.1133 -0.4061
 4445TIP3   OH234749   5.465   3.704   0.464  0.3883 -0.5305  0.3981
 4445TIP3    H134750   5.483   3.680   0.555 -1.0029  0.2912  0.9333
 4445TIP3    H234751   5.379   3.665   0.446  0.5252 -0.4462 -0.4686
 4446TIP3   OH234752   6.732   1.340  12.247  0.6706  0.0217 -0.5298
 4446TIP3    H134753   6.741   1.424  12.203 -1.2521  2.0516  2.5433
 4446TIP3    H234754   6.812   1.330  12.297  0.5154  0.5283 -0.1722
 4447TIP3   OH234755   1.853   6.096  14.211 -1.1960  0.1325  0.1392
 4447TIP3    H134756   1.936   6.144  14.214 -0.5349 -0.9567 -0.2449
 4447TIP3    H234757   1.875   6.009  14.243 -2.3700  0.0549  0.7970
 4448TIP3   OH234758   3.041   6.139   5.130  0.1234 -0.0016 -0.6421
 4448TIP3    H134759   3.022   6.067   5.070  2.8253 -0.8472 -0.6178
 4448TIP3    H234760   2.962   6.147   5.184 -0.0679 -3.3981 -0.2228
 4449TIP3   OH234761   4.738   4.388  14.817  0.5980 -0.5204 -0.5573
 4449TIP3    H134762   4.823   4.395  14.862  0.7225 -1.6898 -0.5791
 4449TIP3    H234763   4.693   4.317  14.862  0.5793 -1.4861 -2.0335
 4450TIP3   OH234764   0.975   4.668   5.392  0.4587 -0.6516  0.4452
 4450TIP3    H134765   0.968   4.573   5.397 -0.9875 -0.6183 -0.4333
 4450TIP3    H234766   1.051   4.684   5.335 -0.6343 -1.3502 -1.2934
 4451TIP3   OH234767   1.825   3.026  13.802 -0.6435  0.9879  0.0727
 4451TIP3    H134768   1.867   3.090  13.743  1.2055  0.6564  0.9810
 4451TIP3    H234769   1.809   3.075  13.883  1.4207  0.1877  1.0234
 4452TIP3   OH234770   0.963   3.223   1.904 -0.0363  0.0738  0.4871
 4452TIP3    H134771   0.882   3.218   1.853 -0.2756 -1.0553  0.9408
 4452TIP3    H234772   0.987   3.131   1.920  0.3849  0.3965  1.8495
 4453TIP3   OH234773   1.380   5.923   2.250  0.8569  0.0447  0.1993
 4453TIP3    H134774   1.311   5.983   2.278  0.7029  0.6335 -1.3915
 4453TIP3    H234775   1.334   5.844   2.222  1.0805 -1.1191  2.7674
 4454TIP3   OH234776   4.907   1.800   1.249 -0.0161 -0.6120  0.0834
 4454TIP3    H134777   4.848   1.871   1.224  2.4828  1.5442 -0.0983
 4454TIP3    H234778   4.861   1.755   1.320 -2.5598 -0.1459 -1.1496
 4455TIP3   OH234779   0.716   6.016   4.118 -0.1967 -0.5212 -0.1395
 4455TIP3    H134780   0.711   5.921   4.103 -0.2308 -0.5155 -0.1646
 4455TIP3    H234781   0.801   6.041   4.080  0.8608 -0.9016  1.8324
 4456TIP3   OH234782   3.786   6.461   4.598  0.2021 -0.1071  0.1144
 4456TIP3    H134783   3.874   6.497   4.586  0.0783  1.1035  2.3083
 4456TIP3    H234784   3.801   6.368   4.615  0.8100 -0.4530 -2.0361
 4457TIP3   OH234785   1.870   5.603  13.321 -0.3337  0.9621 -0.2138
 4457TIP3    H134786   1.945   5.577  13.266 -0.1922  1.1539 -0.1119
 4457TIP3    H234787   1.843   5.688  13.286  0.1448  1.3771  0.4004
 4458TIP3   OH234788   4.467   4.121  15.577 -0.0112 -0.5544 -0.1386
 4458TIP3    H134789   4.386   4.140  15.530  1.0914 -2.6561 -3.1912
 4458TIP3    H234790   4.535   4.160  15.523  1.1447  1.5600  2.5843
 4459TIP3   OH234791   2.432   3.027   3.590  0.2430 -0.3891 -0.6079
 4459TIP3    H134792   2.469   2.987   3.668 -1.0038  0.3099  0.3790
 4459TIP3    H234793   2.509   3.056   3.540  1.1498  1.9782  1.8594
 4460TIP3   OH234794   0.373   2.059   3.061 -0.6258  0.1483 -0.2848
 4460TIP3    H134795   0.290   2.095   3.093 -0.6399 -0.9347  0.9437
 4460TIP3    H234796   0.414   2.019   3.137  1.0958  0.7262 -0.8409
 4461TIP3   OH234797   6.507   6.096   5.910  0.2547  0.1926 -0.1514
 4461TIP3    H134798   6.488   6.091   5.816  1.8546  0.2506 -0.5135
 4461TIP3    H234799   6.602   6.087   5.915  0.3369  1.5198  1.3638
 4462TIP3   OH234800   5.606   5.875  13.892  0.2941 -0.3377  0.3151
 4462TIP3    H134801   5.606   5.949  13.953  2.2857 -0.5154  0.5924
 4462TIP3    H234802   5.665   5.903  13.821 -0.4084 -0.9353 -0.5239
 4463TIP3   OH234803   2.273   6.623  16.359  0.0970  0.4228  0.0972
 4463TIP3    H134804   2.192   6.581  16.384 -0.5910  1.4475 -0.3285
 4463TIP3    H234805   2.246   6.701  16.310  1.3371  0.0322 -1.2921
 4464TIP3   OH234806   1.076   5.106  11.213 -0.5882 -0.6161  1.3992
 4464TIP3    H134807   1.087   5.073  11.124  0.8181 -2.1199  2.0720
 4464TIP3    H234808   1.032   5.191  11.202  1.0053  0.0144 -0.8187
 4465TIP3   OH234809   2.973   5.539   4.724  0.1944 -0.1995  0.0184
 4465TIP3    H134810   2.934   5.626   4.738 -0.6926 -0.4215 -0.9222
 4465TIP3    H234811   2.952   5.518   4.633 -0.2738 -1.7259  0.4560
 4466TIP3   OH234812   1.382   1.172  15.628  0.4818  0.6977  0.3688
 4466TIP3    H134813   1.389   1.208  15.540  0.6097 -1.1561 -0.4448
 4466TIP3    H234814   1.472   1.149  15.652  0.4354  1.1071  0.9558
 4467TIP3   OH234815   3.761   3.991   5.399  0.1868  0.3093 -0.0867
 4467TIP3    H134816   3.724   4.076   5.422 -0.0686  0.0019  0.6665
 4467TIP3    H234817   3.824   3.973   5.468  1.7004  0.7675 -1.2894
 4468TIP3   OH234818   4.680   0.024  15.842  0.3378 -0.1608 -0.0905
 4468TIP3    H134819   4.594  -0.017  15.853 -1.0149  1.8152 -2.3895
 4468TIP3    H234820   4.686   0.088  15.913  0.5848 -1.2318  0.8989
 4469TIP3   OH234821   1.042   0.022  17.178 -0.3602 -0.0506  0.0972
 4469TIP3    H134822   0.955  -0.012  17.156  0.4560 -1.0644 -1.7555
 4469TIP3    H234823   1.099  -0.008  17.107  1.1412  2.2276  0.2156
 4470TIP3   OH234824   2.216   0.261  13.300  0.1387  0.0157 -0.3495
 4470TIP3    H134825   2.130   0.226  13.324  0.5661 -1.4587 -0.8743
 4470TIP3    H234826   2.203   0.297  13.212 -0.9822  3.8263  1.1633
 4471TIP3   OH234827   2.097   0.258  10.247 -0.4388  0.1015  0.2689
 4471TIP3    H134828   2.117   0.180  10.298  0.8900  0.3124  0.1037
 4471TIP3    H234829   2.039   0.309  10.303  0.1389 -0.1711  1.1264
 4472TIP3   OH234830   4.703   2.725  15.331  0.6368 -0.7095  0.1676
 4472TIP3    H134831   4.700   2.776  15.250  1.6077  0.3088  0.7532
 4472TIP3    H234832   4.709   2.634  15.302 -0.5548 -0.4668 -0.8949
 4473TIP3   OH234833   6.680   6.392   3.441 -0.3690 -0.4603  0.3427
 4473TIP3    H134834   6.669   6.352   3.355  2.0413  1.4817 -0.9890
 4473TIP3    H234835   6.595   6.432   3.459 -0.7638 -0.3906 -1.4420
 4474TIP3   OH234836   4.346   5.606  13.141  0.2801  0.0144  0.2913
 4474TIP3    H134837   4.435   5.581  13.165 -0.6519 -3.4418  0.8229
 4474TIP3    H234838   4.298   5.607  13.224 -0.4315  0.5786 -0.1115
 4475TIP3   OH234839   4.794   5.980   1.983 -0.2820  0.7156  0.6886
 4475TIP3    H134840   4.810   6.075   1.976  1.7707  0.4110  0.7258
 4475TIP3    H234841   4.772   5.953   1.894  0.4210  1.0284  0.4139
 4476TIP3   OH234842   5.368   6.064  14.063 -0.1517  0.6758 -0.0795
 4476TIP3    H134843   5.398   6.152  14.086  1.5985 -0.2104  1.2881
 4476TIP3    H234844   5.378   6.059  13.968 -0.4734  2.0055 -0.2004
 4477TIP3   OH234845   3.799   4.357   6.007 -0.2558 -0.3348 -0.2231
 4477TIP3    H134846   3.847   4.385   6.085  0.4602 -0.0800 -0.7471
 4477TIP3    H234847   3.856   4.382   5.934 -0.7067 -0.9966 -0.8040
 4478TIP3   OH234848   1.591   4.371   1.361 -0.1691 -0.4346 -0.7324
 4478TIP3    H134849   1.582   4.316   1.439 -2.9104 -3.7904 -3.0874
 4478TIP3    H234850   1.683   4.361   1.336  0.1503 -1.3800  0.6572
 4479TIP3   OH234851   6.074   0.030  11.714  0.0591  0.0096  0.2365
 4479TIP3    H134852   6.130   0.021  11.791  0.1725 -0.4080  0.1099
 4479TIP3    H234853   6.111   0.103  11.666 -1.3875  1.8257  1.7331
 4480TIP3   OH234854   4.226   0.012  15.620  0.0908  0.4457 -0.4113
 4480TIP3    H134855   4.188   0.095  15.650  0.0352 -0.3441  1.9157
 4480TIP3    H234856   4.192  -0.053  15.682  3.2287 -0.7065  0.2596
 4481TIP3   OH234857   1.090   3.825  16.539  0.5471  1.0734 -0.2293
 4481TIP3    H134858   1.073   3.763  16.469  1.1862  1.9739 -1.2244
 4481TIP3    H234859   1.008   3.831  16.588  1.0239 -2.0702  1.1992
 4482TIP3   OH234860   5.232   5.549  11.210  0.1658 -0.4910 -0.3770
 4482TIP3    H134861   5.138   5.563  11.211  0.4390  1.6436  0.6242
 4482TIP3    H234862   5.244   5.473  11.153 -2.0916 -0.3738 -1.1165
 4483TIP3   OH234863   1.276   1.793   3.354  0.3159 -0.0755  0.6569
 4483TIP3    H134864   1.363   1.769   3.385  1.1074  1.3856 -0.3681
 4483TIP3    H234865   1.239   1.711   3.320  1.0042 -0.8391  1.6668
 4484TIP3   OH234866   6.388   3.705   0.031 -0.1727  0.3643 -0.1204
 4484TIP3    H134867   6.467   3.719   0.083 -1.0231  0.4404  1.1993
 4484TIP3    H234868   6.316   3.718   0.092 -1.2305  0.4986 -1.3323
 4485TIP3   OH234869   2.780   6.487  11.457 -0.4683 -0.0064  0.0255
 4485TIP3    H134870   2.763   6.551  11.388 -1.9503  1.2577  1.4496
 4485TIP3    H234871   2.843   6.426  11.419 -1.4065  0.4751 -2.4996
 4486TIP3   OH234872   5.278   4.978   4.257  0.2118  0.2161 -0.1985
 4486TIP3    H134873   5.306   5.045   4.195 -0.5397  2.0706  1.3715
 4486TIP3    H234874   5.335   4.990   4.333  0.0912 -0.9755  0.1030
 4487TIP3   OH234875   4.766   6.668   0.738  0.4116  0.1234  0.0774
 4487TIP3    H134876   4.812   6.682   0.656 -0.1638  0.9723 -0.1128
 4487TIP3    H234877   4.817   6.717   0.803 -0.2105  1.0759 -0.1360
 4488TIP3   OH234878   3.167   5.393   0.567 -0.8122 -0.8718 -0.3190
 4488TIP3    H134879   3.189   5.477   0.608  1.9736 -1.0512 -1.2271
 4488TIP3    H234880   3.085   5.410   0.521 -2.1880  0.2979  2.3202
 4489TIP3   OH234881   4.103   3.414   2.297 -0.1475  0.7871  0.1990
 4489TIP3    H134882   4.195   3.395   2.277 -0.4037 -0.7764  0.3168
 4489TIP3    H234883   4.059   3.414   2.212 -0.3188 -0.3482  0.2617
 4490TIP3   OH234884   2.784   4.502  12.457 -0.3593 -0.2976 -0.2303
 4490TIP3    H134885   2.756   4.428  12.403 -4.0463  0.4951  0.3421
 4490TIP3    H234886   2.796   4.574  12.395 -0.3734 -0.4321 -0.3902
 4491TIP3   OH234887   0.205   3.214  11.551 -0.3179  0.1102 -0.4506
 4491TIP3    H134888   0.238   3.261  11.473  0.2598  0.4688 -0.0000
 4491TIP3    H234889   0.225   3.272  11.624  2.8375 -1.8925  0.4782
 4492TIP3   OH234890   1.360   6.274   0.744 -0.4869  0.5161 -0.5239
 4492TIP3    H134891   1.406   6.352   0.713 -0.5623  1.0070  0.5858
 4492TIP3    H234892   1.344   6.223   0.664  3.7900 -0.7229 -0.8386
 4493TIP3   OH234893   6.359   4.287   3.862  0.1003  0.3906  0.8299
 4493TIP3    H134894   6.438   4.328   3.897  0.5261  0.7114 -0.4781
 4493TIP3    H234895   6.389   4.201   3.831 -0.4237 -0.1966  1.8676
 4494TIP3   OH234896   1.460   3.928   4.132 -0.9797 -0.0921 -0.5215
 4494TIP3    H134897   1.471   3.834   4.140  0.9069  0.2082  1.4417
 4494TIP3    H234898   1.526   3.965   4.191 -0.8492  2.4725 -2.1085
 4495TIP3   OH234899   2.763   4.438   4.380  0.1945 -0.2692  0.1170
 4495TIP3    H134900   2.721   4.405   4.460  2.1114 -2.6961  0.2450
 4495TIP3    H234901   2.786   4.359   4.331  1.3248  1.0804 -1.6361
 4496TIP3   OH234902   1.858   5.824   2.878 -0.5481 -0.4935  0.0747
 4496TIP3    H134903   1.835   5.806   2.787  3.0251 -0.7226 -0.9140
 4496TIP3    H234904   1.840   5.918   2.888  0.4914 -0.1011 -1.3964
 4497TIP3   OH234905   4.302   5.735   3.737 -0.5869  0.4087 -0.2467
 4497TIP3    H134906   4.357   5.657   3.729 -0.9929  0.2900 -2.3511
 4497TIP3    H234907   4.216   5.708   3.705 -1.3716  1.1363  1.1353
 4498TIP3   OH234908   5.216   0.555   3.337  0.1717 -0.1285 -0.7246
 4498TIP3    H134909   5.197   0.584   3.248  0.8789  0.5607 -0.6575
 4498TIP3    H234910   5.148   0.491   3.356  0.1611 -0.4699 -1.8531
 4499TIP3   OH234911   5.767   3.459  16.263 -0.1436  0.5019  0.1145
 4499TIP3    H134912   5.848   3.426  16.223  0.2991  1.5099  0.1536
 4499TIP3    H234913   5.702   3.454  16.193 -0.2791 -1.0635  0.3015
 4500TIP3   OH234914   4.295   1.133   0.297 -0.9537  0.4175 -0.3003
 4500TIP3    H134915   4.261   1.143   0.209 -1.2740  2.5008  0.0103
 4500TIP3    H234916   4.218   1.118   0.352 -0.9770  1.0974 -0.1339
 4501TIP3   OH234917   5.692   3.502  11.137 -0.2679  0.6281  0.3236
 4501TIP3    H134918   5.661   3.418  11.171 -0.2401  0.4328 -0.1358
 4501TIP3    H234919   5.612   3.553  11.124 -0.3888  0.2374 -0.5551
 4502TIP3   OH234920   6.309   4.975  17.208 -0.0177  0.1027 -0.4158
 4502TIP3    H134921   6.312   5.020  17.123 -1.4537 -0.0552 -0.5752
 4502TIP3    H234922   6.364   4.898  17.196 -0.9247 -0.3987 -1.5156
 4503TIP3   OH234923   4.569   3.213   5.395 -0.4791 -0.7739 -0.1733
 4503TIP3    H134924   4.578   3.272   5.320  2.2912 -2.8246 -1.6453
 4503TIP3    H234925   4.595   3.266   5.470  1.3726  0.1347 -1.3678
 4504TIP3   OH234926   3.432   6.533   1.123  0.1624 -0.3441  0.3328
 4504TIP3    H134927   3.403   6.443   1.137 -1.3470 -0.0247 -0.4778
 4504TIP3    H234928   3.352   6.581   1.101  0.9197  1.2114  0.7913
 4505TIP3   OH234929   1.886   0.376  14.082  0.2345 -0.3211 -0.1183
 4505TIP3    H134930   1.921   0.465  14.072 -1.0965  0.1702 -0.5951
 4505TIP3    H234931   1.792   0.388  14.093  0.1961 -1.5944  1.2965
 4506TIP3   OH234932   1.010   4.856  13.684 -0.2086 -0.4471  0.0899
 4506TIP3    H134933   1.083   4.894  13.734 -0.7105 -2.1567  2.2416
 4506TIP3    H234934   0.998   4.917  13.611  2.9610  0.2324 -0.0298
 4507TIP3   OH234935   1.981   0.533  16.552 -0.0822  0.1928 -0.1655
 4507TIP3    H134936   2.073   0.541  16.576 -0.2038  1.5395 -0.1021
 4507TIP3    H234937   1.969   0.596  16.481 -0.3814 -1.7179 -1.9186
 4508TIP3   OH234938   4.909   4.776   0.735 -0.0851 -0.3457 -0.2970
 4508TIP3    H134939   4.959   4.845   0.780  1.5067 -1.2726 -0.5653
 4508TIP3    H234940   4.830   4.766   0.788  1.2074 -0.6235  1.6862
 4509TIP3   OH234941   1.910   5.148   5.386 -0.3895  0.2802 -0.4994
 4509TIP3    H134942   1.882   5.212   5.320  0.5731 -0.5989 -1.8043
 4509TIP3    H234943   1.833   5.094   5.401 -0.0675 -0.8115 -2.4912
 4510TIP3   OH234944   5.609   5.295   1.808 -1.0957  0.3755 -0.3283
 4510TIP3    H134945   5.586   5.202   1.803 -2.0073  0.6489 -2.1374
 4510TIP3    H234946   5.605   5.325   1.717  1.5123  1.6598 -0.1044
 4511TIP3   OH234947   0.276   2.973   2.573 -0.7643  0.2972  0.1382
 4511TIP3    H134948   0.207   2.908   2.565 -2.0939  1.2952  2.5393
 4511TIP3    H234949   0.284   2.989   2.667  1.2568  1.7958 -0.2142
 4512TIP3   OH234950   6.784   4.064  16.147 -0.8942  0.0573  0.2117
 4512TIP3    H134951   6.754   4.012  16.072 -2.9695  1.4449 -0.0285
 4512TIP3    H234952   6.793   4.001  16.218 -2.9668 -0.7503 -0.1600
 4513TIP3   OH234953   1.485   4.573  15.441  0.1471  0.2387  0.1941
 4513TIP3    H134954   1.499   4.497  15.498  0.3567  0.4530  0.4316
 4513TIP3    H234955   1.545   4.640  15.474  0.3302  0.3419 -0.3283
 4514TIP3   OH234956   6.342   6.616  10.552 -0.6983  0.3897 -0.0269
 4514TIP3    H134957   6.416   6.676  10.565 -0.4053  0.5226 -2.0097
 4514TIP3    H234958   6.369   6.535  10.596  0.1734  0.7896  0.2037
 4515TIP3   OH234959   2.198   1.394   3.616 -0.5944 -0.4550  0.5755
 4515TIP3    H134960   2.200   1.305   3.581  1.8955  0.3237 -1.5645
 4515TIP3    H234961   2.258   1.443   3.561 -0.8645  2.2915  2.5125
 4516TIP3   OH234962   6.352   4.924  16.499  0.1862  0.2713  0.9546
 4516TIP3    H134963   6.348   4.848  16.442  0.6302  0.1515  1.0794
 4516TIP3    H234964   6.263   4.959  16.498 -0.3714 -1.0231  1.9391
 4517TIP3   OH234965   0.568   0.849   0.542 -0.4001  0.5316 -0.0754
 4517TIP3    H134966   0.653   0.816   0.512  0.1579  1.6079  0.2553
 4517TIP3    H234967   0.510   0.837   0.467  0.2381  0.4806 -0.5752
 4518TIP3   OH234968   5.463   6.144  16.523  0.6245 -0.3888  0.2827
 4518TIP3    H134969   5.398   6.183  16.581  0.2951  2.1202 -1.6337
 4518TIP3    H234970   5.542   6.136  16.577 -1.1093 -3.7104  2.7357
 4519TIP3   OH234971   6.058   1.847   5.388 -0.0289 -0.5571 -0.1298
 4519TIP3    H134972   6.085   1.793   5.463  0.2887 -0.4114 -0.1347
 4519TIP3    H234973   6.128   1.913   5.380 -1.1480  0.8293  0.8523
 4520TIP3   OH234974   4.026   5.520   6.059  0.0355 -0.0353 -0.4152
 4520TIP3    H134975   4.089   5.462   6.015 -1.6561 -0.7839 -1.9918
 4520TIP3    H234976   3.974   5.461   6.114  0.6092  0.5677  0.8277
 4521TIP3   OH234977   1.178   0.982   1.801 -0.2125  0.0762  0.3676
 4521TIP3    H134978   1.181   0.913   1.867  0.1720 -0.4799 -0.2237
 4521TIP3    H234979   1.181   0.936   1.717 -1.8203  0.6978 -0.0842
 4522TIP3   OH234980   5.274   1.194  14.728  0.2594  0.6405  0.1460
 4522TIP3    H134981   5.291   1.130  14.659  0.6441 -1.2665  1.9043
 4522TIP3    H234982   5.356   1.241  14.739  0.4071  0.4670 -0.2270
 4523TIP3   OH234983   1.815   1.915   2.010  0.0283  0.2481  0.2565
 4523TIP3    H134984   1.824   1.893   2.102 -0.5303  0.9660  0.4958
 4523TIP3    H234985   1.893   1.967   1.990 -0.2930  0.8693  0.5778
 4524TIP3   OH234986   2.887   2.761   3.627  0.0503 -0.7653  0.1483
 4524TIP3    H134987   2.936   2.689   3.668 -0.1702 -1.3384 -0.5751
 4524TIP3    H234988   2.796   2.730   3.624  0.0951 -0.8369 -0.9748
 4525TIP3   OH234989   1.977   3.359   1.619 -0.1548  0.5998 -0.5372
 4525TIP3    H134990   1.949   3.446   1.648  2.6315  2.1394 -2.0699
 4525TIP3    H234991   2.068   3.352   1.648 -0.1682 -1.6587 -0.8546
 4526TIP3   OH234992   3.504   0.040   4.528  0.6444 -0.2067  0.1084
 4526TIP3    H134993   3.448  -0.035   4.511 -0.4076  0.7854 -1.0717
 4526TIP3    H234994   3.540   0.063   4.442 -0.9651  2.0584 -0.0365
 4527TIP3   OH234995   1.253   0.346  14.721  0.5998 -0.1815 -0.2844
 4527TIP3    H134996   1.172   0.301  14.745  0.3289  0.0832 -0.6791
 4527TIP3    H234997   1.295   0.288  14.657  0.3522  0.0259 -0.6384
 4528TIP3   OH234998   0.009   0.490  13.152 -0.2578 -0.3844 -0.1350
 4528TIP3    H134999  -0.003   0.536  13.069  0.6872 -0.9546 -0.6109
 4528TIP3    H235000  -0.027   0.403  13.137  0.8858 -0.8387 -0.3124
 4529TIP3   OH235001   3.572   6.645  17.100  0.1988 -0.1070  0.4574
 4529TIP3    H135002   3.624   6.665  17.178  1.7370 -0.5675 -0.4185
 4529TIP3    H235003   3.486   6.622  17.135 -0.0773  2.5781  1.8309
 4530TIP3   OH235004   3.445   0.814   3.237  0.2713  0.3524  0.2156
 4530TIP3    H135005   3.400   0.829   3.154  0.7284 -0.8908 -0.2829
 4530TIP3    H235006   3.385   0.759   3.288  0.0622  0.9741  0.6562
 4531TIP3   OH235007   4.654   1.763  13.424 -0.2199  0.3343 -0.1082
 4531TIP3    H135008   4.740   1.721  13.428  0.5808  1.9404  0.2854
 4531TIP3    H235009   4.663   1.841  13.479 -1.7894  0.7779 -0.4424
 4532TIP3   OH235010   5.348   5.533   4.445  0.9585  0.2039 -0.1671
 4532TIP3    H135011   5.378   5.512   4.533 -3.6865 -0.5409  1.5215
 4532TIP3    H235012   5.336   5.628   4.446 -0.7186  0.0178  0.7211
 4533TIP3   OH235013   1.605   2.872   5.439 -0.0430 -0.1342 -0.4301
 4533TIP3    H135014   1.567   2.891   5.353  1.9754  0.6679 -1.2220
 4533TIP3    H235015   1.594   2.777   5.449  1.1895 -0.5714 -2.4352
 4534TIP3   OH235016   2.875   4.497   2.081  0.2265  0.4716  0.0583
 4534TIP3    H135017   2.965   4.528   2.093  1.0226 -1.2171 -1.0953
 4534TIP3    H235018   2.834   4.508   2.167  2.3046 -1.0082  1.3557
 4535TIP3   OH235019   2.065   6.139   2.665 -0.0767  0.8398  1.1499
 4535TIP3    H135020   2.069   6.109   2.574  1.8200  2.2022  0.7347
 4535TIP3    H235021   2.058   6.234   2.659  1.6339  1.0833  2.3935
 4536TIP3   OH235022   5.044   2.490  15.549 -0.1771  0.2291 -0.2341
 4536TIP3    H135023   5.067   2.499  15.641 -1.1996 -0.1662  0.0736
 4536TIP3    H235024   5.007   2.402  15.541 -2.1784  1.0426 -0.5274
 4537TIP3   OH235025   1.294   0.360   4.584 -0.5963 -0.2122 -0.0194
 4537TIP3    H135026   1.234   0.335   4.654 -1.2383  1.5217  0.1070
 4537TIP3    H235027   1.380   0.365   4.627 -0.6651 -0.9554  0.2136
 4538TIP3   OH235028   5.553   0.486   0.851  0.0385 -0.6796 -0.0517
 4538TIP3    H135029   5.559   0.472   0.945  1.7859 -0.7672 -0.1361
 4538TIP3    H235030   5.640   0.463   0.818  1.5701  4.8756 -0.9523
 4539TIP3   OH235031   3.847   0.606   5.877 -0.3287  0.2787  0.2636
 4539TIP3    H135032   3.927   0.557   5.891 -0.3044  0.4683  0.7924
 4539TIP3    H235033   3.874   0.682   5.825 -0.3703 -0.2619 -0.5771
 4540TIP3   OH235034   0.025   5.616   4.564 -0.2366  0.3646  0.4278
 4540TIP3    H135035  -0.019   5.535   4.537 -2.2916  1.3435  0.6652
 4540TIP3    H235036   0.009   5.622   4.658 -1.3421  1.7276  0.1821
 4541TIP3   OH235037   3.687   2.184  13.359  0.3350  0.4793 -0.2903
 4541TIP3    H135038   3.593   2.180  13.378  0.7233  0.3897  1.7837
 4541TIP3    H235039   3.727   2.123  13.420  1.6651 -0.4839 -2.0321
 4542TIP3   OH235040   6.511   3.407  15.444 -0.0613 -0.3579 -0.0019
 4542TIP3    H135041   6.570   3.481  15.429 -0.5568 -0.0626 -0.5223
 4542TIP3    H235042   6.494   3.410  15.538 -0.1420  0.2504 -0.0281
 4543TIP3   OH235043   4.915   3.764  11.992 -0.1950  0.0952 -0.0222
 4543TIP3    H135044   4.936   3.858  11.990  0.6432 -0.0944 -0.8845
 4543TIP3    H235045   4.823   3.761  12.015 -0.1623  1.1246  0.3191
 4544TIP3   OH235046   0.837   2.931   5.562 -0.2970 -0.7937  0.1636
 4544TIP3    H135047   0.815   2.993   5.631  0.0688  0.1645 -0.5626
 4544TIP3    H235048   0.809   2.973   5.481  1.9155 -0.5575 -0.5697
 4545TIP3   OH235049   4.506   5.408  10.797 -0.3125 -0.3939 -0.3582
 4545TIP3    H135050   4.550   5.479  10.751 -0.4944  0.0213  0.1086
 4545TIP3    H235051   4.457   5.450  10.868  1.1656 -1.1525  1.1740
 4546TIP3   OH235052   0.309   3.822   1.282 -0.2050  0.3766 -0.2203
 4546TIP3    H135053   0.260   3.817   1.364 -2.1631 -1.6947 -1.4115
 4546TIP3    H235054   0.401   3.816   1.309 -0.7419  0.6464  1.8477
 4547TIP3   OH235055   2.915   5.371   5.765 -0.3088 -0.3390  0.6652
 4547TIP3    H135056   2.870   5.292   5.793  0.4276 -1.9830 -2.3566
 4547TIP3    H235057   2.866   5.401   5.689  1.4002  0.1051 -0.3085
 4548TIP3   OH235058   5.261   1.465   5.557 -0.2799  0.2390  0.6047
 4548TIP3    H135059   5.203   1.536   5.530 -0.6273  0.0211  0.7688
 4548TIP3    H235060   5.202   1.392   5.575  0.0732 -0.0793  0.4719
 4549TIP3   OH235061   6.034   0.174   0.525  0.4734  0.3239  0.3780
 4549TIP3    H135062   6.079   0.122   0.458 -0.0288  0.3111  0.0470
 4549TIP3    H235063   6.094   0.247   0.542  0.8274  0.0618  0.2772
 4550TIP3   OH235064   1.912   3.311   0.103  0.1632  0.4544  0.2008
 4550TIP3    H135065   1.908   3.398   0.144 -0.6394 -0.1946  1.5628
 4550TIP3    H235066   1.855   3.319   0.026 -0.8962  0.7991  1.0022
 4551TIP3   OH235067   4.201   3.246  11.953  0.1281  0.8681 -0.2689
 4551TIP3    H135068   4.288   3.259  11.991 -0.1880 -0.0598  0.8246
 4551TIP3    H235069   4.152   3.199  12.020 -1.3606  1.7297 -0.7087
 4552TIP3   OH235070   3.333   4.610   4.326 -0.0220  0.3093  0.0897
 4552TIP3    H135071   3.342   4.530   4.377  1.7205  0.3799 -0.0645
 4552TIP3    H235072   3.241   4.635   4.337 -0.0485 -0.4839  1.9826
 4553TIP3   OH235073   3.295   2.002  16.625 -0.9585  0.1319  0.2832
 4553TIP3    H135074   3.302   1.972  16.534  0.3539  0.5392  0.2308
 4553TIP3    H235075   3.286   1.922  16.676 -0.5550 -0.1707 -0.1146
 4554TIP3   OH235076   4.520   5.290   6.013  0.2497  0.8023  0.0701
 4554TIP3    H135077   4.436   5.248   5.992  1.2413 -0.3524 -1.8651
 4554TIP3    H235078   4.508   5.324   6.102 -1.2040 -2.2269  1.1864
 4555TIP3   OH235079   4.886   5.161  17.156  0.2472  0.1408  0.0025
 4555TIP3    H135080   4.822   5.222  17.193 -0.2972  0.4267 -1.3306
 4555TIP3    H235081   4.847   5.075  17.169 -0.9959  0.3768 -1.7858
 4556TIP3   OH235082   5.805   1.216   3.322  0.4563 -0.3451 -0.1159
 4556TIP3    H135083   5.901   1.219   3.317  0.4155 -0.7235 -2.0668
 4556TIP3    H235084   5.787   1.138   3.375  1.2080  0.4020  1.2894
 4557TIP3   OH235085   4.263   4.724   5.938  0.2186 -0.0893 -0.3492
 4557TIP3    H135086   4.317   4.781   5.882  0.9984  0.6027  1.0642
 4557TIP3    H235087   4.233   4.780   6.009 -2.1084 -0.5567 -0.8792
 4558TIP3   OH235088   1.479   4.859  11.923  0.5938 -0.0906 -0.1638
 4558TIP3    H135089   1.528   4.842  11.843 -1.9340  0.6174 -1.9918
 4558TIP3    H235090   1.426   4.936  11.903 -1.0027 -0.5845  1.7842
 4559TIP3   OH235091   6.058   5.776  11.490  0.7620 -0.1720 -0.1926
 4559TIP3    H135092   5.977   5.823  11.508  0.3507 -0.7625 -0.4759
 4559TIP3    H235093   6.089   5.748  11.577  0.4247 -0.3367 -0.1256
 4560TIP3   OH235094   2.163   2.110  16.065  0.2359  0.3239  0.0969
 4560TIP3    H135095   2.228   2.051  16.102  0.9735  1.4303  0.6028
 4560TIP3    H235096   2.079   2.071  16.089  0.7085 -0.2523  0.8483
 4561TIP3   OH235097   1.250   3.906   1.046 -0.3976 -0.1116 -0.4121
 4561TIP3    H135098   1.341   3.889   1.025 -0.2814  0.6771 -0.5789
 4561TIP3    H235099   1.243   3.887   1.140  0.3010  1.2567 -0.0620
 4562TIP3   OH235100   1.617   0.204  15.696 -0.1802  0.7253  0.2284
 4562TIP3    H135101   1.620   0.200  15.600 -1.0658  0.3647  0.2072
 4562TIP3    H235102   1.573   0.123  15.722 -1.0200  1.3634  0.8776
 4563TIP3   OH235103   4.727   4.120  13.565  0.5245  0.0085  0.5406
 4563TIP3    H135104   4.661   4.108  13.496 -1.4600  0.6660  2.2212
 4563TIP3    H235105   4.714   4.210  13.595  2.5078  0.2986  0.6622
 4564TIP3   OH235106   3.997   4.804   2.839  0.2449 -0.3300 -0.3955
 4564TIP3    H135107   3.945   4.730   2.808 -1.1826  1.5080 -2.7850
 4564TIP3    H235108   4.087   4.770   2.843 -0.2543 -2.0106 -2.0913
 4565TIP3   OH235109   0.143   5.822   2.614 -0.0349  0.2587 -0.0004
 4565TIP3    H135110   0.104   5.736   2.598  1.1940 -0.4843  0.7836
 4565TIP3    H235111   0.127   5.838   2.707  1.1334  0.1121  0.2474
 4566TIP3   OH235112   3.931   5.956  11.824  0.5936  0.6134  0.4652
 4566TIP3    H135113   3.932   6.046  11.857  1.6052  1.1327 -0.8964
 4566TIP3    H235114   3.965   5.963  11.735 -0.1500 -1.0152  0.0275
 4567TIP3   OH235115   5.382   4.581  10.900  0.6233 -0.1164 -0.0277
 4567TIP3    H135116   5.439   4.533  10.841  0.8842  1.5933 -1.2356
 4567TIP3    H235117   5.393   4.673  10.875 -2.0467  0.3453  0.1968
 4568TIP3   OH235118   2.572   0.991  14.926  0.2377 -0.1469  0.4877
 4568TIP3    H135119   2.659   1.021  14.951 -0.2195  0.3551  1.5372
 4568TIP3    H235120   2.586   0.904  14.890  1.4075  0.6655 -1.1855
 4569TIP3   OH235121   5.472   0.526  11.881 -0.5450  0.5849  0.5108
 4569TIP3    H135122   5.511   0.611  11.866  0.4011  0.0606 -0.0960
 4569TIP3    H235123   5.416   0.511  11.806  0.7118 -0.0944 -0.3361
 4570TIP3   OH235124   6.334   4.573  16.939  0.2471  0.1971  0.0408
 4570TIP3    H135125   6.254   4.533  16.904 -0.4190  0.4008  1.2776
 4570TIP3    H235126   6.345   4.653  16.887  0.6682 -0.7302 -1.3368
 4571TIP3   OH235127   6.774   6.505  16.051 -0.0682  0.0138  0.2105
 4571TIP3    H135128   6.797   6.413  16.056 -2.4457 -0.7581 -1.3625
 4571TIP3    H235129   6.763   6.532  16.142  0.4464 -1.2909  0.6833
 4572TIP3   OH235130   1.897   1.246  11.009  0.3378  0.0649 -0.5528
 4572TIP3    H135131   1.878   1.264  11.101 -0.0584 -1.6970 -0.2685
 4572TIP3    H235132   1.842   1.308  10.961  1.4504  1.8563  0.3647
 4573TIP3   OH235133   6.279   3.966   3.573  0.2332 -0.2281  0.0140
 4573TIP3    H135134   6.245   4.022   3.503 -1.7825 -2.0045 -0.5469
 4573TIP3    H235135   6.326   3.897   3.527  1.2499  0.0578  0.6014
 4574TIP3   OH235136   1.228   2.146   3.694 -0.2304 -0.4038  0.7065
 4574TIP3    H135137   1.213   2.075   3.631 -0.4751 -0.9510  1.3770
 4574TIP3    H235138   1.228   2.226   3.640  0.8231 -0.9589 -0.1669
 4575TIP3   OH235139   4.367   1.380  10.541 -0.6245  0.6932  0.9379
 4575TIP3    H135140   4.352   1.348  10.630  1.0428 -0.9186  0.6904
 4575TIP3    H235141   4.462   1.384  10.533 -0.7614  1.4847 -0.5682
 4576TIP3   OH235142   1.385   0.318   5.133 -0.1337  0.2212  0.3871
 4576TIP3    H135143   1.413   0.300   5.044 -0.6777 -1.8273  0.5924
 4576TIP3    H235144   1.466   0.332   5.182  0.2926 -0.9418  0.0256
 4577TIP3   OH235145   0.448   3.188   3.748  0.1252  0.1554  0.2412
 4577TIP3    H135146   0.396   3.234   3.815  2.3192  1.1003  1.4104
 4577TIP3    H235147   0.439   3.095   3.770 -0.6480  0.3304  0.7117
 4578TIP3   OH235148   3.498   0.272   2.894 -0.5141 -0.1983 -0.0288
 4578TIP3    H135149   3.592   0.278   2.882 -0.3596 -1.7990  0.2099
 4578TIP3    H235150   3.462   0.276   2.805 -0.1425 -0.7504 -0.2043
 4579TIP3   OH235151   1.451   3.744   2.881 -0.3671 -0.2254  0.1845
 4579TIP3    H135152   1.502   3.708   2.954  2.4424  2.0346 -0.4550
 4579TIP3    H235153   1.473   3.837   2.880 -1.1630  0.0443 -2.8563
 4580TIP3   OH235154   3.353   6.458   4.047 -0.5122  0.7818 -0.0082
 4580TIP3    H135155   3.337   6.431   3.956 -0.4669  3.2726 -0.8246
 4580TIP3    H235156   3.318   6.386   4.099  1.3488 -1.7296 -1.9628
 4581TIP3   OH235157   5.743   0.775   0.097  0.1086  0.3076 -0.3710
 4581TIP3    H135158   5.721   0.868   0.093 -1.3574  0.2623  3.0761
 4581TIP3    H235159   5.834   0.771   0.068  0.0827  2.7089 -1.0656
 4582TIP3   OH235160   0.856   2.158  14.788 -0.1897  0.4288 -0.6841
 4582TIP3    H135161   0.791   2.094  14.761 -1.6683  0.1501  2.9736
 4582TIP3    H235162   0.821   2.242  14.760 -1.4146  0.1410 -0.0750
 4583TIP3   OH235163   4.705   3.919   3.788 -0.6080  0.4157 -0.0790
 4583TIP3    H135164   4.671   3.848   3.842  0.9049 -0.9752 -0.8671
 4583TIP3    H235165   4.793   3.936   3.823 -0.3844  0.8663 -0.8448
 4584TIP3   OH235166   0.897   4.137  13.902 -0.1534 -0.1691  0.5671
 4584TIP3    H135167   0.944   4.219  13.914 -0.6587  0.3396 -0.7406
 4584TIP3    H235168   0.809   4.155  13.933  0.1587 -0.7604  1.8800
 4585TIP3   OH235169   0.472   0.846   2.905 -0.5964 -0.4779 -0.2624
 4585TIP3    H135170   0.428   0.767   2.875 -0.6770 -1.0143  1.1731
 4585TIP3    H235171   0.527   0.873   2.831  0.3605 -2.5660 -0.3839
 4586TIP3   OH235172   6.375   3.444  13.017  0.9929 -0.3465  0.3915
 4586TIP3    H135173   6.350   3.515  13.075 -0.4830  0.5935 -1.2754
 4586TIP3    H235174   6.470   3.449  13.011  0.9024  1.6793  0.1237
 4587TIP3   OH235175   1.703   3.275  16.643  0.4580 -0.0430 -0.3354
 4587TIP3    H135176   1.651   3.201  16.674 -0.5817  1.0170  0.5401
 4587TIP3    H235177   1.791   3.258  16.675  0.3289 -1.1160 -0.5255
 4588TIP3   OH235178   6.721   1.256  16.154 -0.1050  0.5792 -0.1684
 4588TIP3    H135179   6.726   1.258  16.058  0.9892 -2.8598 -0.2886
 4588TIP3    H235180   6.627   1.253  16.173 -0.3990  2.6886 -0.9732
 4589TIP3   OH235181   3.957   5.633  11.556  0.6067 -0.2684  0.0542
 4589TIP3    H135182   3.874   5.630  11.507  0.0134  2.0837  0.7561
 4589TIP3    H235183   3.966   5.545  11.593 -1.8881 -0.4509  0.4106
 4590TIP3   OH235184   3.737   1.788  15.220  0.2410 -0.0486  0.2784
 4590TIP3    H135185   3.753   1.853  15.289  0.8182  0.9454 -0.7521
 4590TIP3    H235186   3.772   1.829  15.140  1.4642 -1.9985 -0.2566
 4591TIP3   OH235187   0.451   0.215   5.325  0.5918 -0.2339  0.5035
 4591TIP3    H135188   0.424   0.261   5.404  2.3269 -0.6221  1.3756
 4591TIP3    H235189   0.379   0.155   5.306 -1.7295  2.6708 -0.6405
 4592TIP3   OH235190   4.804   5.166  14.349  0.2412 -0.0335 -0.0757
 4592TIP3    H135191   4.828   5.179  14.258 -1.3325  0.7325 -0.4067
 4592TIP3    H235192   4.795   5.254  14.386 -0.9491 -0.2800  0.2936
 4593TIP3   OH235193   1.743   0.202  13.765 -0.7136 -0.0295 -0.1314
 4593TIP3    H135194   1.762   0.290  13.733  1.4009 -1.0508 -1.9825
 4593TIP3    H235195   1.803   0.191  13.839 -1.8025  0.4438  0.8533
 4594TIP3   OH235196   0.710   6.446  14.698  0.0100 -0.0174  0.1314
 4594TIP3    H135197   0.755   6.530  14.701 -1.3032  0.6840  0.9969
 4594TIP3    H235198   0.715   6.413  14.788 -2.7668  0.9769  0.7483
 4595TIP3   OH235199   5.882   6.625   3.122  0.2480 -0.4267  0.3895
 4595TIP3    H135200   5.930   6.698   3.161 -2.1158  0.5312  1.7398
 4595TIP3    H235201   5.862   6.566   3.195  0.3837 -1.4065 -0.3400
 4596TIP3   OH235202   0.857   2.672   5.663  0.0025  0.0985 -0.4091
 4596TIP3    H135203   0.818   2.751   5.624  0.2291  0.4049 -0.0138
 4596TIP3    H235204   0.934   2.654   5.610 -0.6541 -0.5126 -1.2008
 4597TIP3   OH235205   1.867   0.983  15.866  0.2885  0.2771  0.4141
 4597TIP3    H135206   1.812   0.926  15.813 -1.3627  1.8621  0.3344
 4597TIP3    H235207   1.930   0.924  15.908 -0.1550 -1.3393 -1.0935
 4598TIP3   OH235208   6.735   4.396  16.641 -0.1239 -0.2881 -0.1664
 4598TIP3    H135209   6.791   4.430  16.571 -0.5472  0.4645 -0.1494
 4598TIP3    H235210   6.646   4.402  16.606 -0.3393  0.0780  0.4151
 4599TIP3   OH235211   2.842   2.177  12.145 -0.6882  0.4000  0.7502
 4599TIP3    H135212   2.892   2.253  12.174  1.2617  0.2573 -1.8409
 4599TIP3    H235213   2.780   2.212  12.081  0.8107 -0.1700 -1.1176
 4600TIP3   OH235214   5.050   4.267   4.711 -0.6875 -0.2644  0.3599
 4600TIP3    H135215   5.028   4.359   4.722  2.5595  0.5147  1.6145
 4600TIP3    H235216   5.098   4.263   4.628 -1.3531 -0.9541 -0.0012
 4601TIP3   OH235217   0.216   0.598   2.601  0.1954  1.2559  0.0428
 4601TIP3    H135218   0.213   0.658   2.526 -0.4116  0.0584 -0.9207
 4601TIP3    H235219   0.310   0.588   2.619  0.4191  0.8099 -1.2045
 4602TIP3   OH235220   1.369   6.078   5.830 -0.7998  0.5150  0.2203
 4602TIP3    H135221   1.451   6.029   5.830 -0.7189  0.6480  0.0313
 4602TIP3    H235222   1.344   6.083   5.922 -0.3469  0.8856  0.3247
 4603TIP3   OH235223   4.577   4.760   2.188  0.0938 -0.2321 -0.1826
 4603TIP3    H135224   4.617   4.793   2.108 -0.7485 -0.0395 -0.5317
 4603TIP3    H235225   4.598   4.826   2.254  1.0875 -0.5596 -0.1413
 4604TIP3   OH235226   4.417   5.256  12.701 -0.5804 -0.7169 -0.2779
 4604TIP3    H135227   4.467   5.234  12.780  1.8546  0.7944 -1.2633
 4604TIP3    H235228   4.374   5.339  12.724  0.2812 -0.1768 -0.5449
 4605TIP3   OH235229   3.296   3.666   0.467  0.3561 -0.6104  0.4358
 4605TIP3    H135230   3.305   3.742   0.524 -0.4436 -2.7358  3.6791
 4605TIP3    H235231   3.206   3.636   0.482 -0.3152 -0.7010 -2.9220
 4606TIP3   OH235232   2.071   4.267  13.896  0.7504  0.3148  0.5990
 4606TIP3    H135233   1.996   4.321  13.872  0.8313  1.1523  2.0511
 4606TIP3    H235234   2.112   4.315  13.969  2.0317 -0.6923  0.5782
 4607TIP3   OH235235   2.413   5.580  15.668 -0.0014 -0.0347  0.4928
 4607TIP3    H135236   2.454   5.631  15.737  0.8718 -2.6922  2.0704
 4607TIP3    H235237   2.455   5.494  15.672  0.5425 -0.1869 -3.7990
 4608TIP3   OH235238   2.038   0.620   1.496 -0.3575  0.3693  0.0036
 4608TIP3    H135239   2.055   0.713   1.508  0.7120  0.1923 -0.0738
 4608TIP3    H235240   2.092   0.577   1.562 -0.4372 -0.2252 -0.3121
 4609TIP3   OH235241   6.790   3.616   1.928 -0.1921 -0.3311  0.2469
 4609TIP3    H135242   6.786   3.669   2.008  1.2378 -0.0622  0.1662
 4609TIP3    H235243   6.702   3.622   1.891 -0.2644  1.4307  0.6079
 4610TIP3   OH235244   2.783   2.824  16.227 -0.1159 -0.3027  0.2845
 4610TIP3    H135245   2.844   2.864  16.166  0.1359 -0.7290  0.2529
 4610TIP3    H235246   2.751   2.746  16.182 -0.5344 -0.1860  0.3787
 4611TIP3   OH235247   4.203   3.187  10.576 -0.1038  0.3873 -0.0886
 4611TIP3    H135248   4.187   3.148  10.662  0.5717  0.1764 -0.0570
 4611TIP3    H235249   4.119   3.226  10.552 -0.4147  0.0837  0.4781
 4612TIP3   OH235250   3.477   0.781   3.830  0.1297 -0.1097  0.0865
 4612TIP3    H135251   3.562   0.739   3.842  0.3681  0.4882  0.5765
 4612TIP3    H235252   3.438   0.783   3.918 -0.4447 -0.4922 -0.1552
 4613TIP3   OH235253   4.752   0.892  13.624 -0.4497 -0.1206 -0.0396
 4613TIP3    H135254   4.703   0.958  13.575 -1.6622 -1.1180 -0.2109
 4613TIP3    H235255   4.805   0.943  13.686 -0.4206  1.0580 -0.9895
 4614TIP3   OH235256   6.494   4.910   5.421 -0.0190  0.0750  0.4891
 4614TIP3    H135257   6.476   4.957   5.502 -2.4710 -0.2178  0.1915
 4614TIP3    H235258   6.489   4.977   5.353  2.3129  0.3760  0.5169
 4615TIP3   OH235259   4.088   1.247   1.131  0.3713 -0.3474 -0.7945
 4615TIP3    H135260   4.083   1.164   1.177  0.5091 -0.4029 -0.8760
 4615TIP3    H235261   4.164   1.291   1.168  0.0227 -0.0521 -0.4224
 4616TIP3   OH235262   1.837   2.324   2.733  0.3705 -0.5537  0.0691
 4616TIP3    H135263   1.922   2.295   2.765  0.1358 -0.9487  0.3476
 4616TIP3    H235264   1.779   2.248   2.746 -0.3790  0.2040  1.2855
 4617TIP3   OH235265   4.521   6.034  14.623 -0.2638 -0.2220 -0.1546
 4617TIP3    H135266   4.433   6.045  14.588 -1.6468 -0.4826  2.8723
 4617TIP3    H235267   4.541   5.941  14.608 -0.9928 -0.4263  0.0555
 4618TIP3   OH235268   6.258   1.053  12.437  0.1673 -0.2357 -0.0205
 4618TIP3    H135269   6.206   1.134  12.432  0.9605  0.2940  0.0933
 4618TIP3    H235270   6.194   0.983  12.428 -0.6500  0.3892  0.7160
 4619TIP3   OH235271   3.936   3.370  16.758 -0.2665 -0.1356  0.2997
 4619TIP3    H135272   3.970   3.287  16.789 -0.6235  0.2486  1.7842
 4619TIP3    H235273   3.885   3.347  16.680  2.3671 -0.8482 -1.3384
 4620TIP3   OH235274   6.633   2.665   3.063 -0.3600  0.1352 -0.0164
 4620TIP3    H135275   6.599   2.675   2.974 -0.1142 -0.7444 -0.2183
 4620TIP3    H235276   6.705   2.602   3.054 -0.7185 -0.4179  0.9049
 4621TIP3   OH235277   5.091   2.909  13.286 -0.0357 -0.1635 -0.6589
 4621TIP3    H135278   5.172   2.956  13.300 -0.4443  0.6856 -1.1005
 4621TIP3    H235279   5.053   2.947  13.207 -1.7772  0.7625  0.5387
 4622TIP3   OH235280   0.117   5.179   6.086 -0.2034  0.4661 -0.4225
 4622TIP3    H135281   0.185   5.113   6.097  0.1268  0.9802  0.8201
 4622TIP3    H235282   0.163   5.262   6.097 -0.8487  0.8564 -0.6432
 4623TIP3   OH235283   6.390   5.726  12.906 -0.1066  0.2022 -0.0397
 4623TIP3    H135284   6.345   5.810  12.911 -1.2118 -0.3358 -0.6743
 4623TIP3    H235285   6.400   5.709  12.812 -1.4185 -1.1340  0.0081
 4624TIP3   OH235286   6.261   6.397   0.820 -0.2352  0.2380 -0.2640
 4624TIP3    H135287   6.221   6.314   0.847  1.2414 -0.0019  1.4151
 4624TIP3    H235288   6.330   6.412   0.885  0.0242  2.4195 -0.9657
 4625TIP3   OH235289   3.335   3.829   1.931  0.4806 -0.1791 -0.3454
 4625TIP3    H135290   3.278   3.867   1.998  0.5625  0.0795 -0.4191
 4625TIP3    H235291   3.424   3.854   1.959  0.6456 -1.4023  0.2991
 4626TIP3   OH235292   0.275   3.834   5.622 -0.5086 -0.0382  0.1384
 4626TIP3    H135293   0.262   3.783   5.702 -0.3480 -1.8354 -0.9320
 4626TIP3    H235294   0.188   3.838   5.582 -0.5606  0.7379  0.3077
 4627TIP3   OH235295   5.099   1.537   4.739  0.1668 -0.0955 -0.3497
 4627TIP3    H135296   5.047   1.596   4.682  0.2174  0.3184  0.0264
 4627TIP3    H235297   5.147   1.596   4.796  0.8827 -0.4893 -0.5387
 4628TIP3   OH235298   0.472   3.997   0.009  0.2081  0.0196  0.2255
 4628TIP3    H135299   0.487   3.903   0.006  0.0668  0.0001  0.1057
 4628TIP3    H235300   0.377   4.006  -0.001  0.3643  0.2451 -1.3938
 4629TIP3   OH235301   3.258   1.851   3.142  0.1154 -0.2511  0.1488
 4629TIP3    H135302   3.224   1.912   3.208  2.0621  0.0182  0.9816
 4629TIP3    H235303   3.264   1.904   3.062 -0.6105 -0.0902  0.1901
 4630TIP3   OH235304   3.097   2.485  16.707 -0.6172 -0.1159 -0.3586
 4630TIP3    H135305   3.096   2.511  16.800 -2.5439  0.2073 -0.4422
 4630TIP3    H235306   3.123   2.393  16.708 -1.6270 -0.4156  0.6112
 4631TIP3   OH235307   5.149   6.760   4.712 -0.1324 -0.2870  0.0624
 4631TIP3    H135308   5.208   6.821   4.756  0.9485 -1.2337 -0.0285
 4631TIP3    H235309   5.067   6.768   4.760  0.9185 -1.0994  2.1480
 4632TIP3   OH235310   1.596   3.567  15.386 -0.1694  0.2989  0.3330
 4632TIP3    H135311   1.691   3.574  15.399 -0.0525 -1.1796  0.4143
 4632TIP3    H235312   1.586   3.511  15.309 -0.9616 -2.5847  2.3953
 4633TIP3   OH235313   0.869   5.265  13.326 -0.0313  0.3200 -0.0128
 4633TIP3    H135314   0.782   5.304  13.333  0.1632  0.6039  1.0076
 4633TIP3    H235315   0.929   5.339  13.330  0.2877  0.0488  0.3396
 4634TIP3   OH235316   6.500   6.400  14.840 -0.2954 -0.1089 -0.9102
 4634TIP3    H135317   6.476   6.397  14.933  0.1711 -0.5333 -0.7999
 4634TIP3    H235318   6.596   6.401  14.840 -0.2412 -2.1611 -1.4265
 4635TIP3   OH235319   4.232   2.635  13.338 -0.1466  0.8901 -0.2502
 4635TIP3    H135320   4.247   2.556  13.391 -1.7581  1.2276  0.8033
 4635TIP3    H235321   4.319   2.671  13.324  0.8695 -2.0368 -2.3899
 4636TIP3   OH235322   2.573   1.407  10.846  0.4825  0.5326 -0.2317
 4636TIP3    H135323   2.668   1.422  10.854  0.6103 -0.5954  0.7754
 4636TIP3    H235324   2.566   1.312  10.834 -0.5364  0.5594  0.0835
 4637TIP3   OH235325   3.227   1.358   1.123 -0.1990  0.1223 -0.1165
 4637TIP3    H135326   3.264   1.326   1.041 -0.9562 -0.8692 -0.0973
 4637TIP3    H235327   3.244   1.288   1.186 -1.2082  0.0732  0.1237
 4638TIP3   OH235328   1.477   4.612   1.751  0.4803  0.1890  0.2241
 4638TIP3    H135329   1.432   4.561   1.683  2.3527  0.9332 -1.6806
 4638TIP3    H235330   1.434   4.585   1.833 -1.5739 -1.0858 -1.1610
 4639TIP3   OH235331   3.693   2.657   4.161  0.4946  0.1291 -0.4145
 4639TIP3    H135332   3.608   2.631   4.197 -0.0631  0.7213 -1.2619
 4639TIP3    H235333   3.752   2.661   4.237  0.2276 -2.0287 -0.0300
 4640TIP3   OH235334   4.943   3.982  12.791  0.5718  0.1726  0.2246
 4640TIP3    H135335   4.987   3.904  12.758 -0.7785 -0.9659  0.9883
 4640TIP3    H235336   4.933   3.966  12.885  1.9412  2.1428  0.7675
 4641TIP3   OH235337   2.215   3.457   6.348  0.2600  0.2244  0.3603
 4641TIP3    H135338   2.140   3.398   6.348 -1.0280  1.7420  2.7863
 4641TIP3    H235339   2.178   3.544   6.334  1.7521  0.8660  0.1694
 4642TIP3   OH235340   2.574   2.792  13.977  0.0768 -0.4198  0.8144
 4642TIP3    H135341   2.641   2.848  14.017 -0.9299 -0.1412  2.1720
 4642TIP3    H235342   2.524   2.759  14.051  0.2722 -2.6718  0.0055
 4643TIP3   OH235343   6.254   0.887   2.111  0.2009  0.1202 -0.7636
 4643TIP3    H135344   6.188   0.887   2.042 -0.0575  1.7690 -0.5799
 4643TIP3    H235345   6.212   0.933   2.184  1.7646  1.8964 -0.9046
 4644TIP3   OH235346   5.380   4.363  10.104 -0.1666  0.6463  0.2621
 4644TIP3    H135347   5.297   4.364  10.056 -0.1788  0.9043  0.2894
 4644TIP3    H235348   5.364   4.302  10.177 -0.4481  0.9719  0.4757
 4645TIP3   OH235349   1.689   3.036   1.417 -0.1542  0.4500  0.1343
 4645TIP3    H135350   1.661   3.031   1.509 -0.4161 -3.9125  0.0047
 4645TIP3    H235351   1.776   2.996   1.416 -0.0057  0.7454 -1.5064
 4646TIP3   OH235352   3.031   6.707  15.480 -0.6701 -0.0391 -0.4717
 4646TIP3    H135353   3.038   6.614  15.500 -2.4287 -0.2201 -0.4866
 4646TIP3    H235354   3.057   6.714  15.388  1.4839 -0.1629  0.0923
 4647TIP3   OH235355   3.246   4.917   4.466 -0.5305 -0.2205  0.1477
 4647TIP3    H135356   3.287   4.880   4.388  0.4055  0.4618  0.2854
 4647TIP3    H235357   3.223   4.841   4.520  0.7792 -0.6388  0.1550
 4648TIP3   OH235358   4.641   2.204  11.256  0.1485 -0.0044 -0.4927
 4648TIP3    H135359   4.619   2.233  11.167 -3.5140 -0.4302  0.0944
 4648TIP3    H235360   4.680   2.281  11.297 -0.1749  0.9177 -1.8399
 4649TIP3   OH235361   3.615   2.886  12.026  0.1461 -0.2818 -0.1081
 4649TIP3    H135362   3.521   2.874  12.019  0.1653 -0.7342  0.4011
 4649TIP3    H235363   3.651   2.834  11.954  0.0904 -1.3724  0.6358
 4650TIP3   OH235364   6.158   3.315   1.109 -0.5177  0.1338  0.3607
 4650TIP3    H135365   6.129   3.276   1.027  0.1053  1.1279 -0.3665
 4650TIP3    H235366   6.080   3.358   1.144 -0.5184  0.7118 -0.3285
 4651TIP3   OH235367   5.229   2.113   4.545 -0.2717 -0.0275 -0.5762
 4651TIP3    H135368   5.311   2.085   4.503 -0.5306 -0.3966 -0.8383
 4651TIP3    H235369   5.216   2.050   4.615  1.0762  1.5720  1.2421
 4652TIP3   OH235370   3.827   2.418  12.266  0.2425  0.4096 -0.0266
 4652TIP3    H135371   3.860   2.329  12.248 -0.6705  0.1424 -0.4585
 4652TIP3    H235372   3.875   2.446  12.343 -0.3032 -0.9443  0.8483
 4653TIP3   OH235373   5.876   3.156  10.589 -0.0515 -0.1848  0.5497
 4653TIP3    H135374   5.810   3.214  10.625  0.7195  1.3855 -0.4508
 4653TIP3    H235375   5.827   3.097  10.531 -0.4874  2.1451 -1.6519
 4654TIP3   OH235376   4.666   3.147   1.839  0.3510 -0.3090 -0.1159
 4654TIP3    H135377   4.603   3.187   1.779 -0.5584 -0.2551  0.8556
 4654TIP3    H235378   4.732   3.107   1.781 -0.9783 -1.0335 -1.1872
 4655TIP3   OH235379   3.674   1.288   2.150  0.3819  0.2857 -0.2450
 4655TIP3    H135380   3.637   1.318   2.233 -1.9509 -1.0746 -0.7103
 4655TIP3    H235381   3.613   1.319   2.084  1.6295  0.4060 -1.3978
 4656TIP3   OH235382   1.668   0.507   1.682  0.1640  0.3693  0.1376
 4656TIP3    H135383   1.712   0.590   1.659 -0.6953  0.9395  0.5090
 4656TIP3    H235384   1.578   0.520   1.654 -0.0368 -0.3519  0.4439
 4657TIP3   OH235385   6.223   3.673  15.340  0.4189  0.1114 -0.1805
 4657TIP3    H135386   6.176   3.677  15.423 -2.3573 -2.2258 -1.4875
 4657TIP3    H235387   6.312   3.701  15.362 -0.4870  0.7412  3.2853
 4658TIP3   OH235388   3.288   3.319  17.090 -0.0517  0.6560  0.4079
 4658TIP3    H135389   3.201   3.280  17.095  0.4350 -1.2990 -3.0623
 4658TIP3    H235390   3.324   3.309  17.178 -2.6023 -0.2141  1.4507
 4659TIP3   OH235391   1.412   2.347   0.158  0.1117  0.0543 -0.2047
 4659TIP3    H135392   1.471   2.390   0.095  1.2010 -0.8555  0.1517
 4659TIP3    H235393   1.387   2.266   0.114 -2.2826  1.1557 -1.0610
 4660TIP3   OH235394   5.504   5.883  12.622  0.2339  0.0847 -0.1951
 4660TIP3    H135395   5.562   5.959  12.627  0.5532 -0.1792  0.2477
 4660TIP3    H235396   5.546   5.825  12.560  1.4010 -0.8740  1.4000
 4661TIP3   OH235397   2.517   3.324  11.197 -0.2238 -0.1660 -0.4947
 4661TIP3    H135398   2.471   3.293  11.119  2.1752 -0.6098 -1.8284
 4661TIP3    H235399   2.560   3.405  11.170  0.7059 -0.3632  0.3151
 4662TIP3   OH235400   2.199   4.575   5.995  0.5969 -0.1469 -0.6635
 4662TIP3    H135401   2.218   4.582   6.089  3.1774 -0.9744 -1.0538
 4662TIP3    H235402   2.179   4.482   5.982 -1.4133  0.2544 -0.7158
 4663TIP3   OH235403   5.849   0.712   5.614 -0.0407 -0.2727 -0.2242
 4663TIP3    H135404   5.833   0.727   5.707 -0.9865 -0.7088 -0.2989
 4663TIP3    H235405   5.858   0.799   5.577 -1.3192 -0.0176  0.0178
 4664TIP3   OH235406   1.124   6.476   0.756 -0.0091 -0.0687  0.4325
 4664TIP3    H135407   1.198   6.465   0.817 -0.1465  1.6238  0.9419
 4664TIP3    H235408   1.047   6.479   0.812 -0.3764 -0.7450 -0.0214
 4665TIP3   OH235409   5.973   2.905  11.488 -0.1046 -0.1879  0.6365
 4665TIP3    H135410   5.931   2.830  11.445  2.9587 -0.9697 -1.3345
 4665TIP3    H235411   5.912   2.977  11.477 -1.4145 -1.4817 -1.0379
 4666TIP3   OH235412   0.460   0.715   0.019  0.0287 -0.2568  0.4604
 4666TIP3    H135413   0.444   0.808   0.036 -0.6490  0.1327 -1.9642
 4666TIP3    H235414   0.375   0.674   0.031 -0.6002  0.1125 -2.1093
 4667TIP3   OH235415   0.309   1.585  14.149 -0.4326 -0.1668 -0.0460
 4667TIP3    H135416   0.223   1.616  14.121 -1.3066  0.2252  2.8046
 4667TIP3    H235417   0.344   1.657  14.202  0.8419 -1.0665  0.3875
 4668TIP3   OH235418   2.219   3.688   4.205  0.0144 -0.3211  0.2909
 4668TIP3    H135419   2.273   3.618   4.168  0.5674  0.4238 -0.3524
 4668TIP3    H235420   2.282   3.751   4.238 -0.4777 -0.0018  0.6230
 4669TIP3   OH235421   2.648   4.489  16.477  0.0102  0.9711 -0.1154
 4669TIP3    H135422   2.684   4.562  16.427 -0.6434  0.5091 -1.2974
 4669TIP3    H235423   2.721   4.427  16.487  0.0030  0.8139 -1.0008
 4670TIP3   OH235424   2.361   1.728  15.138  0.6607  0.3593  0.9719
 4670TIP3    H135425   2.319   1.807  15.103  0.6980  0.2412  0.6560
 4670TIP3    H235426   2.318   1.656  15.092 -0.9810  0.0443  2.8718
 4671TIP3   OH235427   2.504   0.753  16.185  0.0792 -0.7715  0.0479
 4671TIP3    H135428   2.552   0.774  16.105  1.9658 -2.0075  0.7819
 4671TIP3    H235429   2.544   0.672  16.216 -1.3347 -0.8949  1.6770
 4672TIP3   OH235430   3.202   5.569   3.663  0.5517  0.0224  0.3171
 4672TIP3    H135431   3.210   5.635   3.732 -0.3875  1.0808 -0.5356
 4672TIP3    H235432   3.123   5.594   3.615  0.4315 -1.4706 -0.3219
 4673TIP3   OH235433   6.712   1.896  12.228 -0.3469 -0.5969  0.2299
 4673TIP3    H135434   6.753   1.916  12.312  0.8459 -1.4159 -0.1261
 4673TIP3    H235435   6.755   1.954  12.165  1.3149 -2.3511 -0.3719
 4674TIP3   OH235436   3.791   6.197   4.678  0.0288  0.2022 -0.2492
 4674TIP3    H135437   3.856   6.127   4.678  1.6407  1.6252  0.6198
 4674TIP3    H235438   3.785   6.224   4.770 -0.3788  1.3575 -0.5950
 4675TIP3   OH235439   5.036   6.291   2.595 -0.4949 -0.4410  0.7733
 4675TIP3    H135440   4.957   6.329   2.554 -0.4653 -0.7897  0.3854
 4675TIP3    H235441   5.096   6.365   2.603 -0.2548 -0.4831 -0.4306
 4676TIP3   OH235442   5.933   4.178  11.492  0.4991  0.4517  0.5031
 4676TIP3    H135443   5.979   4.129  11.424  0.5598  0.4721  0.5294
 4676TIP3    H235444   5.911   4.113  11.558 -1.6282 -0.0385 -0.6023
 4677TIP3   OH235445   5.872   0.325   1.248 -0.0577 -0.4112 -0.3340
 4677TIP3    H135446   5.798   0.380   1.223 -0.2113 -0.2052  0.5428
 4677TIP3    H235447   5.886   0.268   1.173 -3.1297 -2.6187  0.5599
 4678TIP3   OH235448   4.094   1.017  12.859  0.1010 -0.1570 -0.2740
 4678TIP3    H135449   4.136   1.057  12.935  0.7318 -1.0603 -0.1310
 4678TIP3    H235450   4.001   1.017  12.881  0.1291  0.8607 -0.1130
 4679TIP3   OH235451   2.064   3.012  13.141 -0.7875  0.0657  0.8986
 4679TIP3    H135452   2.119   3.085  13.113 -0.6536 -0.4653 -0.2760
 4679TIP3    H235453   1.989   3.054  13.184 -0.6799  0.8871  0.3081
 4680TIP3   OH235454   1.318   1.352   2.703  0.0364  0.2740  0.0338
 4680TIP3    H135455   1.285   1.330   2.616  1.0135 -0.7336 -0.1020
 4680TIP3    H235456   1.282   1.439   2.721 -1.3329 -0.1035 -0.7728
 4681TIP3   OH235457   3.439   1.778   5.407  0.0178 -0.2836 -0.0445
 4681TIP3    H135458   3.381   1.802   5.480 -0.3560 -0.8343 -0.1582
 4681TIP3    H235459   3.494   1.855   5.395  0.8158 -0.5637  1.5229
 4682TIP3   OH235460   5.308   4.850   5.146 -0.4526 -0.3284  0.1328
 4682TIP3    H135461   5.298   4.777   5.207 -1.1374 -1.3052 -1.0878
 4682TIP3    H235462   5.314   4.809   5.060  0.5487  1.0039 -0.4775
 4683TIP3   OH235463   5.890   0.287  12.474 -0.3952  0.0366  0.1860
 4683TIP3    H135464   5.865   0.367  12.429  2.0978  1.1985  0.7188
 4683TIP3    H235465   5.961   0.250  12.422 -0.5319 -1.0408  0.7318
 4684TIP3   OH235466   5.692   1.490   4.774  0.2354  0.2183  0.0091
 4684TIP3    H135467   5.685   1.395   4.783 -0.3107  0.3546  1.2188
 4684TIP3    H235468   5.728   1.519   4.858  0.3079  1.0879 -0.3190
 4685TIP3   OH235469   4.556   5.212  13.968 -0.0990  0.1789 -0.3151
 4685TIP3    H135470   4.576   5.176  13.882  2.3780  0.2294  0.1673
 4685TIP3    H235471   4.524   5.137  14.019  0.7216 -0.3881 -0.6104
 4686TIP3   OH235472   0.214   0.594  14.354  0.4724 -0.6121  0.0960
 4686TIP3    H135473   0.244   0.651  14.283 -2.1781 -0.8738 -1.3558
 4686TIP3    H235474   0.204   0.508  14.314 -2.3349 -0.4962  0.3258
 4687TIP3   OH235475   0.601   5.006   3.170 -0.2422  0.2897  0.9569
 4687TIP3    H135476   0.543   5.080   3.151  1.8305  1.7166 -0.2479
 4687TIP3    H235477   0.627   4.973   3.084 -0.5641 -1.4193  1.4791
 4688TIP3   OH235478   3.956   6.648  17.010 -0.2872 -0.0978 -0.5209
 4688TIP3    H135479   4.032   6.687  17.053  0.5914 -1.9738 -0.2532
 4688TIP3    H235480   3.899   6.622  17.081  0.2892 -1.4928 -0.5411
 4689TIP3   OH235481   5.763   5.578  15.540  0.0696  0.0138  0.2496
 4689TIP3    H135482   5.677   5.536  15.536  0.2621 -0.2536 -2.2454
 4689TIP3    H235483   5.825   5.506  15.530  0.6346  0.2499  1.6997
 4690TIP3   OH235484   3.043   0.253  14.338  0.0012  0.4219 -0.2413
 4690TIP3    H135485   3.063   0.296  14.421  0.1960  2.0653 -1.0913
 4690TIP3    H235486   3.105   0.291  14.276  0.7673 -1.7852 -0.8912
 4691TIP3   OH235487   6.146   0.723   5.010 -0.3654 -0.0648 -0.2942
 4691TIP3    H135488   6.195   0.786   4.957 -0.0260  0.0600  0.1603
 4691TIP3    H235489   6.191   0.723   5.095 -1.5739  0.5919  0.3753
 4692TIP3   OH235490   1.302   2.996  15.147 -0.3415 -0.2246 -0.2445
 4692TIP3    H135491   1.308   2.981  15.242 -2.1842 -0.8482 -0.1768
 4692TIP3    H235492   1.225   3.053  15.137  0.5879  0.8926 -1.2914
 4693TIP3   OH235493   6.646   0.629  11.740  0.0267  0.4511  0.4319
 4693TIP3    H135494   6.717   0.692  11.729 -1.6927  2.3746 -0.0554
 4693TIP3    H235495   6.690   0.543  11.735  2.3705  1.5474  0.7267
 4694TIP3   OH235496   5.826   4.878   3.943  0.3225  0.2419  0.1239
 4694TIP3    H135497   5.853   4.800   3.991  2.5222  1.2303  0.6328
 4694TIP3    H235498   5.826   4.851   3.851  3.6159  0.1729  0.0104
 4695TIP3   OH235499   2.394   2.169   3.829 -0.8642  0.0317  0.0585
 4695TIP3    H135500   2.476   2.197   3.790 -0.6795 -0.3571  0.1577
 4695TIP3    H235501   2.349   2.122   3.759 -0.5983 -0.5368  0.2616
 4696TIP3   OH235502   6.431   5.872  13.744  0.1857 -0.1846  0.1219
 4696TIP3    H135503   6.439   5.857  13.838 -0.3343 -1.3897 -0.0076
 4696TIP3    H235504   6.483   5.951  13.728  0.3997 -0.0444  1.3901
 4697TIP3   OH235505   2.847   1.465  13.104 -0.7996  0.2133  0.0481
 4697TIP3    H135506   2.775   1.508  13.151  1.1035  3.4634  0.2735
 4697TIP3    H235507   2.888   1.535  13.054  0.6964 -2.0271 -2.1288
 4698TIP3   OH235508   5.516   1.573   4.145 -0.3218 -0.4950  0.3442
 4698TIP3    H135509   5.507   1.594   4.238  0.4058  0.9463  0.1114
 4698TIP3    H235510   5.609   1.551   4.134  0.4307  2.6469 -0.6045
 4699TIP3   OH235511   5.746   5.230   3.432 -0.5019 -0.1993  0.1037
 4699TIP3    H135512   5.666   5.265   3.470 -0.2360  0.2320  0.2656
 4699TIP3    H235513   5.741   5.254   3.339 -1.2125 -1.3655 -0.1795
 4700TIP3   OH235514   4.029   6.264  15.268 -0.0021 -0.6950  0.4995
 4700TIP3    H135515   4.065   6.243  15.182 -0.5486 -0.5978  0.2402
 4700TIP3    H235516   3.969   6.336  15.251  1.6328  0.9280  1.3262
 4701TIP3   OH235517   6.412   3.483   0.501 -0.4200  0.2512  0.0448
 4701TIP3    H135518   6.479   3.514   0.562  0.7468 -0.1271 -1.0064
 4701TIP3    H235519   6.447   3.504   0.414 -1.5520 -0.2030 -0.5480
 4702TIP3   OH235520   6.766   3.522  12.763  0.7249 -0.0796  0.4206
 4702TIP3    H135521   6.729   3.466  12.831 -0.4439 -0.8385 -0.7912
 4702TIP3    H235522   6.690   3.555  12.715  1.4882  1.0640 -0.0569
 4703TIP3   OH235523   3.663   2.401  15.897 -0.0270 -0.4344 -0.2351
 4703TIP3    H135524   3.642   2.407  15.991 -1.6201  0.0867 -0.5842
 4703TIP3    H235525   3.721   2.326  15.890  1.9741  0.8233  1.4559
 4704TIP3   OH235526   6.012   4.304   5.698  0.1367 -0.9651 -0.2382
 4704TIP3    H135527   5.969   4.382   5.663  0.4250 -1.8127 -2.6773
 4704TIP3    H235528   5.955   4.274   5.769 -0.3112  1.0667  0.3201
 4705TIP3   OH235529   2.365   1.450  16.156 -0.5719 -0.2224  0.4182
 4705TIP3    H135530   2.380   1.515  16.225 -0.0817  0.7435 -0.5599
 4705TIP3    H235531   2.407   1.370  16.188 -1.3140 -0.1310  1.7090
 4706TIP3   OH235532   1.290   4.932   5.854 -0.0707 -0.2975  0.0735
 4706TIP3    H135533   1.277   5.006   5.912 -2.2969 -1.6897  1.5298
 4706TIP3    H235534   1.203   4.913   5.820  0.2050 -2.8574  0.5944
 4707TIP3   OH235535   4.331   6.715   5.015 -0.9733  0.0660  0.1881
 4707TIP3    H135536   4.290   6.633   5.045  0.1149  0.1157  1.9771
 4707TIP3    H235537   4.284   6.783   5.063  1.0842  0.1228  2.3048
 4708TIP3   OH235538   0.312   4.298  15.939  0.6927 -0.3658 -0.6189
 4708TIP3    H135539   0.339   4.240  15.867  0.1380  0.2830 -1.3608
 4708TIP3    H235540   0.221   4.319  15.920  0.3620 -0.6408  0.5951
 4709TIP3   OH235541   2.065   6.130   1.624  0.3066 -0.4188 -0.6273
 4709TIP3    H135542   2.000   6.089   1.682  0.2044  1.1743  0.4557
 4709TIP3    H235543   2.058   6.081   1.542  0.1097 -2.4471  0.5161
 4710TIP3   OH235544   6.654   3.438  13.016  0.2113 -0.5866  0.1302
 4710TIP3    H135545   6.712   3.389  13.074 -1.1367 -1.1124  1.1124
 4710TIP3    H235546   6.668   3.530  13.038 -0.4545 -0.7911  1.5189
 4711TIP3   OH235547   3.679   0.581  11.156  0.5986 -0.2986 -0.1417
 4711TIP3    H135548   3.626   0.538  11.223  0.1044  0.8492  0.2254
 4711TIP3    H235549   3.620   0.592  11.082  1.2416 -1.8904 -0.9467
 4712TIP3   OH235550   4.392   6.771   3.460  0.1177  0.0139  0.3916
 4712TIP3    H135551   4.341   6.781   3.380 -0.2755  0.8165  0.7224
 4712TIP3    H235552   4.345   6.824   3.525 -0.0338 -1.2518  1.3732
 4713TIP3   OH235553   4.006   6.337   1.912 -0.0629  0.0497  0.5927
 4713TIP3    H135554   3.930   6.313   1.858 -0.6565 -0.3407  1.5684
 4713TIP3    H235555   3.977   6.321   2.002  0.3430  2.1584  1.1574
 4714TIP3   OH235556   1.573   3.692  12.902 -0.1221 -0.1670  0.1700
 4714TIP3    H135557   1.563   3.731  12.989 -0.1941 -0.4242  0.2798
 4714TIP3    H235558   1.547   3.600  12.914 -1.3441  0.0849 -0.3983
 4715TIP3   OH235559   5.968   0.747  15.748 -0.5252 -0.3597 -0.6520
 4715TIP3    H135560   5.880   0.772  15.775 -0.3913  0.2475 -0.7708
 4715TIP3    H235561   5.969   0.652  15.755 -0.9513 -0.3190  0.0928
 4716TIP3   OH235562   1.182   6.550  16.642 -0.5924 -0.7679  0.1647
 4716TIP3    H135563   1.155   6.624  16.588 -1.6358 -1.6445 -0.5505
 4716TIP3    H235564   1.264   6.579  16.682 -0.8886  0.7057 -0.2202
 4717TIP3   OH235565   3.268   4.505   0.500 -0.5072 -0.2641 -0.2667
 4717TIP3    H135566   3.278   4.413   0.477 -1.7777 -0.2076 -1.1765
 4717TIP3    H235567   3.209   4.504   0.575  0.6083 -0.2514  0.6254
 4718TIP3   OH235568   4.211   3.860  14.935  0.4744  0.1578  0.3690
 4718TIP3    H135569   4.150   3.933  14.943  2.4283  1.7621  1.7659
 4718TIP3    H235570   4.192   3.804  15.011 -1.1683 -0.9666 -0.8185
 4719TIP3   OH235571   5.200   2.519   4.530 -0.2231  0.1627  0.1170
 4719TIP3    H135572   5.133   2.457   4.560 -1.0784  0.3640 -1.3137
 4719TIP3    H235573   5.253   2.470   4.469  1.1926 -0.0919  1.4985
 4720TIP3   OH235574   2.683   5.161   3.855  0.9332 -0.1882  0.2630
 4720TIP3    H135575   2.643   5.160   3.942  2.9669 -1.3077  1.2390
 4720TIP3    H235576   2.740   5.237   3.855 -0.3609  0.8329 -0.7773
 4721TIP3   OH235577   2.951   4.411   2.431  0.5343 -0.4173  0.3600
 4721TIP3    H135578   2.978   4.348   2.498  0.5096 -0.5716  0.2260
 4721TIP3    H235579   2.868   4.446   2.463  1.3983  0.8705  1.3249
 4722TIP3   OH235580   0.580   1.328  11.685  0.2267 -0.0892  0.3387
 4722TIP3    H135581   0.538   1.389  11.625  3.7830  2.4842  0.1470
 4722TIP3    H235582   0.565   1.364  11.772 -0.4670 -0.8612  0.5509
 4723TIP3   OH235583   2.601   0.383   4.332  0.8917  0.4544  0.5669
 4723TIP3    H135584   2.628   0.333   4.409 -0.2562  0.0913  0.7557
 4723TIP3    H235585   2.510   0.357   4.317  0.3570  2.2168  0.4569
 4724TIP3   OH235586   5.297   3.790  11.656 -0.1470  0.2241  0.1381
 4724TIP3    H135587   5.208   3.812  11.683 -0.7807 -0.7090 -1.0874
 4724TIP3    H235588   5.285   3.730  11.582  1.4993  0.9458 -0.7500
 4725TIP3   OH235589   3.611   5.370  13.788 -0.2922 -0.2446  0.7407
 4725TIP3    H135590   3.536   5.341  13.736  0.7630  0.8161 -1.5251
 4725TIP3    H235591   3.633   5.294  13.843 -2.2114 -1.0045  0.5390
 4726TIP3   OH235592   3.461   0.746  16.512  0.2192  0.0689 -0.1329
 4726TIP3    H135593   3.374   0.780  16.495  0.3059 -0.3264 -1.5002
 4726TIP3    H235594   3.447   0.669  16.567 -0.1043  1.1577  1.4063
 4727TIP3   OH235595   4.279   2.729  11.413  0.4157 -0.0404  0.4758
 4727TIP3    H135596   4.241   2.709  11.498 -0.4255 -0.3782  0.0326
 4727TIP3    H235597   4.228   2.804  11.380  2.0900  1.4584  1.1530
 4728TIP3   OH235598   3.520   0.147  14.135 -0.0456  0.1222  0.5616
 4728TIP3    H135599   3.578   0.076  14.165 -1.1061 -0.8239  0.4479
 4728TIP3    H235600   3.510   0.131  14.041 -2.2943 -1.1334  0.9516
 4729TIP3   OH235601   3.928   0.272   4.067 -0.2978  1.1527  0.0264
 4729TIP3    H135602   3.905   0.202   4.127 -0.5915  0.8435 -0.4457
 4729TIP3    H235603   4.020   0.256   4.044  0.0590  1.7216  0.9977
 4730TIP3   OH235604   2.489   2.766  16.346 -0.3563 -0.6713  0.9849
 4730TIP3    H135605   2.565   2.816  16.315 -0.4460 -0.6236  0.8426
 4730TIP3    H235606   2.441   2.744  16.266 -0.5942 -0.5371  1.0910
 4731TIP3   OH235607   4.538   6.522   3.031  0.5067 -0.0983  0.1370
 4731TIP3    H135608   4.501   6.498   2.946 -0.1718 -1.1148  0.6913
 4731TIP3    H235609   4.604   6.454   3.048  1.6792  0.9226 -0.2200
 4732TIP3   OH235610   6.162   4.953   5.264  0.0148  0.1518  0.0412
 4732TIP3    H135611   6.195   4.867   5.292  0.0119  0.2656  0.4078
 4732TIP3    H235612   6.149   5.000   5.346  2.0736  1.2768 -0.2149
 4733TIP3   OH235613   4.819   3.023   3.468 -0.0577 -0.0362  0.4499
 4733TIP3    H135614   4.853   2.980   3.390  0.2758  0.2939  0.4112
 4733TIP3    H235615   4.747   2.966   3.497 -1.0299  0.4839 -0.8251
 4734TIP3   OH235616   6.626   0.760  15.491  0.4522  0.3586 -0.5675
 4734TIP3    H135617   6.687   0.822  15.532  2.3109 -0.2185 -2.3107
 4734TIP3    H235618   6.663   0.742  15.405 -1.8745 -0.5502 -1.4798
 4735TIP3   OH235619   4.195   1.509  12.330  0.1136  0.0004 -0.2688
 4735TIP3    H135620   4.169   1.584  12.276  0.1922  0.1696 -0.0720
 4735TIP3    H235621   4.215   1.546  12.416  3.3380  0.3036 -0.9964
 4736TIP3   OH235622   4.603   1.024   5.404 -0.1102 -0.1688 -0.0334
 4736TIP3    H135623   4.666   0.961   5.367  1.2483  1.3504 -0.4203
 4736TIP3    H235624   4.596   1.092   5.337 -2.8509 -0.6730 -0.3480
 4737TIP3   OH235625   0.385   4.482   5.802 -0.0639 -0.0716  0.0346
 4737TIP3    H135626   0.314   4.497   5.740  1.2023  0.6312 -1.2846
 4737TIP3    H235627   0.378   4.554   5.865 -1.0540 -0.5198  0.4558
 4738TIP3   OH235628   1.974   5.286   1.759 -0.2656  0.0917  0.2903
 4738TIP3    H135629   2.024   5.368   1.755 -0.7716  0.4676  1.3163
 4738TIP3    H235630   2.041   5.217   1.761  0.1824  0.5237  0.3474
 4739TIP3   OH235631   3.908   3.828  16.394  0.1068  0.2639  0.2534
 4739TIP3    H135632   3.870   3.825  16.307  2.2317 -2.3707 -0.7180
 4739TIP3    H235633   3.861   3.899  16.439 -3.5246 -0.6221 -1.8036
 4740TIP3   OH235634   3.468   4.298   4.280  0.2037 -0.3234  0.8096
 4740TIP3    H135635   3.442   4.353   4.354  1.2034  0.0019  0.9224
 4740TIP3    H235636   3.550   4.258   4.306  0.7659  0.0789 -0.2660
 4741TIP3   OH235637   2.973   1.199   0.058  0.1873 -0.4094 -0.4190
 4741TIP3    H135638   2.915   1.246   0.118  0.5213 -1.1594  0.5125
 4741TIP3    H235639   2.915   1.139   0.011  0.1433 -0.8667  0.2137
 4742TIP3   OH235640   4.489   3.097  12.343 -0.5498  0.1723  0.0103
 4742TIP3    H135641   4.463   3.016  12.300  1.9205  0.2660 -1.8693
 4742TIP3    H235642   4.473   3.165  12.277 -0.6521  0.9336  0.8019
 4743TIP3   OH235643   4.493   6.642  15.325  0.1767  0.2111 -0.0036
 4743TIP3    H135644   4.399   6.656  15.314  0.0455 -0.4677  0.2172
 4743TIP3    H235645   4.525   6.623  15.237  0.0554  0.1428 -0.0337
 4744TIP3   OH235646   2.667   2.225   2.060  0.0050 -0.3077  0.1108
 4744TIP3    H135647   2.592   2.167   2.052  0.6782 -1.1066 -0.7071
 4744TIP3    H235648   2.675   2.242   2.154 -1.2576 -0.1079  0.1906
 4745TIP3   OH235649   3.983   3.846   5.893 -0.1082 -0.4636 -0.2441
 4745TIP3    H135650   3.976   3.800   5.977  0.3984  1.1195  0.7215
 4745TIP3    H235651   4.072   3.827   5.863  0.4995  0.7091  0.7090
 4746TIP3   OH235652   2.608   6.586   0.052 -0.4020 -0.6850  0.1154
 4746TIP3    H135653   2.576   6.556  -0.033  0.1036  0.7925 -0.6370
 4746TIP3    H235654   2.703   6.592   0.041 -0.2762 -1.0034  0.9717
 4747TIP3   OH235655   6.083   3.460  17.009  0.2573 -0.1305  0.0550
 4747TIP3    H135656   6.133   3.387  16.972 -0.0265 -0.1846 -0.2206
 4747TIP3    H235657   6.056   3.512  16.933  1.1130  0.6895  0.2897
 4748TIP3   OH235658   3.646   4.338   1.808 -0.1751  0.1849  0.1507
 4748TIP3    H135659   3.700   4.416   1.824 -0.3843  0.5854 -1.0042
 4748TIP3    H235660   3.643   4.330   1.713 -1.6870 -0.1609  0.2055
 4749TIP3   OH235661   2.409   1.658   0.618 -0.0778 -0.4289  0.1620
 4749TIP3    H135662   2.325   1.628   0.584 -0.2788  0.4314 -0.1158
 4749TIP3    H235663   2.386   1.707   0.697 -0.0433  1.5133 -0.9844
 4750TIP3   OH235664   0.151   5.914  12.103 -0.2729 -0.3475 -0.1957
 4750TIP3    H135665   0.112   5.924  12.016  0.8879  2.3683 -0.5036
 4750TIP3    H235666   0.079   5.930  12.164 -0.4003  1.2931 -0.7333
 4751TIP3   OH235667   5.789   2.107  13.341  0.0690 -0.4964  0.2685
 4751TIP3    H135668   5.788   2.029  13.396  0.9283 -1.1674 -0.6478
 4751TIP3    H235669   5.843   2.084  13.266 -0.1681  0.7761 -0.3277
 4752TIP3   OH235670   6.253   0.449  12.529  0.9445  0.2198 -0.0127
 4752TIP3    H135671   6.239   0.373  12.473  1.1394  0.4737 -0.4114
 4752TIP3    H235672   6.243   0.524  12.471  3.0507  0.4584 -0.1582
 4753TIP3   OH235673   5.897   3.693  15.499 -0.1029 -0.3768  0.5177
 4753TIP3    H135674   5.819   3.743  15.522 -1.0510 -1.4919 -0.1596
 4753TIP3    H235675   5.921   3.647  15.580 -1.0282 -1.1573  0.3651
 4754TIP3   OH235676   0.047   3.833  15.421 -0.0557 -0.1765  0.4437
 4754TIP3    H135677   0.009   3.843  15.508 -1.6210  1.8379 -0.3942
 4754TIP3    H235678   0.056   3.922  15.388  1.4410 -0.8387 -1.0899
 4755TIP3   OH235679   6.097   3.652   5.678 -0.1528 -0.0207  0.6135
 4755TIP3    H135680   6.139   3.738   5.682  0.4468 -0.2248 -0.7194
 4755TIP3    H235681   6.046   3.647   5.758 -1.0880  2.0366  0.2154
 4756TIP3   OH235682   3.762   5.902  16.059 -0.5089 -0.4978 -0.3187
 4756TIP3    H135683   3.824   5.904  16.132 -1.0824  0.0460  0.1682
 4756TIP3    H235684   3.798   5.963  15.995 -1.5863  1.4930  0.8690
 4757TIP3   OH235685   6.159   0.188  15.117 -0.5639  0.5350 -0.1664
 4757TIP3    H135686   6.212   0.161  15.042 -0.4696 -1.6169  0.6131
 4757TIP3    H235687   6.221   0.192  15.190 -1.0334  0.4999  0.2362
 4758TIP3   OH235688   4.728   0.991  15.316 -0.5439 -0.2651  0.2467
 4758TIP3    H135689   4.694   0.959  15.400 -0.1955 -1.6553 -0.1035
 4758TIP3    H235690   4.823   0.996  15.330 -0.5778  0.4615  0.2317
 4759TIP3   OH235691   6.523   3.402  15.722  0.3013 -0.1393 -0.2782
 4759TIP3    H135692   6.534   3.333  15.788 -0.7760  0.8599  1.0040
 4759TIP3    H235693   6.605   3.450  15.724 -0.0842  0.5175  1.1367
 4760TIP3   OH235694   1.409   5.166  14.585 -0.6233  0.3368 -0.2403
 4760TIP3    H135695   1.387   5.243  14.637  0.2695  1.4232 -1.3963
 4760TIP3    H235696   1.336   5.158  14.523 -0.1946  0.9630 -0.8510
 4761TIP3   OH235697   2.543   2.125   1.035  0.0123  0.0857 -0.0223
 4761TIP3    H135698   2.489   2.164   1.103 -0.6720  1.2283 -1.1837
 4761TIP3    H235699   2.625   2.175   1.037 -0.6432  1.2489 -1.1215
 4762TIP3   OH235700   2.702   3.443  14.419 -0.3318 -0.2306 -0.2818
 4762TIP3    H135701   2.682   3.473  14.330 -0.3089 -0.6241 -0.4191
 4762TIP3    H235702   2.630   3.384  14.441 -0.5031  0.1112  0.0819
 4763TIP3   OH235703   3.047   1.129  16.191 -0.6863  0.5611 -0.4941
 4763TIP3    H135704   3.119   1.071  16.165  0.7733  1.8865  0.3984
 4763TIP3    H235705   2.968   1.077  16.178  0.4328 -0.9887 -1.4201
 4764TIP3   OH235706   1.219   3.806  15.069 -0.2502 -0.0357  0.2245
 4764TIP3    H135707   1.186   3.720  15.043  2.9830 -1.1560 -0.6232
 4764TIP3    H235708   1.226   3.855  14.987 -0.9440  0.6328  0.5546
 4765TIP3   OH235709   3.043   5.821  16.927 -0.0907 -0.0253 -0.5602
 4765TIP3    H135710   3.023   5.883  16.858 -0.5088 -1.5640 -1.8890
 4765TIP3    H235711   3.076   5.874  16.999 -0.2135  1.6791 -1.7186
 4766TIP3   OH235712   4.748   2.275  16.649 -0.3594 -0.3524 -0.3014
 4766TIP3    H135713   4.781   2.359  16.616  1.5640 -1.0934 -0.3740
 4766TIP3    H235714   4.818   2.242  16.705 -1.4798 -1.4901  0.4911
 4767TIP3   OH235715   4.183   2.044  14.272  0.9345 -0.4580  0.5551
 4767TIP3    H135716   4.150   2.021  14.185  3.4011 -0.8988 -0.3583
 4767TIP3    H235717   4.127   2.115  14.301 -0.9032 -1.3048 -0.7228
 4768TIP3   OH235718   5.201   0.706  15.969  0.3022 -0.1956 -0.5225
 4768TIP3    H135719   5.194   0.613  15.988 -0.6800  0.0212  0.3340
 4768TIP3    H235720   5.294   0.722  15.955  0.5690 -1.1641  0.0900
 4769TIP3   OH235721   0.284   2.786   4.585 -0.2017  0.4342  0.0494
 4769TIP3    H135722   0.308   2.853   4.521 -0.2563  0.2439 -0.1743
 4769TIP3    H235723   0.193   2.763   4.562 -0.3521  0.6421  0.4378
 4770TIP3   OH235724   1.694   1.449  14.810  0.1567  0.4946 -0.2324
 4770TIP3    H135725   1.626   1.404  14.860  0.5068 -0.8597 -0.9344
 4770TIP3    H235726   1.728   1.516  14.870 -1.7028  1.1431  0.1544
 4771TIP3   OH235727   3.983   4.617  13.485  0.0266  0.5772 -0.3545
 4771TIP3    H135728   4.014   4.636  13.396 -0.7729 -0.2802 -0.8368
 4771TIP3    H235729   3.889   4.638  13.482  0.0748  0.9320  0.4129
 4772TIP3   OH235730   4.227   1.903  13.264 -0.2618 -0.5925  0.4292
 4772TIP3    H135731   4.161   1.880  13.199 -0.0286 -1.8107  0.5912
 4772TIP3    H235732   4.194   1.983  13.305 -0.3680  0.2606 -1.2222
 4773TIP3   OH235733   5.801   3.350  14.193 -0.4211 -0.1513  0.1127
 4773TIP3    H135734   5.839   3.403  14.123  0.3940  1.0913  1.4383
 4773TIP3    H235735   5.774   3.414  14.260  2.0413 -1.3863  2.4737
 4774TIP3   OH235736   1.933   1.502  17.225  0.4924  0.9918 -0.8572
 4774TIP3    H135737   1.866   1.563  17.257 -1.4960 -1.0517 -0.8759
 4774TIP3    H235738   1.966   1.460  17.303 -1.2612 -0.9057 -1.0551
 4775TIP3   OH235739   3.804   5.157   0.114  0.4276  0.2215  0.4354
 4775TIP3    H135740   3.794   5.062   0.106 -2.3040  0.2973  1.8039
 4775TIP3    H235741   3.724   5.186   0.159  1.5393  3.0814  0.7856
 4776TIP3   OH235742   0.806   6.303  12.508  0.2793  1.1043  0.4711
 4776TIP3    H135743   0.712   6.321  12.497 -0.4354 -2.3294 -0.4575
 4776TIP3    H235744   0.812   6.258  12.592  0.3366 -1.9693 -1.0149
 4777TIP3   OH235745   4.788   3.649  15.921  0.1393  0.1249 -0.1306
 4777TIP3    H135746   4.871   3.696  15.919 -0.4692  1.2514  0.4257
 4777TIP3    H235747   4.743   3.681  15.999 -0.1691 -1.6401  0.4740
 4778TIP3   OH235748   0.665   6.316  15.461  0.5574  0.5049  0.2077
 4778TIP3    H135749   0.612   6.383  15.504 -1.1759 -1.2289  0.9348
 4778TIP3    H235750   0.691   6.257  15.531  0.4067 -0.6313 -0.6575
 4779TIP3   OH235751   5.041   2.133   3.127 -0.4321 -0.0761  0.3096
 4779TIP3    H135752   5.028   2.115   3.034  0.3345 -1.0739  0.3783
 4779TIP3    H235753   5.074   2.223   3.130 -0.3827 -0.0640 -0.3899
 4780TIP3   OH235754   4.833   5.929  12.858 -0.1166  0.2318 -0.1393
 4780TIP3    H135755   4.897   5.985  12.813  1.1200 -1.1599 -0.1772
 4780TIP3    H235756   4.764   5.915  12.793  1.1709 -0.9373 -1.3401
 4781TIP3   OH235757   0.521   0.628  16.150  0.0018  0.1538  0.4870
 4781TIP3    H135758   0.484   0.696  16.093 -0.8926  0.9743  1.9954
 4781TIP3    H235759   0.445   0.583  16.186  0.5633 -0.4843  0.8879
 4782TIP3   OH235760   6.487   5.589   1.278  0.4723  0.7683  0.4813
 4782TIP3    H135761   6.555   5.567   1.215  0.2781  0.1946  0.4642
 4782TIP3    H235762   6.433   5.509   1.284 -0.3636  1.3031  0.2807
 4783TIP3   OH235763   5.296   3.428   1.865  0.0011 -0.1811 -0.0468
 4783TIP3    H135764   5.205   3.452   1.883 -0.5677 -1.9093 -0.4317
 4783TIP3    H235765   5.299   3.412   1.771  0.3846 -1.3208  0.1417
 4784TIP3   OH235766   0.516   5.433   1.773 -0.7992  0.1079  0.2690
 4784TIP3    H135767   0.591   5.395   1.818 -0.1286  1.2659  0.1732
 4784TIP3    H235768   0.441   5.385   1.806  0.0356 -1.6044 -0.1956
 4785TIP3   OH235769   5.093   2.885   2.544 -0.4555 -0.5266 -0.0317
 4785TIP3    H135770   5.154   2.953   2.516 -1.7881  0.3972 -0.8260
 4785TIP3    H235771   5.041   2.926   2.613  1.1286 -1.9748  2.1335
 4786TIP3   OH235772   5.455   3.065   5.644  0.5904 -0.6651  0.8228
 4786TIP3    H135773   5.381   3.109   5.601  0.2276 -1.0848  1.0170
 4786TIP3    H235774   5.445   3.087   5.737  1.5589  0.5139  0.6764
 4787TIP3   OH235775   1.336   6.689   0.640  0.3109 -0.3584 -0.3593
 4787TIP3    H135776   1.311   6.742   0.715 -2.3046  0.3841 -1.6276
 4787TIP3    H235777   1.385   6.749   0.583 -0.1524 -0.1090 -0.4992
 4788TIP3   OH235778   5.424   4.173   4.895  0.2519 -0.1644 -0.2016
 4788TIP3    H135779   5.503   4.218   4.867 -0.5373  0.6668 -1.1725
 4788TIP3    H235780   5.384   4.232   4.959 -0.8601  0.6639 -1.5849
 4789TIP3   OH235781   3.877   3.464   3.203  0.8495 -0.1645 -0.1813
 4789TIP3    H135782   3.818   3.402   3.160 -0.8004 -0.1513  1.8711
 4789TIP3    H235783   3.946   3.409   3.241  0.6537 -0.5056 -0.3137
 4790TIP3   OH235784   5.540   1.662   4.413  0.4545 -0.2134 -0.2455
 4790TIP3    H135785   5.579   1.681   4.498 -0.2924 -0.3025  0.1248
 4790TIP3    H235786   5.466   1.604   4.433  1.9502 -2.5792 -1.2091
 4791TIP3   OH235787   0.390   2.764  14.983  0.1980 -0.2467  0.6743
 4791TIP3    H135788   0.320   2.784  14.922  0.9179 -0.3832 -0.2163
 4791TIP3    H235789   0.348   2.762  15.069 -0.8249 -0.0557  0.1834
 4792TIP3   OH235790   0.032   2.277   0.394  0.2367  0.2496 -0.2854
 4792TIP3    H135791  -0.063   2.267   0.404  0.5213 -0.6911  2.0170
 4792TIP3    H235792   0.051   2.234   0.310 -1.0854 -1.8469  0.4144
 4793TIP3   OH235793   4.522   5.263   0.410 -0.1016  0.3925  0.4084
 4793TIP3    H135794   4.556   5.331   0.467  1.0485  0.5105 -0.3896
 4793TIP3    H235795   4.594   5.200   0.402 -0.8130 -0.4363  0.3806
 4794TIP3   OH235796   2.518   0.405  17.161  0.0856 -0.6725  0.0228
 4794TIP3    H135797   2.591   0.366  17.112  1.6486  0.2274  1.5022
 4794TIP3    H235798   2.550   0.409  17.251 -2.9011 -2.8341  1.3364
 4795TIP3   OH235799   0.003   6.792   2.568 -0.0803 -0.0161  0.1856
 4795TIP3    H135800  -0.006   6.697   2.563 -0.8563  0.0798 -0.3460
 4795TIP3    H235801   0.018   6.820   2.478 -0.5582  0.4293  0.2364
 4796TIP3   OH235802   0.352   1.431  13.365  0.6750 -0.0624  0.0731
 4796TIP3    H135803   0.437   1.418  13.323  0.1886  1.4332 -1.5096
 4796TIP3    H235804   0.342   1.357  13.424  2.9373 -0.4245  0.0673
 4797TIP3   OH235805   1.741   5.401   1.691  0.2283 -0.8186  0.1684
 4797TIP3    H135806   1.766   5.475   1.746  0.9881 -0.5990 -0.4487
 4797TIP3    H235807   1.818   5.344   1.691 -0.1882 -1.3866  0.2742
 4798TIP3   OH235808   3.740   6.728  15.216 -0.1013  0.6551 -0.0594
 4798TIP3    H135809   3.745   6.775  15.133  0.3881 -0.8449 -0.9220
 4798TIP3    H235810   3.646   6.728  15.237 -0.3625  0.2584 -1.1155
 4799TIP3   OH235811   3.028   0.872   3.399  0.2798  0.8786  0.0296
 4799TIP3    H135812   3.052   0.781   3.418  0.7371  1.3139  1.6907
 4799TIP3    H235813   2.968   0.866   3.325  1.9242 -0.6204 -1.2812
 4800TIP3   OH235814   1.974   3.367  15.766 -0.0001  0.4379  0.2069
 4800TIP3    H135815   1.920   3.371  15.845  0.9737 -0.0728  0.9209
 4800TIP3    H235816   2.014   3.280  15.768  0.2105  0.4933 -0.7451
 4801TIP3   OH235817   5.525   6.162   5.255  0.3494 -0.1535  0.0724
 4801TIP3    H135818   5.452   6.222   5.235  0.3423  0.2582  1.2680
 4801TIP3    H235819   5.529   6.104   5.179  0.1831  1.1912 -1.0077
 4802TIP3   OH235820   0.300   1.159  15.164  0.0397  0.2060  0.2683
 4802TIP3    H135821   0.364   1.163  15.234 -0.2637  1.1248  0.5052
 4802TIP3    H235822   0.332   1.220  15.098  0.9978 -1.5592 -1.0129
 4803TIP3   OH235823   2.899   3.133   0.736 -0.5964 -0.2117 -0.2635
 4803TIP3    H135824   2.836   3.205   0.744  0.6815  0.8518  0.6222
 4803TIP3    H235825   2.948   3.152   0.656 -0.0239  0.1005  0.1589
 4804TIP3   OH235826   5.776   2.083   0.768  0.2232  0.4421 -0.0972
 4804TIP3    H135827   5.786   2.027   0.691  0.3390 -0.8122  0.7881
 4804TIP3    H235828   5.776   2.172   0.734 -1.5638 -0.1245 -1.7236
 4805TIP3   OH235829   5.808   0.967   0.416  0.1198  0.5034  0.1940
 4805TIP3    H135830   5.874   0.917   0.464  0.5218  0.6241 -0.2264
 4805TIP3    H235831   5.849   0.986   0.332 -1.5597 -2.0132 -1.2902
 4806TIP3   OH235832   2.975   2.106  11.094 -0.4046  0.2031 -0.3204
 4806TIP3    H135833   3.063   2.143  11.102 -0.4917  0.3401  0.0181
 4806TIP3    H235834   2.958   2.106  11.000 -0.1039  0.3190 -0.3770
 4807TIP3   OH235835   4.424   3.166  10.877 -0.2139 -0.1108  0.4798
 4807TIP3    H135836   4.516   3.191  10.863 -0.5232  0.3005 -0.9497
 4807TIP3    H235837   4.428   3.076  10.909  0.6855 -0.1915  0.1689
 4808TIP3   OH235838   3.599   0.908  10.700  0.2249 -0.4793 -0.3187
 4808TIP3    H135839   3.506   0.894  10.717  0.0456  0.3897 -0.5243
 4808TIP3    H235840   3.626   0.973  10.766  0.2884  0.5026 -1.2908
 4809TIP3   OH235841   3.332   0.020  13.563  0.1587  0.0276 -0.5698
 4809TIP3    H135842   3.422  -0.007  13.546 -0.3374 -0.9801 -1.7866
 4809TIP3    H235843   3.301   0.055  13.479 -0.1985  1.6032  0.1681
 4810TIP3   OH235844   0.027   4.180   2.733  0.2770 -0.3566 -0.8926
 4810TIP3    H135845   0.114   4.193   2.694  0.2194  1.6150 -0.4659
 4810TIP3    H235846   0.027   4.236   2.811 -0.8350 -1.5640  0.0106
 4811TIP3   OH235847   5.743   6.356  11.361 -0.2119  0.2275 -0.1918
 4811TIP3    H135848   5.681   6.383  11.428  1.0235  0.0544  1.0866
 4811TIP3    H235849   5.761   6.264  11.382 -0.0683  0.0741 -0.9764
 4812TIP3   OH235850   0.705   1.072  16.294  0.3637 -0.4909 -0.0879
 4812TIP3    H135851   0.800   1.060  16.297  0.4416 -0.4477 -1.6364
 4812TIP3    H235852   0.669   0.984  16.304  0.4881 -0.3909  1.6719
 4813TIP3   OH235853   1.241   1.829   0.938  0.1178 -0.0957  1.0455
 4813TIP3    H135854   1.255   1.738   0.964 -1.2497 -0.9284 -0.8900
 4813TIP3    H235855   1.150   1.847   0.960  0.6860  1.2507  2.5013
 4814TIP3   OH235856   2.953   0.948  12.580  0.2813  0.7627 -0.0442
 4814TIP3    H135857   2.864   0.973  12.605 -0.8379 -3.6887  1.4024
 4814TIP3    H235858   3.006   0.966  12.658  0.2849  1.6306 -0.2345
 4815TIP3   OH235859   2.437   1.415   3.026  0.1792 -0.1326  0.2267
 4815TIP3    H135860   2.474   1.356   2.960 -0.0869 -1.8884  1.5697
 4815TIP3    H235861   2.446   1.503   2.988  1.3230 -0.9483 -1.5062
 4816TIP3   OH235862   4.183   4.525   1.562  0.2249 -1.0897 -0.9350
 4816TIP3    H135863   4.097   4.510   1.524 -1.1256  0.5907  1.2810
 4816TIP3    H235864   4.211   4.610   1.526  0.3340 -0.9667 -0.5617
 4817TIP3   OH235865   5.438   5.188  16.110 -0.6073 -0.5619  0.0124
 4817TIP3    H135866   5.525   5.157  16.136 -0.4642 -0.7867 -0.7158
 4817TIP3    H235867   5.435   5.175  16.015 -0.6405  1.4355 -0.2925
 4818TIP3   OH235868   4.189   5.683  12.029 -0.2539 -0.0548 -0.1114
 4818TIP3    H135869   4.137   5.643  11.960  2.7180 -1.1175 -1.8976
 4818TIP3    H235870   4.219   5.609  12.082  2.3897  0.0304 -1.3520
 4819TIP3   OH235871   2.232   1.057  14.354 -0.1468  0.1610  0.2031
 4819TIP3    H135872   2.240   1.133  14.411  0.1832 -0.0794  0.4813
 4819TIP3    H235873   2.282   1.081  14.275 -0.4252  0.4102  0.1023
 4820TIP3   OH235874   0.563   0.375   4.842 -0.1568 -0.0192 -0.0988
 4820TIP3    H135875   0.599   0.296   4.801 -0.5536  0.4968 -1.4968
 4820TIP3    H235876   0.637   0.435   4.850 -0.2781  0.2637 -1.0380
 4821TIP3   OH235877   4.476   2.556  14.982  0.3521 -0.4783  1.0657
 4821TIP3    H135878   4.402   2.609  15.011  1.2737 -0.6753  4.1662
 4821TIP3    H235879   4.504   2.596  14.899 -1.5803  1.1925  1.1624
 4822TIP3   OH235880   6.252   1.504  14.001 -0.5912  0.1893  0.4265
 4822TIP3    H135881   6.200   1.424  14.006  0.1584 -0.7140 -3.4344
 4822TIP3    H235882   6.324   1.489  14.062 -0.3846 -2.1687 -0.3049
 4823TIP3   OH235883   0.589   5.045   1.710 -0.1361 -0.0123  0.0546
 4823TIP3    H135884   0.544   5.036   1.794  0.0591  0.6682  0.2331
 4823TIP3    H235885   0.520   5.032   1.645 -0.6000  1.0150  0.3228
 4824TIP3   OH235886   5.584   4.051   4.005 -0.3959  0.8463 -0.4289
 4824TIP3    H135887   5.528   4.124   4.028 -0.3284  0.8013 -0.1146
 4824TIP3    H235888   5.564   3.984   4.070 -2.2309 -0.3563 -2.1087
 4825TIP3   OH235889   0.212   3.840  13.019 -0.3115 -0.1892 -0.1361
 4825TIP3    H135890   0.209   3.861  12.926 -0.1708 -2.0272 -0.6003
 4825TIP3    H235891   0.131   3.877  13.055  0.8265  2.7852 -0.4143
 4826TIP3   OH235892   5.644   1.760  14.967 -0.0088  0.1383  0.0208
 4826TIP3    H135893   5.662   1.836  14.912 -0.0609 -0.4151 -0.7676
 4826TIP3    H235894   5.549   1.761  14.980 -0.0963 -0.1862 -0.5738
 4827TIP3   OH235895   2.547   5.884  11.285  0.0890 -0.4087  0.1003
 4827TIP3    H135896   2.609   5.954  11.265 -0.2338 -0.5969 -1.7692
 4827TIP3    H235897   2.529   5.844  11.200 -0.7878 -1.8791  0.9435
 4828TIP3   OH235898   0.869   2.831  16.208 -0.1116  0.5522  0.2057
 4828TIP3    H135899   0.961   2.854  16.203 -0.1940  0.6347 -1.5225
 4828TIP3    H235900   0.857   2.763  16.142 -1.0268 -0.4678  1.3649
 4829TIP3   OH235901   1.703   4.448  13.286  0.2526 -0.1401 -0.3118
 4829TIP3    H135902   1.711   4.356  13.311  1.1319  0.2728  0.9736
 4829TIP3    H235903   1.682   4.445  13.192 -0.7090 -1.6618 -0.0864
 4830TIP3   OH235904   6.058   5.948  16.384 -0.3165 -0.5116 -0.4461
 4830TIP3    H135905   6.100   6.034  16.385 -0.3318 -0.4973 -0.8461
 4830TIP3    H235906   5.994   5.951  16.455 -3.0073  1.1678 -2.7288
 4831TIP3   OH235907   5.769   5.507   0.396  0.1028  0.6751 -0.1893
 4831TIP3    H135908   5.684   5.468   0.416  1.4356 -1.8650  0.9268
 4831TIP3    H235909   5.748   5.583   0.342 -2.8883  0.4261  0.4654
 4832TIP3   OH235910   0.506   5.396  16.908  0.3281  1.1091 -0.2780
 4832TIP3    H135911   0.541   5.310  16.930 -2.4480  0.3623  1.5538
 4832TIP3    H235912   0.515   5.401  16.812  0.7468 -1.1101 -0.4109
 4833TIP3   OH235913   1.363   1.997   5.705 -0.0193  0.2112  0.3010
 4833TIP3    H135914   1.348   1.907   5.677  0.4211  0.4787 -0.8293
 4833TIP3    H235915   1.286   2.018   5.759 -1.1278 -0.1860 -1.0616
 4834TIP3   OH235916   2.399   5.973  15.970  0.8064 -0.1519 -0.5820
 4834TIP3    H135917   2.332   6.023  16.017  0.3937  0.1733 -1.4898
 4834TIP3    H235918   2.350   5.919  15.909  1.2841 -1.2966  0.0169
 4835TIP3   OH235919   3.181   0.569   2.953 -0.1139  0.0710 -0.2673
 4835TIP3    H135920   3.178   0.659   2.987 -0.7889  0.2808 -0.8569
 4835TIP3    H235921   3.262   0.533   2.988 -0.8598  0.2027  1.7020
 4836TIP3   OH235922   2.107   3.881   9.955  0.0721 -0.6237 -0.4124
 4836TIP3    H135923   2.026   3.859   9.910 -0.1258  0.5459 -0.6470
 4836TIP3    H235924   2.084   3.884  10.047  0.0250 -1.0400 -0.4095
 4837TIP3   OH235925   5.813   1.947  12.759 -0.0258 -0.5322  0.2915
 4837TIP3    H135926   5.806   1.856  12.729 -1.0426 -0.5391  0.5185
 4837TIP3    H235927   5.797   1.941  12.853 -0.1700 -0.1059  0.2929
 4838TIP3   OH235928   2.998   3.733  16.356 -0.1522  0.2780 -0.2263
 4838TIP3    H135929   3.035   3.713  16.270 -1.3625  0.5498 -0.8309
 4838TIP3    H235930   3.054   3.803  16.390  0.2116  0.3184 -0.8853
 4839TIP3   OH235931   1.270   2.366   4.700 -0.5518  0.5640 -0.3013
 4839TIP3    H135932   1.251   2.445   4.750 -0.4985 -0.6427  1.7428
 4839TIP3    H235933   1.268   2.394   4.608  0.5416  3.1508  0.3754
 4840TIP3   OH235934   6.058   0.096  14.737  0.3280 -0.7829 -0.1136
 4840TIP3    H135935   6.152   0.095  14.757  0.0121  0.6909  1.7694
 4840TIP3    H235936   6.019   0.035  14.800 -0.0342 -1.1495 -0.6778
 4841TIP3   OH235937   0.598   3.538   2.991 -0.1360 -0.2511  0.2168
 4841TIP3    H135938   0.617   3.571   2.903  1.0928 -1.6271 -0.0664
 4841TIP3    H235939   0.544   3.606   3.030  0.8915  1.2932 -0.9146
 4842TIP3   OH235940   0.283   4.272   6.011 -0.5031 -0.4953  0.4800
 4842TIP3    H135941   0.356   4.294   5.953 -1.4525  4.0070  0.6441
 4842TIP3    H235942   0.325   4.250   6.094  0.7203  0.5926  0.1855
 4843TIP3   OH235943   5.362   4.686  16.918  0.0130  0.4599 -0.6699
 4843TIP3    H135944   5.289   4.665  16.976  0.6104  0.8420  0.2346
 4843TIP3    H235945   5.409   4.757  16.962  0.9727  0.1805 -1.2036
 4844TIP3   OH235946   6.507   2.337  16.881 -0.2648 -0.2845  0.0622
 4844TIP3    H135947   6.464   2.252  16.873  0.4742 -0.6021 -0.6826
 4844TIP3    H235948   6.453   2.396  16.828 -1.5283  0.0331  1.6258
 4845TIP3   OH235949   6.179   4.791  13.701 -0.1258 -0.3678 -0.0898
 4845TIP3    H135950   6.274   4.801  13.691 -0.0731 -0.2992  0.4654
 4845TIP3    H235951   6.151   4.872  13.744 -0.6979  0.4079 -1.8363
 4846TIP3   OH235952   1.655   3.038   3.376  0.1526 -0.4366 -0.1336
 4846TIP3    H135953   1.653   3.010   3.467  0.2237 -1.3351 -0.3958
 4846TIP3    H235954   1.579   3.094   3.366  1.0384  0.9921  0.8805
 4847TIP3   OH235955   1.789   4.591  13.489  0.3777  0.1757  0.3802
 4847TIP3    H135956   1.875   4.550  13.503  0.6151  0.7610  0.6987
 4847TIP3    H235957   1.746   4.535  13.424  1.5658  0.6515 -0.8911
 4848TIP3   OH235958   1.389   1.379  11.300 -0.5850  0.2793  0.3197
 4848TIP3    H135959   1.419   1.301  11.345  0.1501  0.6153  0.4173
 4848TIP3    H235960   1.397   1.359  11.207  0.0836  0.4153  0.3448
 4849TIP3   OH235961   6.568   0.018  16.706 -0.8483  0.4402 -0.1869
 4849TIP3    H135962   6.638   0.018  16.772 -0.0286 -0.3865 -1.0309
 4849TIP3    H235963   6.571   0.107  16.669  0.4880  0.1199 -0.9340
 4850TIP3   OH235964   6.035   4.736   1.177 -0.2120 -0.0519  0.3574
 4850TIP3    H135965   6.099   4.779   1.120  1.8148 -1.6889  1.2802
 4850TIP3    H235966   6.034   4.790   1.256 -0.2751  0.1982  0.1872
 4851TIP3   OH235967   2.329   4.654  16.086  0.4285 -0.0684  0.3683
 4851TIP3    H135968   2.371   4.573  16.057 -1.5884 -0.5133 -1.6708
 4851TIP3    H235969   2.344   4.715  16.014 -1.2277  0.1277  0.1320
 4852TIP3   OH235970   1.296   0.441  14.989  0.8281  0.2524  0.0391
 4852TIP3    H135971   1.368   0.387  15.022 -0.0386 -1.7327 -1.1092
 4852TIP3    H235972   1.279   0.407  14.901  0.1447  2.3785 -0.7244
 4853TIP3   OH235973   0.326   6.562  12.271  0.7152  0.2813 -0.1436
 4853TIP3    H135974   0.233   6.585  12.271  0.8161  0.7045 -0.5987
 4853TIP3    H235975   0.330   6.477  12.228  0.7126  1.0522 -1.7443
 4854TIP3   OH235976   4.380   5.473   4.086 -0.2077 -0.0429 -0.0492
 4854TIP3    H135977   4.437   5.436   4.154  0.3277  0.8501 -0.0002
 4854TIP3    H235978   4.422   5.555   4.061 -1.7984  0.9788  0.4495
 4855TIP3   OH235979   5.503   1.918   4.281  0.1752 -0.0946  0.0890
 4855TIP3    H135980   5.497   1.836   4.330 -0.7242  0.4741  0.9577
 4855TIP3    H235981   5.596   1.939   4.280  0.4476 -1.2706 -0.3931
 4856TIP3   OH235982   6.273   3.226  11.250 -0.3291 -0.1375  0.6059
 4856TIP3    H135983   6.232   3.168  11.186  0.3190  0.7447 -0.6645
 4856TIP3    H235984   6.201   3.263  11.300 -1.1087  1.1411 -1.3625
 4857TIP3   OH235985   0.784   0.758  16.869 -0.2971 -0.5306  0.0270
 4857TIP3    H135986   0.796   0.839  16.918 -1.3346  0.4690 -1.2983
 4857TIP3    H235987   0.797   0.783  16.777 -0.5875 -1.8754 -0.4060
 4858TIP3   OH235988   4.268   0.975  15.408  0.7252  0.2136  0.4066
 4858TIP3    H135989   4.302   0.959  15.320 -0.3606  0.4681 -0.0837
 4858TIP3    H235990   4.175   0.953  15.402 -0.0944  3.1334  0.6160
 4859TIP3   OH235991   5.255   2.946  16.485 -0.5679 -0.0701 -0.4453
 4859TIP3    H135992   5.160   2.951  16.469 -0.3686 -0.1635 -1.7683
 4859TIP3    H235993   5.275   2.853  16.478 -0.4390 -0.0925  0.2213
 4860TIP3   OH235994   2.704   2.619   3.092  0.5679 -0.7910  0.2093
 4860TIP3    H135995   2.772   2.595   3.156  0.2784 -0.5567  0.6079
 4860TIP3    H235996   2.751   2.670   3.026  1.2143 -2.4730 -0.6888
 4861TIP3   OH235997   2.158   6.075  16.731 -0.2417  0.1841 -0.2428
 4861TIP3    H135998   2.173   6.058  16.824  0.8792 -1.3611 -0.6647
 4861TIP3    H235999   2.242   6.057  16.689 -0.6880  0.9914 -1.5579
 4862TIP3   OH236000   4.774   4.880   4.236 -0.0855 -0.1266  0.4069
 4862TIP3    H136001   4.789   4.827   4.314 -0.1809  0.1333  0.6042
 4862TIP3    H236002   4.858   4.925   4.221 -0.4688  0.9182  1.2007
 4863TIP3   OH236003   0.474   1.430  14.338  0.0925  0.4167  0.3044
 4863TIP3    H136004   0.447   1.502  14.395 -1.4489  0.1281 -0.0064
 4863TIP3    H236005   0.398   1.415  14.281 -0.5610 -2.8814  1.7941
 4864TIP3   OH236006   1.863   1.171   0.645  0.6856 -0.2873 -0.1138
 4864TIP3    H136007   1.829   1.132   0.564 -1.6439 -1.0728  1.1640
 4864TIP3    H236008   1.867   1.264   0.626  0.7189 -0.5151 -1.3253
 4865TIP3   OH236009   3.971   4.424   0.863  0.5309  0.5040  0.8975
 4865TIP3    H136010   3.925   4.462   0.788  0.0726 -0.4980  0.6578
 4865TIP3    H236011   4.002   4.339   0.832  0.5311  0.1770  1.7714
 4866TIP3   OH236012   2.100   0.907   2.015  0.1166 -0.0688  0.0712
 4866TIP3    H136013   2.037   0.918   1.944 -1.6579 -2.5655  1.0917
 4866TIP3    H236014   2.098   0.990   2.063 -0.2040  0.9029 -1.5627
 4867TIP3   OH236015   4.880   5.363  15.963 -0.0857  0.6159 -0.3814
 4867TIP3    H136016   4.956   5.350  15.906 -0.5403  0.0494 -0.8703
 4867TIP3    H236017   4.904   5.437  16.019  0.3701  1.1924 -1.3115
 4868TIP3   OH236018   5.218   4.220   4.008 -0.2322 -0.2180 -0.2700
 4868TIP3    H136019   5.246   4.288   3.947 -1.6126  1.1942  0.5884
 4868TIP3    H236020   5.155   4.168   3.959 -2.1798  1.5805  0.1933
 4869TIP3   OH236021   2.999   6.153  12.060  0.0418  0.6199 -0.3988
 4869TIP3    H136022   2.942   6.214  12.013  0.6102  0.3906 -1.4329
 4869TIP3    H236023   3.036   6.097  11.991  0.2362 -0.3069  0.4254
 4870TIP3   OH236024   4.243   0.197   1.270 -0.5188  0.2507 -0.2525
 4870TIP3    H136025   4.175   0.262   1.286 -2.3126 -1.1200 -1.8712
 4870TIP3    H236026   4.278   0.177   1.357 -3.6276 -0.4503  0.9805
 4871TIP3   OH236027   4.921   2.730   2.400 -0.2739 -0.2342  0.2093
 4871TIP3    H136028   4.840   2.776   2.424 -0.5807 -1.3727  1.4820
 4871TIP3    H236029   4.991   2.789   2.427 -0.6696  0.1288  0.4532
 4872TIP3   OH236030   4.598   2.045   3.020  0.1951  0.0493  0.5458
 4872TIP3    H136031   4.532   2.101   2.980  0.2551 -0.0060  0.3690
 4872TIP3    H236032   4.659   2.024   2.949  0.3684  0.0485  0.6920
 4873TIP3   OH236033   4.256   5.067  16.957 -0.0700 -0.2202 -0.1551
 4873TIP3    H136034   4.230   5.076  17.049 -0.2478  0.2850 -0.2559
 4873TIP3    H236035   4.184   5.018  16.917  1.0061 -2.4569  0.4426
 4874TIP3   OH236036   0.024   0.998  16.776  0.2401 -0.3103 -0.2643
 4874TIP3    H136037   0.045   1.014  16.867 -0.5695  0.3134 -0.1702
 4874TIP3    H236038   0.048   0.906  16.761  0.3567 -0.4216  0.5772
 4875TIP3   OH236039   4.075   1.754  15.923  0.5383 -0.7939  0.9766
 4875TIP3    H136040   4.154   1.723  15.880 -0.3638  0.4253 -1.7948
 4875TIP3    H236041   4.012   1.683  15.913  0.0458 -0.1827 -0.7444
 4876TIP3   OH236042   1.989   2.668  13.889 -0.4568  0.2648  0.1085
 4876TIP3    H136043   1.973   2.577  13.913 -2.3590  0.9893  1.8627
 4876TIP3    H236044   1.919   2.717  13.931  0.8292  2.6265 -0.3068
 4877TIP3   OH236045   6.010   5.466   5.421 -0.6121  0.7917 -0.4734
 4877TIP3    H136046   6.059   5.547   5.438  1.0094  0.0120 -1.2676
 4877TIP3    H236047   5.998   5.427   5.507 -0.2126  1.2079 -0.2207
 4878TIP3   OH236048   5.091   5.648   4.314  0.5894  0.4451 -0.6245
 4878TIP3    H136049   5.175   5.611   4.339  1.4095  1.5890 -1.5999
 4878TIP3    H236050   5.048   5.667   4.398  0.4240 -1.9332 -0.0933
 4879TIP3   OH236051   2.467   3.605  11.978 -0.6115 -0.3598  0.0041
 4879TIP3    H136052   2.465   3.618  12.072  0.7384 -1.4978  0.2160
 4879TIP3    H236053   2.441   3.513  11.966  1.0538 -0.7947 -0.5558
 4880TIP3   OH236054   4.983   5.146  12.472  0.1231 -0.0802  0.3100
 4880TIP3    H136055   4.900   5.194  12.461 -1.0973 -2.5741 -2.6526
 4880TIP3    H236056   4.959   5.068  12.521  0.2577 -1.6498 -1.9871
 4881TIP3   OH236057   6.730   4.354  11.599 -0.5497  0.0886 -0.5041
 4881TIP3    H136058   6.743   4.393  11.685  0.9176  0.7207 -0.9773
 4881TIP3    H236059   6.649   4.304  11.607 -1.3128  1.4511  0.7628
 4882TIP3   OH236060   3.105   5.148  11.124 -0.6802  0.0396 -0.6100
 4882TIP3    H136061   3.090   5.117  11.034  2.7189 -0.6460 -1.0903
 4882TIP3    H236062   3.102   5.069  11.177  0.6298 -0.0784 -0.6822
 4883TIP3   OH236063   0.539   5.445   2.671  0.0283 -0.3227  0.5601
 4883TIP3    H136064   0.610   5.381   2.681  0.3688 -0.1823 -0.6770
 4883TIP3    H236065   0.468   5.412   2.725  0.8951 -0.6905  1.5068
 4884TIP3   OH236066   2.275   0.473  15.108  0.6116  0.0323 -0.0198
 4884TIP3    H136067   2.363   0.507  15.123  0.0129  1.4501  0.4623
 4884TIP3    H236068   2.272   0.454  15.014  1.6762 -0.8061  0.0998
 4885TIP3   OH236069   0.596   2.092  14.452  0.2088  0.3937  0.3523
 4885TIP3    H136070   0.650   2.066  14.378 -0.5660  0.7116 -0.3356
 4885TIP3    H236071   0.506   2.080  14.422 -0.1208  0.9425  1.0850
 4886TIP3   OH236072   3.874   5.399  14.892  0.3055 -0.0414 -0.4375
 4886TIP3    H136073   3.943   5.333  14.904  0.8452  0.4190 -0.9506
 4886TIP3    H236074   3.803   5.353  14.849 -0.4994 -1.0095  1.7675
 4887TIP3   OH236075   3.826   3.331  14.972  0.4125  0.2579  0.3046
 4887TIP3    H136076   3.899   3.392  14.984  1.3505  0.1972 -3.6508
 4887TIP3    H236077   3.749   3.387  14.966  0.7518  0.7367  0.3573
 4888TIP3   OH236078   0.486   2.562  15.399 -0.2570  0.5683  0.1793
 4888TIP3    H136079   0.537   2.639  15.373 -1.0963  1.1126  0.1091
 4888TIP3    H236080   0.547   2.509  15.450  0.3588  1.2369  0.1550
 4889TIP3   OH236081   1.831   1.220  16.240 -0.0837 -0.1177 -0.0847
 4889TIP3    H136082   1.736   1.210  16.236 -0.2653  1.2838  0.4626
 4889TIP3    H236083   1.847   1.312  16.221  1.2054 -0.4079 -0.5373
 4890TIP3   OH236084   1.181   6.501  15.318  0.3377 -0.2349  0.1790
 4890TIP3    H136085   1.234   6.469  15.245  0.8175 -0.6966  0.7143
 4890TIP3    H236086   1.094   6.514  15.280  0.3250 -1.4195 -0.2633
 4891TIP3   OH236087   5.223   0.861   6.031 -0.6384 -0.1062 -0.0345
 4891TIP3    H136088   5.277   0.939   6.040 -0.5545  0.0295 -1.4528
 4891TIP3    H236089   5.133   0.894   6.031 -0.6065 -0.0101 -0.5192
 4892TIP3   OH236090   2.822   4.269  16.374  0.4767  0.1332  0.0065
 4892TIP3    H136091   2.885   4.263  16.302  0.4249  0.6469 -0.0844
 4892TIP3    H236092   2.739   4.293  16.331  0.8691  2.5050  0.4085
 4893TIP3   OH236093   6.624   0.511  13.367  0.0230 -0.0699  0.1370
 4893TIP3    H136094   6.652   0.465  13.446  0.3466  0.6411  0.4494
 4893TIP3    H236095   6.702   0.514  13.312  0.0220  0.1562  0.1466
 4894TIP3   OH236096   3.304   1.895   0.166  0.4609 -0.3310 -0.6895
 4894TIP3    H136097   3.335   1.827   0.225  0.9214  0.0210 -0.5251
 4894TIP3    H236098   3.265   1.846   0.093 -0.3151 -0.7648 -0.0035
 4895TIP3   OH236099   1.222   4.353   4.869  0.2842  0.1347  0.9809
 4895TIP3    H136100   1.157   4.288   4.896 -0.5991  0.2266 -0.7676
 4895TIP3    H236101   1.291   4.348   4.936 -0.9286 -0.8432  2.2021
 4896TIP3   OH236102   0.268   3.065  13.478  0.3881 -0.1464  0.1328
 4896TIP3    H136103   0.207   3.134  13.454  2.8331  1.6920 -1.2913
 4896TIP3    H236104   0.279   3.074  13.573  1.5342  2.3245 -0.1547
 4897TIP3   OH236105   5.559   0.653  14.615 -0.9328 -0.3361 -0.1916
 4897TIP3    H136106   5.644   0.639  14.656 -1.1562  1.9263  1.1932
 4897TIP3    H236107   5.567   0.739  14.573 -2.8559  0.4735  0.9803
 4898TIP3   OH236108   6.135   0.992   5.562  0.6727 -0.0313 -0.1071
 4898TIP3    H136109   6.117   0.908   5.521  0.7887  0.1504 -0.5361
 4898TIP3    H236110   6.169   0.969   5.649 -0.9624 -0.3860  0.4760
 4899TIP3   OH236111   1.995   5.854  15.206 -0.0028  0.3850 -0.4207
 4899TIP3    H136112   1.925   5.919  15.207 -2.9463 -2.5106  0.0983
 4899TIP3    H236113   1.977   5.798  15.281  2.0823 -1.3036 -1.0817
 4900TIP3   OH236114   1.151   0.169   5.240  0.1482 -0.0663 -0.8869
 4900TIP3    H136115   1.186   0.104   5.300 -0.5524  0.7969  0.4986
 4900TIP3    H236116   1.229   0.204   5.196  0.9410  0.7663  1.0580
 4901TIP3   OH236117   4.802   1.737  16.023  0.5655  0.0642  0.4007
 4901TIP3    H136118   4.872   1.676  16.000 -0.6233 -1.2567  0.1304
 4901TIP3    H236119   4.775   1.710  16.110 -0.5072 -0.3423 -0.0417
 4902TIP3   OH236120   1.105   2.753   4.503  0.0720  0.6304 -0.3003
 4902TIP3    H136121   1.169   2.814   4.541 -0.5962  1.6509 -0.7673
 4902TIP3    H236122   1.085   2.790   4.417  0.6284 -0.9813 -1.1449
 4903TIP3   OH236123   4.292   5.283  11.964 -0.3507  0.1812 -0.4631
 4903TIP3    H136124   4.200   5.300  11.983 -0.0648  1.2942  0.0720
 4903TIP3    H236125   4.292   5.207  11.906 -1.7841  1.8149 -2.7776
 4904TIP3   OH236126   1.555   6.266  12.246  0.2128 -0.3965 -0.0668
 4904TIP3    H136127   1.636   6.312  12.222  0.7911 -1.8848 -1.1127
 4904TIP3    H236128   1.487   6.308  12.193  0.1870  1.0983  1.0720
 4905TIP3   OH236129   6.584   3.453   5.233 -0.8049  0.1484  0.0723
 4905TIP3    H136130   6.497   3.443   5.269 -1.0665 -1.8484 -0.9929
 4905TIP3    H236131   6.571   3.461   5.138  0.1419  0.3172 -0.0639
 4906TIP3   OH236132   1.872   6.674  14.690 -0.1271 -0.1253  0.3522
 4906TIP3    H136133   1.909   6.733  14.755 -0.0796 -0.7851  0.9300
 4906TIP3    H236134   1.948   6.647  14.637 -0.1165  0.1531  0.2222
 4907TIP3   OH236135   4.700   6.090  15.707  0.0366  0.1919  0.2344
 4907TIP3    H136136   4.649   6.009  15.715  0.4370  0.0994  2.1235
 4907TIP3    H236137   4.791   6.063  15.719  0.1595  0.9477  1.0727
 4908TIP3   OH236138   5.286   0.997  10.698 -0.6005  0.0568  0.2587
 4908TIP3    H136139   5.225   0.944  10.648 -0.4055 -0.0580  0.1400
 4908TIP3    H236140   5.231   1.047  10.758 -0.6174 -2.7268  2.7715
 4909TIP3   OH236141   2.801   1.001  17.201  0.2345  0.1815  0.5195
 4909TIP3    H136142   2.732   0.972  17.260  0.1153 -0.6977 -0.0221
 4909TIP3    H236143   2.864   0.929  17.202  1.8468  1.5166  2.0378
 4910TIP3   OH236144   4.788   1.668   3.611 -0.1584  0.3865  0.1876
 4910TIP3    H136145   4.781   1.611   3.688 -1.8645  0.2420 -0.0382
 4910TIP3    H236146   4.839   1.743   3.642 -1.7992  0.8885  1.8296
 4911TIP3   OH236147   6.251   0.024  13.774  0.4919  0.4057 -0.2928
 4911TIP3    H136148   6.225   0.003  13.864 -0.1484 -0.7675 -0.7327
 4911TIP3    H236149   6.336  -0.019  13.763  0.3257  0.1056 -0.4118
 4912TIP3   OH236150   0.114   4.997  12.753 -0.0365  0.1479  0.7647
 4912TIP3    H136151   0.056   5.072  12.759  0.0372  0.2712  0.0728
 4912TIP3    H236152   0.129   4.970  12.844 -1.2407  0.0488  0.9469
 4913TIP3   OH236153   4.142   6.371  17.112  0.1771  0.3821 -0.0909
 4913TIP3    H136154   4.138   6.338  17.022 -1.4024 -0.1987  0.1589
 4913TIP3    H236155   4.221   6.332  17.148 -1.0945 -2.4832 -0.1033
 4914TIP3   OH236156   6.302   5.422  13.761  0.2709 -0.1813  0.7945
 4914TIP3    H136157   6.227   5.451  13.709  2.2580  0.8257 -1.7283
 4914TIP3    H236158   6.277   5.442  13.851 -1.8356  1.6168 -0.0825
 4915TIP3   OH236159   0.060   0.353   1.470 -0.5706  0.7491  0.3013
 4915TIP3    H136160   0.152   0.334   1.489 -0.7835 -0.0714  0.5361
 4915TIP3    H236161   0.043   0.437   1.514  0.5418  1.8422 -1.2397
 4916TIP3   OH236162   2.425   6.531  11.291  0.0798 -0.3555 -0.0080
 4916TIP3    H136163   2.385   6.522  11.378  2.0456 -1.8362  0.8025
 4916TIP3    H236164   2.462   6.445  11.272  2.6002  0.8058 -0.8195
 4917TIP3   OH236165   4.916   1.728  11.252 -0.2746  0.2525 -0.1919
 4917TIP3    H136166   4.859   1.698  11.322  0.0974 -0.2551 -0.1041
 4917TIP3    H236167   4.893   1.821  11.240 -0.0579  0.4508  0.8721
 4918TIP3   OH236168   1.559   0.576   4.809  0.5573  0.2127 -0.7868
 4918TIP3    H136169   1.619   0.540   4.874  0.5632 -0.3014 -1.0720
 4918TIP3    H236170   1.502   0.635   4.859  0.2595 -0.5373 -0.2232
 4919TIP3   OH236171   0.042   4.607  13.342 -0.4756 -0.3996  0.9482
 4919TIP3    H136172   0.056   4.586  13.249 -2.0478  0.6995  0.4371
 4919TIP3    H236173   0.090   4.538  13.389  0.8140 -0.6617 -0.6576
 4920TIP3   OH236174   4.851   4.230  16.618  0.2385  0.0154 -0.1174
 4920TIP3    H136175   4.827   4.302  16.560  1.6416  0.4086 -0.2555
 4920TIP3    H236176   4.947   4.231  16.619  0.3009 -2.0292 -0.3440
 4921TIP3   OH236177   2.217   2.135  11.689  0.3192 -0.0005 -0.5488
 4921TIP3    H136178   2.135   2.093  11.714  0.1893  1.3346  1.5439
 4921TIP3    H236179   2.261   2.070  11.634 -1.5868 -1.2192 -0.7566
 4922TIP3   OH236180   2.024   3.378  11.548 -0.1411 -0.1944 -0.4484
 4922TIP3    H136181   2.017   3.284  11.567 -1.8341 -0.0373 -0.1340
 4922TIP3    H236182   1.977   3.389  11.466  0.5848  0.3045 -0.8063
 4923TIP3   OH236183   4.846   0.615  16.597 -0.1699 -0.1741 -0.0006
 4923TIP3    H136184   4.837   0.605  16.691  0.7220 -0.0644  0.1103
 4923TIP3    H236185   4.819   0.530  16.561  0.3978 -0.5484  0.4304
 4924TIP3   OH236186   4.128   0.204  11.499 -0.3968  0.2906  0.0616
 4924TIP3    H136187   4.176   0.283  11.475 -0.1841  0.3141  0.5441
 4924TIP3    H236188   4.037   0.233  11.504 -0.1182  0.9773  2.0523
 4925TIP3   OH236189   2.367   4.663   4.548 -0.1773  0.4490  0.0219
 4925TIP3    H136190   2.361   4.734   4.613  1.8840  0.4638  0.2363
 4925TIP3    H236191   2.454   4.626   4.561 -1.0426 -1.8585 -0.3960
 4926TIP3   OH236192   3.410   1.544   5.223  0.1715  0.0768 -0.2057
 4926TIP3    H136193   3.484   1.547   5.162  0.8368  1.5493  0.6308
 4926TIP3    H236194   3.432   1.608   5.291 -1.3583 -0.2714  0.6594
 4927TIP3   OH236195   1.890   1.974  12.602  0.0051  0.0289  0.0715
 4927TIP3    H136196   1.878   1.999  12.511 -0.2440  1.3734  0.4541
 4927TIP3    H236197   1.971   1.922  12.603 -0.2934 -0.4723 -0.9837
 4928TIP3   OH236198   2.454   1.560   1.865 -0.2614  0.0600  0.2885
 4928TIP3    H136199   2.468   1.654   1.855  2.4691 -0.3243 -0.4680
 4928TIP3    H236200   2.389   1.537   1.798 -0.0140  1.2201 -0.3720
 4929TIP3   OH236201   2.578   0.921   6.187  0.1148  0.8680  0.5840
 4929TIP3    H136202   2.532   0.951   6.266 -0.0762 -0.4562  0.9962
 4929TIP3    H236203   2.569   0.826   6.189  0.7733  0.7680 -0.6407
 4930TIP3   OH236204   3.544   5.303   1.564 -0.1967  0.0285 -0.0935
 4930TIP3    H136205   3.571   5.360   1.491 -0.9983  2.5468  1.4470
 4930TIP3    H236206   3.573   5.350   1.642 -2.2402 -0.9475  1.3202
 4931TIP3   OH236207   1.640   0.365   3.205  0.0501 -0.2551  0.6011
 4931TIP3    H136208   1.699   0.441   3.209  0.8907 -0.8014 -0.8836
 4931TIP3    H236209   1.567   0.393   3.150  0.4294 -0.5529 -0.0635
 4932TIP3   OH236210   1.650   1.128  15.652  0.2208  0.3090 -0.1825
 4932TIP3    H136211   1.698   1.194  15.701  0.7101  0.6118 -1.0566
 4932TIP3    H236212   1.688   1.044  15.680  2.2965  0.6053 -1.9144
 4933TIP3   OH236213   4.859   2.931  12.046 -0.1456  0.5901 -0.6338
 4933TIP3    H136214   4.770   2.967  12.044 -0.0735  1.1132  2.0298
 4933TIP3    H236215   4.912   3.001  12.085  1.0854 -0.4211 -0.4437
 4934TIP3   OH236216   3.393   2.506  11.976  0.0166  0.4453 -0.1597
 4934TIP3    H136217   3.450   2.488  12.051  1.1441  0.2619 -1.0395
 4934TIP3    H236218   3.391   2.602  11.971  3.0438  0.5389 -2.1088
 4935TIP3   OH236219   6.247   3.542  10.750 -0.2113  0.7321  0.0381
 4935TIP3    H136220   6.254   3.587  10.666 -0.2522  0.2201 -0.2444
 4935TIP3    H236221   6.158   3.508  10.752  0.0574 -0.0035 -0.1017
 4936TIP3   OH236222   0.004   3.330  11.244  0.7663  0.1306 -0.1253
 4936TIP3    H136223  -0.015   3.385  11.320 -1.1506 -0.6181 -0.0038
 4936TIP3    H236224  -0.002   3.241  11.276  2.4757 -0.1927 -0.6272
 4937TIP3   OH236225   1.663   5.023  14.634  0.3283 -0.3262 -0.0758
 4937TIP3    H136226   1.586   5.062  14.594 -0.7543 -1.4029  0.8886
 4937TIP3    H236227   1.654   5.042  14.728  1.1696 -0.5844  0.0711
 4938TIP3   OH236228   6.158   4.383  16.596 -0.1154  0.0719 -0.0879
 4938TIP3    H136229   6.205   4.334  16.664  0.3805  0.0319 -0.4497
 4938TIP3    H236230   6.123   4.459  16.641 -0.5557 -0.4055  0.4000
 4939TIP3   OH236231   3.102   6.061  14.520 -0.2895  0.0450  0.6315
 4939TIP3    H136232   3.117   6.063  14.425 -2.2326 -1.3714  0.2398
 4939TIP3    H236233   3.170   6.003  14.553  0.6441  0.8445  0.1973
 4940TIP3   OH236234   0.424   2.248   0.826  0.2031  0.0950 -0.2735
 4940TIP3    H136235   0.472   2.252   0.743  0.2240  1.1935 -0.2315
 4940TIP3    H236236   0.492   2.250   0.894  0.2449 -1.9418 -0.2031
 4941TIP3   OH236237   0.646   3.958   4.454  0.1879 -0.1966 -0.2079
 4941TIP3    H136238   0.719   3.951   4.515  0.2842 -1.1118 -0.4158
 4941TIP3    H236239   0.679   3.919   4.373  0.2654  1.5314 -1.0420
 4942TIP3   OH236240   0.311   4.820  11.512  0.1360  0.1560 -0.2860
 4942TIP3    H136241   0.362   4.901  11.512  1.1300 -0.4495 -0.6359
 4942TIP3    H236242   0.336   4.776  11.594 -0.6460  0.3406  0.0643
 4943TIP3   OH236243   5.326   2.153  13.479  0.7151 -0.3054  0.3574
 4943TIP3    H136244   5.267   2.226  13.461  0.4771 -0.3867  0.7899
 4943TIP3    H236245   5.393   2.158  13.411  0.6096  0.2206  0.2926
 4944TIP3   OH236246   0.175   2.961   0.917  0.6011 -0.0301  0.1486
 4944TIP3    H136247   0.190   2.985   1.009  1.0280 -0.5338  0.2211
 4944TIP3    H236248   0.258   2.921   0.890  1.0393  1.5136 -0.9257
 4945TIP3   OH236249   1.818   0.543  15.994  0.5325 -0.1705 -0.1663
 4945TIP3    H136250   1.814   0.464  15.939  3.4400 -0.6550  0.1796
 4945TIP3    H236251   1.732   0.583  15.983  0.1754 -1.4557 -3.2663
 4946TIP3   OH236252   4.822   5.242  13.621 -0.1544 -0.1017  0.3705
 4946TIP3    H136253   4.821   5.186  13.698 -1.4383  0.6736  0.9383
 4946TIP3    H236254   4.860   5.187  13.552 -1.2590 -1.6192  0.9269
 4947TIP3   OH236255   0.246   5.748   2.329  0.1262  0.1242  0.0658
 4947TIP3    H136256   0.279   5.793   2.406 -1.7342 -1.2544  1.7669
 4947TIP3    H236257   0.211   5.665   2.362 -1.0521 -0.3831 -2.2004
 4948TIP3   OH236258   6.186   2.797  14.701  0.0163 -0.2803 -0.5607
 4948TIP3    H136259   6.232   2.715  14.680 -0.5693 -0.7161 -0.1817
 4948TIP3    H236260   6.118   2.804  14.633 -1.7734 -1.6060  0.9783
 4949TIP3   OH236261   1.796   2.470  12.657  0.2269  0.0191 -0.8108
 4949TIP3    H136262   1.869   2.515  12.699 -0.1709  0.4995 -0.6130
 4949TIP3    H236263   1.828   2.382  12.638  1.1399  0.4935 -1.5293
 4950TIP3   OH236264   5.222   3.910   6.131 -0.2167 -0.1560 -0.4425
 4950TIP3    H136265   5.152   3.975   6.133  0.8525  1.0155 -0.0077
 4950TIP3    H236266   5.178   3.829   6.104 -1.5992  0.7011 -0.8891
 4951TIP3   OH236267   6.315   0.423   5.295  0.2713  0.2184 -0.4727
 4951TIP3    H136268   6.301   0.511   5.259 -1.1793  0.6014  0.8887
 4951TIP3    H236269   6.370   0.438   5.372 -1.9712  0.3300  1.2004
 4952TIP3   OH236270   5.757   4.661   5.904  0.2978  0.4965  0.1273
 4952TIP3    H136271   5.736   4.574   5.937 -1.3889  0.0636 -1.8386
 4952TIP3    H236272   5.687   4.717   5.938  0.2833  0.6665 -0.1798
 4953TIP3   OH236273   6.010   2.289   4.360  0.6507 -0.0302 -0.0048
 4953TIP3    H136274   6.035   2.246   4.442  2.2079  1.1076  0.1607
 4953TIP3    H236275   6.073   2.256   4.296 -0.8959 -1.3376 -0.9206
 4954TIP3   OH236276   6.002   6.525  14.335 -0.0607  0.1340 -0.7091
 4954TIP3    H136277   5.989   6.541  14.429 -1.6335  0.7492 -1.0011
 4954TIP3    H236278   6.072   6.585  14.310 -0.2428  0.6143 -0.1002
 4955TIP3   OH236279   0.351   2.554  11.222  0.3409  0.1812 -0.4216
 4955TIP3    H136280   0.401   2.473  11.225  3.5038  1.9459  2.1115
 4955TIP3    H236281   0.310   2.560  11.308 -1.0274  0.6517 -1.0796
 4956TIP3   OH236282   3.288   1.911  10.692  0.6132 -0.1667 -0.2216
 4956TIP3    H136283   3.213   1.969  10.680 -0.9527 -2.1115 -0.2694
 4956TIP3    H236284   3.316   1.927  10.782 -1.1290 -0.8046  0.4752
 4957TIP3   OH236285   1.522   4.941   0.678  0.1729 -0.5838  0.1834
 4957TIP3    H136286   1.591   5.002   0.700 -1.2724  2.2433 -2.4209
 4957TIP3    H236287   1.564   4.874   0.625  1.1262  0.5315 -0.5043
 4958TIP3   OH236288   2.107   4.286  12.859 -0.6680  0.0617  0.2768
 4958TIP3    H136289   2.193   4.328  12.858 -0.9944  0.7401  0.3306
 4958TIP3    H236290   2.121   4.204  12.907  0.2737 -0.5534 -0.9962
 4959TIP3   OH236291   1.591   0.853  16.173 -0.3140 -0.2624 -0.2283
 4959TIP3    H136292   1.652   0.880  16.241  0.2566 -0.9558 -0.4600
 4959TIP3    H236293   1.510   0.834  16.219 -0.0275 -0.4165  0.2128
 4960TIP3   OH236294   1.885   1.024   1.867  0.0786 -0.1250  0.2835
 4960TIP3    H136295   1.853   1.066   1.787 -0.5689 -1.8579 -0.4291
 4960TIP3    H236296   1.896   1.095   1.929  0.7550  1.3125 -1.3800
 4961TIP3   OH236297   6.567   0.842   4.800  0.4021 -0.4501 -0.5748
 4961TIP3    H136298   6.638   0.906   4.793 -0.0100  0.1521  0.5487
 4961TIP3    H236299   6.604   0.771   4.853  0.3084 -0.3364 -0.3559
 4962TIP3   OH236300   6.523   6.142   3.773 -1.2928  0.1434 -0.4621
 4962TIP3    H136301   6.503   6.175   3.861 -0.0193 -2.2487  0.8097
 4962TIP3    H236302   6.618   6.150   3.766 -1.4388  0.9497 -1.9577
 4963TIP3   OH236303   1.845   3.138  11.793  0.1586  0.1842  0.4931
 4963TIP3    H136304   1.774   3.119  11.730 -0.2562  1.9294  0.3996
 4963TIP3    H236305   1.909   3.069  11.777 -0.2019  0.2407 -1.4604
 4964TIP3   OH236306   6.632   6.258   3.221 -0.6279 -0.3416  0.6315
 4964TIP3    H136307   6.672   6.201   3.155 -0.8365 -1.7566  1.6834
 4964TIP3    H236308   6.551   6.214   3.245  0.3564 -0.9367  3.2174
 4965TIP3   OH236309   5.329   3.989  14.814  0.0863 -0.5484 -0.1776
 4965TIP3    H136310   5.422   3.998  14.832 -0.3093 -0.1764  1.9091
 4965TIP3    H236311   5.286   4.050  14.874 -1.6113 -2.2047  0.4036
 4966TIP3   OH236312   4.553   1.398   1.872 -0.4273  0.3166 -0.2469
 4966TIP3    H136313   4.607   1.463   1.917  0.2905  0.0867 -0.7525
 4966TIP3    H236314   4.529   1.440   1.790 -1.2153  0.4993  0.0667
 4967TIP3   OH236315   0.319   0.530  16.928 -0.5168 -0.3503  0.5708
 4967TIP3    H136316   0.401   0.491  16.959  0.7576  0.2591 -1.7677
 4967TIP3    H236317   0.335   0.625  16.933 -1.8039 -0.1581  1.7627
 4968TIP3   OH236318   1.279   4.528  16.809  0.2618  0.5514  0.3632
 4968TIP3    H136319   1.255   4.563  16.895  1.8459 -0.2474  1.1603
 4968TIP3    H236320   1.287   4.433  16.823  1.9829  0.5662 -0.2769
 4969TIP3   OH236321   1.046   3.507   0.592  0.0444  0.2529  0.1528
 4969TIP3    H136322   1.011   3.589   0.626  1.0708  0.6957  0.1479
 4969TIP3    H236323   1.105   3.532   0.522 -0.7558 -0.5733 -0.8713
 4970TIP3   OH236324   5.736   1.099   1.429 -0.2620  0.0308  0.7095
 4970TIP3    H136325   5.738   1.191   1.457  1.3187  0.3604 -0.3344
 4970TIP3    H236326   5.748   1.102   1.334 -0.5481 -1.2533  0.6127
 4971TIP3   OH236327   1.625   0.801  10.874 -0.6794 -0.5665  0.0456
 4971TIP3    H136328   1.678   0.749  10.934  1.2459 -1.0973 -1.9598
 4971TIP3    H236329   1.556   0.741  10.846 -0.1303 -1.1524 -0.1016
 4972TIP3   OH236330   6.036   2.820   3.124  0.0757  0.0455  0.5246
 4972TIP3    H136331   6.095   2.788   3.055 -0.8417  2.4218 -1.4865
 4972TIP3    H236332   6.094   2.840   3.197  1.5637  0.5620 -0.7394
 4973TIP3   OH236333   3.494   2.480   3.251  0.3304  0.3750  0.1797
 4973TIP3    H136334   3.434   2.428   3.304 -0.6648  1.9174  0.6197
 4973TIP3    H236335   3.502   2.563   3.298 -1.5424  2.3035 -2.5976
 4974TIP3   OH236336   1.614   0.389   2.374 -0.1446 -0.5897  0.2228
 4974TIP3    H136337   1.685   0.374   2.435 -1.4964  0.3678  2.1356
 4974TIP3    H236338   1.534   0.382   2.427 -1.3410  1.2657 -1.1892
 4975TIP3   OH236339   1.419   6.049  12.043  0.4739  0.2473 -0.2146
 4975TIP3    H136340   1.421   6.130  11.992 -0.7000  0.7391  0.4818
 4975TIP3    H236341   1.472   6.067  12.120  0.3597  0.3008 -0.1477
 4976TIP3   OH236342   4.107   4.515  14.108  0.3954 -0.3877  0.2609
 4976TIP3    H136343   4.183   4.457  14.101 -0.8579 -2.6581  3.2089
 4976TIP3    H236344   4.050   4.472  14.172 -2.0966  2.6271  0.2981
 4977TIP3   OH236345   6.530   3.337  15.044 -1.0171  0.1432  0.1638
 4977TIP3    H136346   6.606   3.392  15.057 -0.8945  0.1462 -0.5377
 4977TIP3    H236347   6.557   3.251  15.075 -0.5018 -0.0099 -0.6744
 4978TIP3   OH236348   5.689   3.261  11.260  0.8551 -0.1956 -0.8573
 4978TIP3    H136349   5.606   3.223  11.232  0.5617  0.7856 -1.3500
 4978TIP3    H236350   5.745   3.256  11.183  0.4163  1.4655 -1.3145
 4979TIP3   OH236351   6.500   1.327  16.605 -0.6215  0.8152 -0.5360
 4979TIP3    H136352   6.490   1.291  16.693  0.1576  1.5824 -0.1145
 4979TIP3    H236353   6.435   1.280  16.552 -1.4647  0.7158  0.5516
 4980TIP3   OH236354   6.233   6.570   2.734  0.1766  0.6302 -0.2699
 4980TIP3    H136355   6.229   6.515   2.813 -1.1270  1.9089  0.6111
 4980TIP3    H236356   6.227   6.660   2.767 -1.0840  1.1778 -1.8547
 4981TIP3   OH236357   3.879   3.876  14.579 -0.4102 -0.2473  0.2165
 4981TIP3    H136358   3.885   3.926  14.498  1.4074  1.1471  1.1464
 4981TIP3    H236359   3.856   3.940  14.645 -0.2394 -1.0716  1.0945
 4982TIP3   OH236360   5.827   3.743   1.878 -0.3935  0.3314 -0.6546
 4982TIP3    H136361   5.758   3.788   1.927  0.1351  2.2069 -1.5502
 4982TIP3    H236362   5.786   3.720   1.795 -0.1487  0.7728 -0.8961
 4983TIP3   OH236363   5.425   4.015   3.704 -0.2118 -0.2452 -0.0249
 4983TIP3    H136364   5.425   3.973   3.790  0.6383  0.7601  0.4878
 4983TIP3    H236365   5.378   4.097   3.718  1.1563  0.5804 -0.1733
 4984TIP3   OH236366   3.370   0.462  11.788 -0.1984 -0.0094 -0.4433
 4984TIP3    H136367   3.442   0.438  11.730  0.3841  0.0324  0.2414
 4984TIP3    H236368   3.310   0.514  11.734 -1.0560 -2.2118 -1.7488
 4985TIP3   OH236369   0.980   0.916   4.396 -0.4069 -0.5359  0.4138
 4985TIP3    H136370   0.928   0.838   4.376  0.0069 -0.4120 -1.3344
 4985TIP3    H236371   0.983   0.964   4.313  0.5775  0.6026  1.0820
 4986TIP3   OH236372   0.667   6.414   3.619 -0.2085  0.0845 -0.5682
 4986TIP3    H136373   0.609   6.406   3.695  1.1672 -1.2834  0.4044
 4986TIP3    H236374   0.672   6.325   3.584  2.7435 -0.3008  0.5604
 4987TIP3   OH236375   0.469   6.296  16.060 -0.5364  0.5284  0.3688
 4987TIP3    H136376   0.446   6.207  16.033 -0.1476 -0.3859  2.8013
 4987TIP3    H236377   0.388   6.346  16.051 -1.1684 -0.4655  0.4052
 4988TIP3   OH236378   0.019   0.448  11.992 -0.1378  0.0507  0.2007
 4988TIP3    H136379  -0.057   0.475  12.042 -1.4175 -0.9739 -1.0890
 4988TIP3    H236380  -0.017   0.407  11.913  1.7488 -0.5012 -0.4476
 4989TIP3   OH236381   5.902   3.673  16.953  0.0728  0.2865 -0.3759
 4989TIP3    H136382   5.919   3.730  17.028 -2.4245  1.7803 -0.8247
 4989TIP3    H236383   5.845   3.604  16.988  0.1017  0.1549 -0.5882
 4990TIP3   OH236384   2.582   5.665  14.038  0.3225  0.3183  0.3648
 4990TIP3    H136385   2.509   5.634  14.092 -0.3440  1.3299  0.0581
 4990TIP3    H236386   2.659   5.627  14.080 -0.3515 -0.5834  0.8297
 4991TIP3   OH236387   5.428   5.690   0.984 -0.1838 -0.4835 -0.6353
 4991TIP3    H136388   5.385   5.604   0.984  0.7939 -0.9900 -1.0546
 4991TIP3    H236389   5.496   5.683   1.050 -0.0414 -0.0517 -0.7336
 4992TIP3   OH236390   5.510   1.990   3.437 -0.0385 -0.2399 -0.0888
 4992TIP3    H136391   5.437   2.045   3.410  0.4967  1.0940  1.0917
 4992TIP3    H236392   5.514   1.998   3.532  2.0807  0.3379 -0.1640
 4993TIP3   OH236393   4.499   1.138   2.594 -0.5592 -0.2473 -0.2586
 4993TIP3    H136394   4.486   1.232   2.581 -0.0997 -0.2913 -1.0756
 4993TIP3    H236395   4.508   1.102   2.506 -2.8112 -1.3798 -0.1015
 4994TIP3   OH236396   3.563   3.512   4.480 -0.4849 -0.1327 -0.3272
 4994TIP3    H136397   3.529   3.561   4.555 -1.0794 -0.1197 -0.5985
 4994TIP3    H236398   3.654   3.543   4.471 -0.1364 -0.7449  0.8845
 4995TIP3   OH236399   6.566   2.109  16.577  0.3402  0.2324 -0.1174
 4995TIP3    H136400   6.532   2.062  16.653  1.8839  0.3684  0.7153
 4995TIP3    H236401   6.515   2.076  16.503  0.4018 -1.7006  0.6466
 4996TIP3   OH236402   3.856   1.928  13.826 -0.0920  0.4495 -0.6148
 4996TIP3    H136403   3.855   1.879  13.908  0.4137 -0.2670 -1.0223
 4996TIP3    H236404   3.775   1.978  13.826  0.3975  1.3208  0.8296
 4997TIP3   OH236405   0.313   4.626  16.082 -0.2345 -0.3727 -0.6557
 4997TIP3    H136406   0.376   4.569  16.126  2.3967  1.9446 -1.1529
 4997TIP3    H236407   0.227   4.589  16.104  1.1875 -2.6129  1.6079
 4998TIP3   OH236408   5.955   2.653  16.869  0.0311 -0.6708 -0.3180
 4998TIP3    H136409   6.006   2.572  16.872  0.0417 -0.6795 -0.6667
 4998TIP3    H236410   5.992   2.707  16.939  1.1464 -0.3141 -1.1513
 4999TIP3   OH236411   3.036   1.989  15.456 -0.1938  0.0828 -0.1098
 4999TIP3    H136412   3.092   1.912  15.444 -0.4734 -0.4092  1.4470
 4999TIP3    H236413   2.968   1.960  15.518 -0.8121  1.3344 -0.1630
 5000TIP3   OH236414   4.232   6.738  15.370  0.6165 -0.4858 -0.0188
 5000TIP3    H136415   4.205   6.647  15.383  0.5261 -0.2250  1.8908
 5000TIP3    H236416   4.240   6.774  15.459 -0.9610  1.8390 -0.7084
 5001TIP3   OH236417   0.413   6.294   3.410 -0.3698  0.0590  0.8517
 5001TIP3    H136418   0.393   6.264   3.321 -0.4900 -0.7176  1.1370
 5001TIP3    H236419   0.438   6.386   3.399  0.9924 -0.4007 -0.1752
 5002TIP3   OH236420   5.747   0.636  14.362  0.3743  0.3100  0.3668
 5002TIP3    H136421   5.774   0.701  14.297 -0.7814  3.4306  2.7547
 5002TIP3    H236422   5.796   0.658  14.441 -1.4984 -0.4634  1.8360
 5003TIP3   OH236423   6.779   6.185   3.584 -0.1250 -0.4177 -0.1946
 5003TIP3    H136424   6.778   6.113   3.521  2.0589 -0.1796 -0.5673
 5003TIP3    H236425   6.728   6.254   3.542 -1.3358 -1.3346 -0.2962
 5004TIP3   OH236426   1.134   2.427   0.620 -0.1568 -0.2650 -0.0945
 5004TIP3    H136427   1.189   2.505   0.626 -0.2274 -0.2047 -0.2024
 5004TIP3    H236428   1.045   2.460   0.633 -0.4037  0.0069 -2.1270
 5005TIP3   OH236429   2.355   2.074   1.733 -0.1342 -0.2398 -0.3579
 5005TIP3    H136430   2.351   2.168   1.746  0.2016 -0.2735 -0.0048
 5005TIP3    H236431   2.290   2.056   1.665  0.6530  0.4017 -1.2958
 5006TIP3   OH236432   5.810   2.446  15.992 -0.1841  0.1426 -0.0783
 5006TIP3    H136433   5.808   2.410  16.081 -0.9367 -1.5983 -0.7551
 5006TIP3    H236434   5.888   2.406  15.953 -0.3314  0.2370 -0.4640
 5007TIP3   OH236435   0.605   2.899  16.179 -0.5222 -0.2237 -0.4846
 5007TIP3    H136436   0.564   2.816  16.157  0.1020 -0.0840 -2.3423
 5007TIP3    H236437   0.692   2.876  16.212 -0.6951 -0.3444 -0.1113
 5008TIP3   OH236438   5.969   3.431  11.684  0.5620  1.1061 -0.1980
 5008TIP3    H136439   6.060   3.416  11.660  0.6796  3.0175 -1.1784
 5008TIP3    H236440   5.919   3.396  11.610  0.5347  0.7142  0.0046
 5009TIP3   OH236441   6.748   4.564  13.623 -0.4368 -0.1866  0.2034
 5009TIP3    H136442   6.663   4.571  13.579 -0.5747  0.4464  0.5709
 5009TIP3    H236443   6.801   4.511  13.563 -0.4125  1.2086 -1.0597
 5010TIP3   OH236444   4.673   4.657   0.855 -0.2305  0.1889  0.0944
 5010TIP3    H136445   4.690   4.705   0.936  0.1842  1.6989 -0.8484
 5010TIP3    H236446   4.584   4.623   0.866 -0.3981  0.8750  0.9539
 5011TIP3   OH236447   6.055   0.254  12.007  0.5301 -0.1452 -0.7466
 5011TIP3    H136448   6.114   0.321  11.973 -0.8059  0.2204 -2.5508
 5011TIP3    H236449   5.967   0.290  11.991 -0.2033 -1.6331 -0.2807
 5012TIP3   OH236450   1.003   3.613  13.521 -0.1484 -0.1867 -0.2067
 5012TIP3    H136451   0.943   3.588  13.591 -1.4523  0.1010 -1.1834
 5012TIP3    H236452   1.082   3.562  13.538 -0.9768 -1.2504  0.6214
 5013TIP3   OH236453   2.026   4.135  15.500 -0.1772  0.1263  0.3381
 5013TIP3    H136454   2.021   4.115  15.594 -0.4352  1.7915  0.6969
 5013TIP3    H236455   1.941   4.109  15.465 -0.3512  0.2025  0.7032
 5014TIP3   OH236456   3.847   1.013  11.259 -0.4919 -0.4781 -0.9451
 5014TIP3    H136457   3.755   0.993  11.274 -0.6713  1.0415  0.2520
 5014TIP3    H236458   3.847   1.081  11.192 -0.2401 -0.4438 -0.9132
 5015TIP3   OH236459   0.151   2.004   0.628 -0.3765  0.1789  0.4412
 5015TIP3    H136460   0.166   2.098   0.635  0.7016 -0.0924  2.4663
 5015TIP3    H236461   0.178   1.982   0.539 -0.5036  1.7443 -0.0155
 5016TIP3   OH236462   2.670   4.346   2.547 -0.0270 -0.1073 -0.2049
 5016TIP3    H136463   2.635   4.274   2.599  0.5657  0.4089  0.9253
 5016TIP3    H236464   2.601   4.413   2.549  0.7152  0.6638  1.5155
 5017TIP3   OH236465   5.118   0.783   2.486 -0.4857  0.4306 -0.1948
 5017TIP3    H136466   5.197   0.834   2.468 -0.5762  1.2078  1.4730
 5017TIP3    H236467   5.051   0.848   2.506 -1.8266 -0.1728 -2.4067
 5018TIP3   OH236468   3.922   1.340   2.313 -0.5837  0.2243  0.2351
 5018TIP3    H136469   3.940   1.249   2.287 -1.2682 -0.0039  0.5103
 5018TIP3    H236470   3.993   1.391   2.275 -0.8722 -0.2589 -0.9848
 5019TIP3   OH236471   6.739   5.647   1.640  0.2797 -0.2258 -0.4082
 5019TIP3    H136472   6.785   5.607   1.713 -1.1040  0.6200  0.9739
 5019TIP3    H236473   6.806   5.656   1.572  1.4505 -1.5820  0.5082
 5020TIP3   OH236474   3.448   2.412   5.863  0.2305 -0.7143 -0.2017
 5020TIP3    H136475   3.361   2.376   5.846  0.4038 -1.3981  0.3387
 5020TIP3    H236476   3.474   2.374   5.946  0.4301  0.6492  0.3865
 5021TIP3   OH236477   4.157   1.180   3.026  0.3092  0.9439  0.0238
 5021TIP3    H136478   4.079   1.221   3.063  0.5566 -0.0073  1.6997
 5021TIP3    H236479   4.203   1.143   3.102 -0.8396 -4.0545 -1.3879
 5022TIP3   OH236480   3.014   4.593  12.231  0.8384 -0.0721 -0.1334
 5022TIP3    H136481   2.935   4.559  12.190 -0.0056 -0.1796  1.4854
 5022TIP3    H236482   3.066   4.515  12.251  1.1903 -0.0284 -0.8533
 5023TIP3   OH236483   5.416   5.554   4.868  0.3874 -0.1850 -0.3011
 5023TIP3    H136484   5.376   5.494   4.931 -1.7009  1.1585 -0.2519
 5023TIP3    H236485   5.393   5.641   4.900  1.9880  0.6202 -1.2382
 5024TIP3   OH236486   1.698   4.478  16.950 -0.5039 -0.4083  0.1930
 5024TIP3    H136487   1.645   4.556  16.936 -1.6841 -0.8919  1.6847
 5024TIP3    H236488   1.653   4.408  16.904 -0.0451 -0.4336 -0.2268
 5025TIP3   OH236489   3.065   6.044  12.304  0.2704  0.0468  0.5357
 5025TIP3    H136490   3.064   6.124  12.356  1.1075  0.7270 -0.4517
 5025TIP3    H236491   3.021   6.067  12.222 -2.0904 -1.3281  1.3128
 5026TIP3   OH236492   5.682   3.645  12.975  0.1647  0.1784  0.1150
 5026TIP3    H136493   5.595   3.660  13.012 -0.8365 -0.4763 -1.8197
 5026TIP3    H236494   5.737   3.713  13.013 -1.3252  0.9749  0.9260
 5027TIP3   OH236495   2.090   0.181  15.720  0.1542  0.3174  0.6273
 5027TIP3    H136496   2.139   0.101  15.741 -0.5651  0.1002  1.5195
 5027TIP3    H236497   2.111   0.242  15.791  3.9002  2.4971 -1.9572
 5028TIP3   OH236498   1.721   2.897  16.178 -0.2142  0.0427  0.0723
 5028TIP3    H136499   1.755   2.903  16.267 -1.7941  1.2139  0.6473
 5028TIP3    H236500   1.797   2.914  16.122  0.7631 -0.5448  1.1759
 5029TIP3   OH236501   5.815   4.412  13.554 -0.0725 -0.5332 -0.0118
 5029TIP3    H136502   5.759   4.352  13.504 -3.1247 -0.4768  2.9690
 5029TIP3    H236503   5.770   4.497  13.549  0.3909 -0.1754  1.4371
 5030TIP3   OH236504   6.585   3.228  12.637 -0.0757 -0.6577  0.4820
 5030TIP3    H136505   6.546   3.200  12.720 -0.9698 -3.9401 -0.8763
 5030TIP3    H236506   6.677   3.240  12.657 -0.3248 -1.0534  2.0343
 5031TIP3   OH236507   4.495   6.621   4.486 -0.4770  0.6851  0.1855
 5031TIP3    H136508   4.583   6.621   4.523 -0.0234 -0.8835 -0.8237
 5031TIP3    H236509   4.450   6.692   4.533  1.0893  1.0548  1.2179
 5032TIP3   OH236510   5.194   5.173   3.605  0.2909 -0.5564 -0.4539
 5032TIP3    H136511   5.258   5.105   3.584 -1.9389 -3.5756  1.6031
 5032TIP3    H236512   5.119   5.153   3.548 -1.6431 -2.0825  2.3533
 5033TIP3   OH236513   5.065   0.115  11.242 -0.2456 -0.4418  0.0854
 5033TIP3    H136514   5.134   0.181  11.239  0.9782 -1.7071 -0.6370
 5033TIP3    H236515   5.055   0.095  11.335 -1.4885  1.5850  0.4344
 5034TIP3   OH236516   4.849   3.769   5.157 -0.0894 -0.8213 -0.2891
 5034TIP3    H136517   4.799   3.695   5.123  1.6239 -1.7944 -0.8121
 5034TIP3    H236518   4.875   3.819   5.080 -3.5092  2.0461  0.1267
 5035TIP3   OH236519   5.410   1.321  11.480  0.0821 -0.2624  0.0960
 5035TIP3    H136520   5.337   1.382  11.490 -0.9047 -1.3665 -0.1315
 5035TIP3    H236521   5.472   1.367  11.424 -0.4871  0.6604  0.2021
 5036TIP3   OH236522   2.582   6.298  11.243  0.1342 -0.4384  0.2007
 5036TIP3    H136523   2.650   6.319  11.180 -1.7929 -1.0276 -2.2476
 5036TIP3    H236524   2.618   6.225  11.294  1.7344  0.0021 -0.2496
 5037TIP3   OH236525   0.443   4.880   4.380  0.3041 -0.0596 -0.2046
 5037TIP3    H136526   0.357   4.912   4.351  0.6711 -0.0776 -1.3998
 5037TIP3    H236527   0.431   4.857   4.472 -1.2631 -1.0481 -0.6181
 5038TIP3   OH236528   1.834   0.582   2.582  0.2189 -0.1430  0.4517
 5038TIP3    H136529   1.792   0.608   2.500  1.0833  1.6611  0.5261
 5038TIP3    H236530   1.855   0.489   2.570 -0.9894 -0.2812 -0.7770
 5039TIP3   OH236531   3.842   1.380  16.784 -0.0572  0.3802 -0.4141
 5039TIP3    H136532   3.845   1.313  16.852  0.1391  0.1960 -0.6056
 5039TIP3    H236533   3.931   1.417  16.783  0.0449  0.1217 -0.8360
 5040TIP3   OH236534   0.148   3.332  14.803  0.2952 -0.4041 -0.7751
 5040TIP3    H136535   0.130   3.423  14.827 -1.0020 -0.6337 -0.8006
 5040TIP3    H236536   0.103   3.280  14.870  2.9794 -1.0839  0.6379
 5041TIP3   OH236537   2.190   3.647   5.003 -0.4490  0.1974  0.1868
 5041TIP3    H136538   2.120   3.708   5.027  1.9289  1.8652  3.7133
 5041TIP3    H236539   2.270   3.699   5.007  1.1586 -1.5437 -4.0106
 5042TIP3   OH236540   5.840   6.380   6.017  0.0579  0.1417  0.0072
 5042TIP3    H136541   5.906   6.419   6.074 -1.8777  2.8371  0.5763
 5042TIP3    H236542   5.773   6.447   6.009 -3.1024 -2.7470  0.2219
 5043TIP3   OH236543   0.300   5.792  15.410 -0.3908 -0.0248  0.1970
 5043TIP3    H136544   0.328   5.759  15.496  1.7970  1.3011  0.0683
 5043TIP3    H236545   0.363   5.754  15.349 -1.2243 -0.0216 -0.6831
 5044TIP3   OH236546   2.768   4.992   2.820 -0.2146 -0.0661 -0.5115
 5044TIP3    H136547   2.813   4.972   2.737  1.1830 -0.7164  0.3666
 5044TIP3    H236548   2.804   4.929   2.882 -1.5724  0.1256  0.5102
 5045TIP3   OH236549   5.931   1.885   2.295 -0.1622  0.5236 -0.1366
 5045TIP3    H136550   5.889   1.969   2.316  0.0893  0.8961 -1.0980
 5045TIP3    H236551   5.869   1.819   2.327 -1.3029  1.0594 -1.1448
 5046TIP3   OH236552   3.012   6.377   3.878  0.1947  0.0706 -0.3714
 5046TIP3    H136553   2.939   6.429   3.913  0.0245  0.3113 -1.0729
 5046TIP3    H236554   3.007   6.389   3.783  0.9647 -0.1577 -0.4467
 5047TIP3   OH236555   4.217   0.410   2.287  0.1046 -0.0127 -0.9337
 5047TIP3    H136556   4.234   0.418   2.193 -0.2133 -1.5352 -1.1583
 5047TIP3    H236557   4.246   0.321   2.308 -0.8749 -0.0844  0.1785
 5048TIP3   OH236558   0.867   6.754   6.131  0.0111  0.5141  0.1275
 5048TIP3    H136559   0.941   6.814   6.128 -0.5140  1.1893  0.4279
 5048TIP3    H236560   0.829   6.766   6.218  0.5537 -1.0830  0.6367
 5049TIP3   OH236561   0.129   0.680   4.874  0.4180 -0.8567  0.0883
 5049TIP3    H136562   0.205   0.638   4.915  1.2066 -0.5811 -1.0290
 5049TIP3    H236563   0.163   0.714   4.791 -0.3100  1.5703  0.7203
 5050TIP3   OH236564   5.645   0.689  12.840  0.5572  0.1527 -0.0669
 5050TIP3    H136565   5.659   0.783  12.838  0.6778  0.1495  0.5765
 5050TIP3    H236566   5.580   0.675  12.909  3.1093 -0.5414  2.3478
 5051TIP3   OH236567   3.012   4.353   4.862  0.0237  0.4335 -0.7848
 5051TIP3    H136568   2.988   4.407   4.937  2.2902  0.9097 -0.3409
 5051TIP3    H236569   3.000   4.263   4.892  0.5961  0.6313  0.0408
 5052TIP3   OH236570   1.493   1.116   4.167 -0.3092 -0.0012  0.4428
 5052TIP3    H136571   1.407   1.087   4.197 -0.6174  1.7812  1.4142
 5052TIP3    H236572   1.536   1.036   4.138 -1.5012 -1.2355  1.9167
 5053TIP3   OH236573   3.799   0.365   5.716  0.3320  0.0005 -0.1051
 5053TIP3    H136574   3.796   0.432   5.784 -1.4420 -0.6964  0.5719
 5053TIP3    H236575   3.877   0.386   5.664  1.2829  1.0325  1.6460
 5054TIP3   OH236576   4.603   3.605  13.893  0.4745 -0.2508  0.0599
 5054TIP3    H136577   4.577   3.538  13.829  1.2317 -0.9930  0.4974
 5054TIP3    H236578   4.623   3.555  13.973 -1.5336  0.7464  1.2641
 5055TIP3   OH236579   3.449   4.537   1.351 -0.2638  0.0619 -0.6815
 5055TIP3    H136580   3.412   4.481   1.284  2.6342 -0.0189 -2.3848
 5055TIP3    H236581   3.543   4.539   1.332  0.7631  0.0650  3.3562
 5056TIP3   OH236582   2.990   5.484   5.378  0.0489 -0.2878  0.2808
 5056TIP3    H136583   3.022   5.394   5.374  1.8881  0.2584  1.4896
 5056TIP3    H236584   2.910   5.479   5.431 -1.9483 -1.6283 -2.5342
 5057TIP3   OH236585   3.796   5.458  14.019 -0.0293 -0.3785  0.0649
 5057TIP3    H136586   3.799   5.544  13.977  0.7770 -0.9658 -1.1377
 5057TIP3    H236587   3.867   5.409  13.978 -0.1735 -1.4644  1.0820
 5058TIP3   OH236588   3.018   5.064   1.049  0.1462  0.0289  0.0098
 5058TIP3    H136589   3.073   5.105   1.115  0.2295 -1.1691  0.7147
 5058TIP3    H236590   3.002   4.975   1.082  0.6665 -0.8131 -1.8286
 5059TIP3   OH236591   0.848   4.440   1.426  0.0666 -0.6096  0.1682
 5059TIP3    H136592   0.806   4.515   1.468 -0.8577 -0.1432 -1.4981
 5059TIP3    H236593   0.817   4.364   1.475  0.4330  0.0083  1.4166
 5060TIP3   OH236594   0.423   0.123   2.092  0.6505 -0.1795 -0.6095
 5060TIP3    H136595   0.366   0.191   2.127  1.2469  1.1563 -2.1256
 5060TIP3    H236596   0.411   0.127   1.998  1.5219 -1.4500 -0.7967
 5061TIP3   OH236597   2.055   4.032  14.084 -0.3132 -0.7378 -0.4874
 5061TIP3    H136598   2.073   4.116  14.042  0.1952 -1.3368 -1.5152
 5061TIP3    H236599   1.998   3.986  14.022 -0.8694 -1.0337  0.2219
 5062TIP3   OH236600   5.388   6.076  15.011 -0.5023 -0.0657 -0.1400
 5062TIP3    H136601   5.434   6.024  15.076  0.1499  0.5728 -0.0773
 5062TIP3    H236602   5.416   6.166  15.028 -1.6870  0.3286 -0.1765
 5063TIP3   OH236603   3.199   5.869   1.717 -0.1612  0.3835  0.8003
 5063TIP3    H136604   3.202   5.925   1.795  0.2070 -0.1504  1.1799
 5063TIP3    H236605   3.290   5.854   1.694 -0.2671  0.3989  0.3686
 5064TIP3   OH236606   3.158   3.538  11.707  0.3006 -0.0064  0.5489
 5064TIP3    H136607   3.204   3.472  11.656  0.9163  1.8453 -1.4589
 5064TIP3    H236608   3.170   3.512  11.798  1.2203 -2.1602 -0.1420
 5065TIP3   OH236609   5.613   2.664  14.870 -0.2883  0.3654 -0.3208
 5065TIP3    H136610   5.691   2.681  14.817 -0.0378 -0.3132 -0.1785
 5065TIP3    H236611   5.541   2.658  14.807 -0.3463  1.6011 -0.4089
 5066TIP3   OH236612   4.560   5.849   3.663 -0.1443  0.5775  0.2887
 5066TIP3    H136613   4.554   5.890   3.749 -1.0766  3.2820 -0.9659
 5066TIP3    H236614   4.471   5.821   3.643  0.1440 -0.4183  0.3476
 5067TIP3   OH236615   3.406   5.358   3.696 -0.7292  0.2632  0.1202
 5067TIP3    H136616   3.368   5.349   3.784 -0.7485  0.9911  0.1947
 5067TIP3    H236617   3.346   5.417   3.650 -0.6521 -0.0173 -0.3476
 5068TIP3   OH236618   0.521   3.427  10.457  0.2374  0.3475  1.0876
 5068TIP3    H136619   0.558   3.500  10.407  0.1995 -0.7875 -0.6872
 5068TIP3    H236620   0.426   3.444  10.458  0.1152 -0.1372 -0.1776
 5069TIP3   OH236621   5.787   1.258   2.848  0.4309 -0.2761  0.3416
 5069TIP3    H136622   5.860   1.231   2.792 -1.3039 -1.3415 -1.5541
 5069TIP3    H236623   5.785   1.354   2.840  2.2312 -0.1347  1.2860
 5070TIP3   OH236624   0.849   6.529   2.860  0.0629  0.4335 -0.4037
 5070TIP3    H136625   0.811   6.605   2.816 -1.7630 -0.9585 -1.3491
 5070TIP3    H236626   0.775   6.470   2.875  1.5598 -1.6205 -0.6764
 5071TIP3   OH236627   4.015   0.363   1.315 -0.0905 -0.3586  0.2482
 5071TIP3    H136628   3.928   0.359   1.354  0.0618  1.3556  0.8201
 5071TIP3    H236629   4.044   0.453   1.328  1.0376 -0.4035 -1.5363
 5072TIP3   OH236630   0.078   4.812  12.031 -0.4737 -0.3607  0.7302
 5072TIP3    H136631   0.130   4.891  12.046 -1.6862  0.6092  0.0206
 5072TIP3    H236632   0.093   4.790  11.939 -2.0393  0.5359  0.2127
 5073TIP3   OH236633   1.017   5.676   0.488 -0.0108 -0.4266 -0.6355
 5073TIP3    H136634   1.066   5.596   0.508 -0.6641 -1.0862 -1.5719
 5073TIP3    H236635   0.937   5.645   0.446 -1.1655  0.6382  0.7022
 5074TIP3   OH236636   4.492   2.866   2.080 -0.7032  0.6726  0.2969
 5074TIP3    H136637   4.412   2.822   2.108  0.0702 -0.1587  1.2933
 5074TIP3    H236638   4.538   2.886   2.161  0.6159  0.1116 -0.2754
 5075TIP3   OH236639   2.081   3.819  16.740 -0.0457 -0.7191 -0.4627
 5075TIP3    H136640   2.103   3.897  16.688 -0.9085  0.7140  1.2060
 5075TIP3    H236641   2.162   3.768  16.741  1.7707  1.9582  1.3829
 5076TIP3   OH236642   4.999   1.410   4.430 -0.3778 -0.7131  0.2637
 5076TIP3    H136643   4.982   1.328   4.385 -1.3213  0.5078 -1.7536
 5076TIP3    H236644   4.912   1.447   4.446  0.0384  0.3135  0.2689
 5077TIP3   OH236645   4.974   3.480  12.672  0.0410  0.2462 -0.4830
 5077TIP3    H136646   4.955   3.455  12.762  0.2911  1.1441 -0.1691
 5077TIP3    H236647   5.038   3.415  12.642 -1.4629 -1.1956 -0.6689
 5078TIP3   OH236648   6.001   3.315   5.757  0.5506  0.2356  0.4594
 5078TIP3    H136649   5.974   3.296   5.847  0.2881  0.8594  0.5147
 5078TIP3    H236650   5.989   3.409   5.747 -1.0242 -0.0544 -0.7550
 5079TIP3   OH236651   0.994   3.617  11.997  0.2336  0.2006  0.5315
 5079TIP3    H136652   0.934   3.553  12.035  0.4143  0.4693  1.2856
 5079TIP3    H236653   1.079   3.598  12.037  0.8763 -0.7388 -1.1767
 5080TIP3   OH236654   0.429   1.701   1.911  0.2156 -0.2326 -0.0364
 5080TIP3    H136655   0.381   1.637   1.963  2.5892 -0.0065  2.6999
 5080TIP3    H236656   0.468   1.650   1.840  1.2132 -1.7278  1.4975
 5081TIP3   OH236657   5.323   5.220  13.725 -0.0900  0.2300  0.0258
 5081TIP3    H136658   5.412   5.238  13.695 -0.3326  1.3941 -0.0454
 5081TIP3    H236659   5.333   5.153  13.792  0.4543 -2.9345 -2.9587
 5082TIP3   OH236660   3.789   3.937   4.967  0.2545 -0.1975 -0.1138
 5082TIP3    H136661   3.706   3.910   5.008  0.6965  0.0776  0.9816
 5082TIP3    H236662   3.831   3.993   5.032  0.6199  0.9078 -1.2638
 5083TIP3   OH236663   0.786   0.296   1.583  0.2573  0.4807  0.1507
 5083TIP3    H136664   0.872   0.286   1.625  0.5614  0.4693 -0.4595
 5083TIP3    H236665   0.787   0.233   1.511 -0.0376  0.8850 -0.2123
 5084TIP3   OH236666   5.512   5.103   0.587  0.3609  0.2055  0.2919
 5084TIP3    H136667   5.450   5.169   0.554  0.1773  0.3833  0.9846
 5084TIP3    H236668   5.495   5.026   0.533  2.3216  1.4282 -2.2740
 5085TIP3   OH236669   5.267   1.118   3.945 -0.1743  0.1797  0.2245
 5085TIP3    H136670   5.216   1.175   3.888 -0.9606 -1.5127 -0.8289
 5085TIP3    H236671   5.206   1.050   3.972  1.0153 -0.7911  0.5713
 5086TIP3   OH236672   4.547   4.575   5.828  0.5141  0.2995  0.1387
 5086TIP3    H136673   4.511   4.629   5.759 -0.0242  0.6914  0.7141
 5086TIP3    H236674   4.471   4.533   5.868  0.2323  3.3005  3.2439
 5087TIP3   OH236675   3.586   5.392  11.769 -0.5027 -0.5441  0.4061
 5087TIP3    H136676   3.533   5.456  11.723  0.0080 -0.3927  0.0160
 5087TIP3    H236677   3.557   5.307  11.733 -0.9221 -0.5075  0.6583
 5088TIP3   OH236678   5.865   3.694   5.135 -0.4493 -0.1683 -0.1360
 5088TIP3    H136679   5.822   3.676   5.051 -0.5096  1.4367 -0.4748
 5088TIP3    H236680   5.799   3.742   5.186 -0.1038 -0.3706  0.5126
 5089TIP3   OH236681   5.587   6.665   0.475 -0.0602  0.2335 -0.5824
 5089TIP3    H136682   5.639   6.680   0.396  0.9671 -1.1802 -0.2155
 5089TIP3    H236683   5.519   6.604   0.447  0.3078 -0.2731 -0.3841
 5090TIP3   OH236684   3.895   2.712   1.663  0.3613 -0.0684  0.7847
 5090TIP3    H136685   3.905   2.619   1.686  2.2725  0.0380  0.5741
 5090TIP3    H236686   3.802   2.730   1.674  0.3317 -1.3761  3.2006
 5091TIP3   OH236687   4.154   0.462  11.427  0.3035 -0.2107 -0.3121
 5091TIP3    H136688   4.064   0.493  11.432 -0.1295 -1.4443 -0.2064
 5091TIP3    H236689   4.199   0.526  11.372 -0.6811  0.3013 -0.5336
 5092TIP3   OH236690   0.864   5.175   4.336 -0.3604 -0.2655  0.0001
 5092TIP3    H136691   0.877   5.189   4.430 -0.2395  1.0254 -0.1943
 5092TIP3    H236692   0.776   5.209   4.319 -0.4308 -0.6136 -0.3348
 5093TIP3   OH236693   0.026   3.281  13.722 -0.1657  0.2343  0.0848
 5093TIP3    H136694  -0.004   3.257  13.635 -0.0975  0.3910  0.0172
 5093TIP3    H236695   0.036   3.376  13.719  0.1048  0.2122  0.1779
 5094TIP3   OH236696   5.206   6.113   3.422  0.4052  0.0010  0.0651
 5094TIP3    H136697   5.235   6.065   3.344  0.3245  0.0408  0.0103
 5094TIP3    H236698   5.267   6.187   3.429  1.3872 -0.8631  0.9375
 5095TIP3   OH236699   4.631   1.335  13.758 -0.2201 -0.0139 -0.1617
 5095TIP3    H136700   4.662   1.272  13.823 -2.3014 -1.2071 -0.2371
 5095TIP3    H236701   4.574   1.394  13.807 -1.0909 -0.3788 -0.7126
 5096TIP3   OH236702   1.730   0.499   6.247 -0.7189  0.6706 -0.2267
 5096TIP3    H136703   1.759   0.425   6.299 -1.6625 -0.5681 -1.3918
 5096TIP3    H236704   1.797   0.566   6.260  0.2281 -0.4331  0.7326
 5097TIP3   OH236705   1.611   3.112   5.604 -0.4322  0.0511 -0.1394
 5097TIP3    H136706   1.604   3.027   5.561  0.9810 -0.5067  0.6457
 5097TIP3    H236707   1.636   3.172   5.533  3.2159 -1.0935 -0.0651
 5098TIP3   OH236708   3.727   2.165   6.367 -0.0650  0.4423  0.1503
 5098TIP3    H136709   3.808   2.208   6.393  1.0544 -1.2397 -0.3996
 5098TIP3    H236710   3.658   2.226   6.393  1.3697  2.0036  0.4538
 5099TIP3   OH236711   2.643   2.259  17.182  0.1629 -0.0414  0.4975
 5099TIP3    H136712   2.584   2.195  17.142 -0.2941  0.5061  0.2768
 5099TIP3    H236713   2.698   2.289  17.110 -1.7912  2.2264 -0.2182
 5100TIP3   OH236714   5.325   2.967   4.290 -0.0370 -0.3849 -0.4275
 5100TIP3    H136715   5.376   2.965   4.209 -0.1026  0.3506 -0.4928
 5100TIP3    H236716   5.373   2.910   4.350 -0.0605 -1.0542 -1.0181
 5101TIP3   OH236717   0.091   4.523   6.263  0.1535 -0.1679 -0.0691
 5101TIP3    H136718   0.099   4.470   6.184  0.0488 -0.2547 -0.0224
 5101TIP3    H236719   0.173   4.508   6.310  1.4181  2.0233 -1.4446
 5102TIP3   OH236720   5.044   3.799   2.568 -0.1132 -0.4892 -0.0954
 5102TIP3    H136721   5.128   3.776   2.529  0.2888  0.3900  0.2133
 5102TIP3    H236722   5.025   3.886   2.533 -1.1700 -0.8966 -0.5868
 5103TIP3   OH236723   6.233   0.261  11.182 -0.5127 -0.9053 -0.1166
 5103TIP3    H136724   6.226   0.351  11.213  0.1910 -1.4349  1.6640
 5103TIP3    H236725   6.307   0.262  11.121 -0.9495 -0.1653 -0.6579
 5104TIP3   OH236726   1.633   5.376  16.261 -0.2209  0.1190  0.2055
 5104TIP3    H136727   1.569   5.447  16.268 -1.9395 -1.3436  0.1290
 5104TIP3    H236728   1.685   5.383  16.341 -1.0227  0.8465  0.6841
 5105TIP3   OH236729   4.195   4.979  12.913  0.5072  0.0408  0.5177
 5105TIP3    H136730   4.274   5.026  12.941  1.1360 -0.6299 -0.0860
 5105TIP3    H236731   4.144   5.044  12.866  1.6170  0.0242 -0.7709
 5106TIP3   OH236732   6.306   1.279  13.226  0.1691 -0.0095 -0.0853
 5106TIP3    H136733   6.214   1.253  13.228  0.2209 -0.2741 -0.8073
 5106TIP3    H236734   6.314   1.347  13.293 -0.7850  0.8020 -0.7685
 5107TIP3   OH236735   1.605   1.361  12.985 -0.4271 -0.0547  0.1844
 5107TIP3    H136736   1.636   1.412  13.060 -0.5189  0.9197 -0.4137
 5107TIP3    H236737   1.664   1.387  12.914 -0.5085 -0.7668 -0.1487
 5108TIP3   OH236738   1.245   5.946  12.361  0.2628  0.2207 -0.1648
 5108TIP3    H136739   1.218   5.897  12.439  0.1557  2.2460  1.1706
 5108TIP3    H236740   1.314   6.004  12.392  1.8718 -0.5111 -2.1563
 5109TIP3   OH236741   3.108   4.766  12.467  0.0685  0.3174  0.0941
 5109TIP3    H136742   3.048   4.837  12.489  0.6104  0.8958 -0.2737
 5109TIP3    H236743   3.055   4.706  12.413 -0.4972  0.2399  0.7251
 5110TIP3   OH236744   2.161   0.022   1.900 -0.2647 -0.1357 -0.3979
 5110TIP3    H136745   2.128   0.009   1.811 -3.5214 -2.1544  0.8956
 5110TIP3    H236746   2.103   0.088   1.937  2.2595  2.1477 -0.1794
 5111TIP3   OH236747   3.744   4.142  15.801  0.3844  0.2584  0.5375
 5111TIP3    H136748   3.652   4.126  15.821  1.0405 -0.5902  3.1927
 5111TIP3    H236749   3.782   4.055  15.787  0.8971  0.5799 -0.1885
 5112TIP3   OH236750   6.268   3.385  11.757  0.1037  0.3127 -0.1086
 5112TIP3    H136751   6.280   3.445  11.830  1.2870  2.9840 -2.3380
 5112TIP3    H236752   6.357   3.368  11.725 -0.2217 -2.3795  0.1378
 5113TIP3   OH236753   3.792   5.912  10.409 -0.2578  0.0885  0.4366
 5113TIP3    H136754   3.873   5.921  10.359 -0.3537 -1.7078 -0.1290
 5113TIP3    H236755   3.800   5.827  10.452 -2.2356 -0.5797 -0.4019
 5114TIP3   OH236756   5.773   5.214   3.113 -0.0426 -0.0852  0.2482
 5114TIP3    H136757   5.863   5.244   3.116 -0.4158  1.0486  0.5760
 5114TIP3    H236758   5.731   5.266   3.045  0.0112 -2.0103 -1.3480
 5115TIP3   OH236759   4.702   6.519   4.649  0.4494  0.4396  0.3697
 5115TIP3    H136760   4.663   6.466   4.718 -0.2208 -0.7524 -0.8888
 5115TIP3    H236761   4.722   6.457   4.578  4.3030  0.9954  0.7301
 5116TIP3   OH236762   4.272   2.480  13.799 -0.2529 -0.1914  0.2474
 5116TIP3    H136763   4.232   2.396  13.777 -0.0011 -0.6245  1.3859
 5116TIP3    H236764   4.222   2.511  13.875 -1.0704  1.2402 -0.8232
 5117TIP3   OH236765   5.305   6.783  14.535  0.0126  0.1055  0.1779
 5117TIP3    H136766   5.259   6.729  14.471  1.7185  0.5127 -1.4804
 5117TIP3    H236767   5.374   6.827  14.485  0.3367  1.8049  1.9754
 5118TIP3   OH236768   3.267   3.634  13.810  0.5506  1.1617 -0.2861
 5118TIP3    H136769   3.286   3.708  13.753 -2.1411  1.3940 -0.9937
 5118TIP3    H236770   3.175   3.647  13.836  0.8709 -0.4189  1.8760
 5119TIP3   OH236771   5.834   4.951   0.983  0.1801 -0.3863  0.4197
 5119TIP3    H136772   5.892   4.877   0.970 -0.8917 -0.8683 -2.1020
 5119TIP3    H236773   5.864   5.017   0.921 -1.0022 -0.0724  0.1477
 5120TIP3   OH236774   1.225   5.751   3.038  0.6605 -0.2088  0.2825
 5120TIP3    H136775   1.269   5.763   3.122 -0.1311 -1.3237  0.8728
 5120TIP3    H236776   1.284   5.695   2.987  1.6684  1.3609 -0.3603
 5121TIP3   OH236777   5.519   4.828   4.025 -0.2323  0.2793  0.0104
 5121TIP3    H136778   5.528   4.739   4.059  1.3607  0.8288  1.1342
 5121TIP3    H236779   5.597   4.841   3.971 -0.2743  1.1192  0.1349
 5122TIP3   OH236780   1.334   0.669   0.463  0.0814 -0.6999  0.3183
 5122TIP3    H136781   1.423   0.641   0.482 -0.0093 -2.1065 -1.0402
 5122TIP3    H236782   1.288   0.588   0.439 -1.1870  0.1635 -0.3290
 5123TIP3   OH236783   3.068   4.063  11.961  0.2983  0.4055  0.0954
 5123TIP3    H136784   2.993   4.034  11.910  1.0724 -0.9275 -0.3301
 5123TIP3    H236785   3.081   4.154  11.935 -0.8854  0.5252 -0.1463
 5124TIP3   OH236786   3.133   6.339   6.287  0.2235 -0.4775 -0.9128
 5124TIP3    H136787   3.065   6.276   6.312 -0.3837 -0.1952 -1.7882
 5124TIP3    H236788   3.164   6.375   6.370  1.0270 -2.3721 -0.3574
 5125TIP3   OH236789   4.745   3.155   2.086  0.4729  0.0032  0.4681
 5125TIP3    H136790   4.792   3.071   2.083  1.4663  0.5579 -1.7225
 5125TIP3    H236791   4.691   3.154   2.007 -0.3398  0.9931  0.9875
 5126TIP3   OH236792   2.418   6.111   6.034  0.3508  0.6184  0.1995
 5126TIP3    H136793   2.388   6.190   6.079 -1.6938 -0.7320  1.3737
 5126TIP3    H236794   2.365   6.041   6.071  1.6704 -1.2419 -1.2394
 5127TIP3   OH236795   3.393   1.631  10.659 -0.1303  0.3303 -0.0099
 5127TIP3    H136796   3.381   1.725  10.649  1.9273  0.6503  0.0888
 5127TIP3    H236797   3.409   1.619  10.753  0.0143 -0.0557 -0.0806
 5128TIP3   OH236798   5.791   6.058   1.202 -0.0815 -0.4330 -0.4472
 5128TIP3    H136799   5.732   6.023   1.269 -0.7043  2.0272  0.3716
 5128TIP3    H236800   5.878   6.054   1.242 -0.0263 -1.5918 -0.6347
 5129TIP3   OH236801   3.164   0.859   0.315 -0.5242  0.0950 -0.1650
 5129TIP3    H136802   3.244   0.910   0.322  0.6212 -1.7891  1.1818
 5129TIP3    H236803   3.176   0.805   0.237  0.1162 -1.0986  0.7280
 5130TIP3   OH236804   5.457   5.876  15.185  0.4098 -0.0821  0.2979
 5130TIP3    H136805   5.528   5.812  15.183  0.8642  0.3946  0.8749
 5130TIP3    H236806   5.472   5.927  15.265  0.4561  1.1762 -0.4675
 5131TIP3   OH236807   0.422   0.059  17.021 -0.0603 -0.0143 -0.1949
 5131TIP3    H136808   0.474   0.037  17.098  0.0645  0.4086 -0.1537
 5131TIP3    H236809   0.486   0.084  16.955 -0.1362 -0.9101 -0.6193
 5132TIP3   OH236810   6.505   3.919   1.567 -0.6229  0.1158 -0.1247
 5132TIP3    H136811   6.585   3.909   1.618  0.5011  0.5560 -1.7515
 5132TIP3    H236812   6.468   3.831   1.562  1.3231 -0.6845 -1.7987
 5133TIP3   OH236813   6.137   3.177  16.869  0.4007  0.3685 -0.5198
 5133TIP3    H136814   6.133   3.086  16.842  1.0055  0.4663 -0.9588
 5133TIP3    H236815   6.051   3.213  16.846 -0.4278 -0.4759  1.1292
 5134TIP3   OH236816   3.365   5.337   1.215  0.7273  0.5079 -0.3954
 5134TIP3    H136817   3.383   5.426   1.183  2.8026 -0.0412 -0.8641
 5134TIP3    H236818   3.364   5.346   1.310  0.9072  1.0407 -0.4362
 5135TIP3   OH236819   4.242   1.552  16.504 -0.0060  0.8004 -0.1679
 5135TIP3    H136820   4.284   1.495  16.439  0.0712 -1.1611  1.5139
 5135TIP3    H236821   4.278   1.639  16.486  0.8557  0.1223 -2.0095
 5136TIP3   OH236822   1.441   0.095   2.488 -0.6434  0.4844  0.4235
 5136TIP3    H136823   1.353   0.101   2.448 -0.2662  1.6467 -0.2982
 5136TIP3    H236824   1.500   0.089   2.413  0.0906  2.7940  0.7322
 5137TIP3   OH236825   2.933   1.971  10.783 -0.6130 -0.0765 -0.1922
 5137TIP3    H136826   2.967   1.914  10.714  0.4583 -1.2457  1.2386
 5137TIP3    H236827   2.998   2.042  10.789 -0.5613 -0.1247 -0.1858
 5138TIP3   OH236828   2.465   1.951  11.186 -0.6948 -0.4768  0.3234
 5138TIP3    H136829   2.516   2.032  11.183 -0.2891 -0.7160  0.6736
 5138TIP3    H236830   2.427   1.950  11.274 -1.8562  0.0271 -0.1522
 5139TIP3   OH236831   0.231   5.282  16.428 -0.1419  0.0395 -0.6308
 5139TIP3    H136832   0.326   5.290  16.426 -0.1336 -0.1333 -1.7964
 5139TIP3    H236833   0.203   5.345  16.494  0.6908  1.1449 -1.2909
 5140TIP3   OH236834   5.153   6.336  14.498 -0.3792 -0.0868  0.0440
 5140TIP3    H136835   5.232   6.295  14.534 -0.3022 -0.1097 -0.1534
 5140TIP3    H236836   5.181   6.423  14.470 -0.4203 -0.1018 -0.0434
 5141TIP3   OH236837   2.561   1.118   4.509 -0.3706 -0.2915  0.1010
 5141TIP3    H136838   2.541   1.163   4.427 -0.7414  0.9610  0.8473
 5141TIP3    H236839   2.656   1.127   4.518  0.0887 -2.7136 -1.4371
 5142TIP3   OH236840   0.811   2.522  11.267  0.4682  0.0478 -0.7616
 5142TIP3    H136841   0.858   2.481  11.194  0.4128 -1.1658 -0.1335
 5142TIP3    H236842   0.727   2.547  11.231  0.0257 -1.5067 -0.8801
 5143TIP3   OH236843   2.964   3.472  11.214 -0.5536 -0.4435 -0.0749
 5143TIP3    H136844   2.913   3.395  11.240  1.7063 -2.1446 -0.4083
 5143TIP3    H236845   3.016   3.442  11.140  2.2174  0.6396  1.3054
 5144TIP3   OH236846   0.556   4.675  15.237  0.4026 -0.0472  0.6203
 5144TIP3    H136847   0.583   4.627  15.159 -1.9634 -1.3422  0.4995
 5144TIP3    H236848   0.572   4.615  15.310 -0.5014 -0.1753  0.7227
 5145TIP3   OH236849   5.339   3.170   3.719  0.2021  0.5885 -0.1888
 5145TIP3    H136850   5.392   3.231   3.769  0.2501  1.1968 -0.9646
 5145TIP3    H236851   5.328   3.094   3.777  1.2368  0.7809  0.2799
 5146TIP3   OH236852   2.678   6.213   5.059 -0.1089  0.0213 -0.2195
 5146TIP3    H136853   2.767   6.243   5.037 -0.1557  0.5140  0.2388
 5146TIP3    H236854   2.624   6.292   5.055  0.0050  0.3073  2.2570
 5147TIP3   OH236855   0.396   1.756   4.311 -0.2425 -0.4337 -0.3399
 5147TIP3    H136856   0.403   1.831   4.370  0.5982 -0.9256  0.1993
 5147TIP3    H236857   0.464   1.771   4.245  0.6210 -1.2044  0.3418
 5148TIP3   OH236858   6.585   6.517  12.646 -0.0494  0.2784 -0.3752
 5148TIP3    H136859   6.520   6.450  12.667  1.2727 -1.2106 -0.8163
 5148TIP3    H236860   6.533   6.594  12.622 -1.6209 -0.5552  0.2139
 5149TIP3   OH236861   2.612   1.692   2.637 -0.2808 -0.5057 -0.3524
 5149TIP3    H136862   2.624   1.604   2.602  1.1003 -0.8458  0.8615
 5149TIP3    H236863   2.518   1.699   2.651 -0.5364 -1.3749 -1.4905
 5150TIP3   OH236864   4.199   6.012   5.583 -0.1895 -0.1127 -0.3664
 5150TIP3    H136865   4.146   5.945   5.541  0.3034 -1.5280  1.1925
 5150TIP3    H236866   4.156   6.095   5.560 -2.1220 -1.0941 -0.4748
 5151TIP3   OH236867   1.451   1.643   1.623 -0.2218 -0.0393 -0.3305
 5151TIP3    H136868   1.519   1.577   1.612  1.2048  1.4094 -0.5310
 5151TIP3    H236869   1.371   1.601   1.592  0.2779 -2.2630  1.1745
 5152TIP3   OH236870   0.821   0.241  16.947 -0.7447 -0.0112  0.0589
 5152TIP3    H136871   0.870   0.317  16.978 -0.9687  0.5696 -0.9878
 5152TIP3    H236872   0.885   0.170  16.946 -0.1894  0.4843 -0.2571
 5153TIP3   OH236873   3.095   1.061  15.437  0.0779 -0.6449  0.2161
 5153TIP3    H136874   3.053   1.117  15.502 -0.3999 -0.4992 -0.2075
 5153TIP3    H236875   3.062   1.093  15.353  1.0335 -0.5487 -0.1254
 5154TIP3   OH236876   0.034   6.574  13.973 -0.4283 -0.7583 -0.1984
 5154TIP3    H136877   0.064   6.618  13.894  0.0660 -1.8351 -0.6288
 5154TIP3    H236878   0.028   6.643  14.039 -1.8610  0.3573 -1.4361
 5155TIP3   OH236879   6.014   6.167  13.500 -0.1907 -0.1953  0.1820
 5155TIP3    H136880   6.106   6.180  13.523 -0.2328 -0.9159  0.7841
 5155TIP3    H236881   5.968   6.240  13.542 -0.2396 -1.3757  2.3137
 5156TIP3   OH236882   5.642   1.317   2.062  0.3942 -0.3445  0.3475
 5156TIP3    H136883   5.727   1.274   2.075  0.4226 -0.5068 -0.3440
 5156TIP3    H236884   5.639   1.336   1.968 -0.7228 -1.1701  0.2019
 5157TIP3   OH236885   3.655   3.762   5.608 -0.7544  0.6936 -0.6380
 5157TIP3    H136886   3.702   3.680   5.620  0.0545  1.2503  0.1366
 5157TIP3    H236887   3.665   3.783   5.515  1.0240  1.0725 -0.3909
 5158TIP3   OH236888   6.784   0.806  16.415  0.0404  0.3990  0.4467
 5158TIP3    H136889   6.781   0.850  16.500  1.3437 -0.9329  1.2166
 5158TIP3    H236890   6.804   0.877  16.353 -0.9339  1.3849  1.2041
 5159TIP3   OH236891   0.826   4.072  16.571 -0.4491  0.2013  0.1241
 5159TIP3    H136892   0.760   4.049  16.637  0.6039 -0.0140  1.1467
 5159TIP3    H236893   0.778   4.073  16.488 -1.8669  0.6941  0.9094
 5160TIP3   OH236894   3.760   1.336   4.771  0.3163 -0.0982 -0.4531
 5160TIP3    H136895   3.723   1.404   4.827  1.0235 -1.2552  1.5217
 5160TIP3    H236896   3.701   1.332   4.696 -0.6139  1.5932  0.1365
 5161TIP3   OH236897   2.705   0.596  12.746 -0.6609 -0.3142  0.7778
 5161TIP3    H136898   2.688   0.665  12.811  0.2785 -0.7717  1.5428
 5161TIP3    H236899   2.800   0.594  12.739 -0.5779 -2.4104  1.7814
 5162TIP3   OH236900   1.682   3.549   4.990  0.4287 -0.1270 -0.1974
 5162TIP3    H136901   1.758   3.491   4.988  0.7348  0.1207  2.0155
 5162TIP3    H236902   1.717   3.634   5.017 -0.2129  0.8267 -2.1506
 5163TIP3   OH236903   3.047   5.183   2.774  0.5854  0.7065  0.4683
 5163TIP3    H136904   3.022   5.106   2.724 -1.0833  0.5186  1.5138
 5163TIP3    H236905   3.017   5.257   2.721  0.2516  0.5605  0.4495
 5164TIP3   OH236906   5.687   3.912  12.232  0.0098  0.2305 -0.1361
 5164TIP3    H136907   5.774   3.875  12.217 -0.9944 -2.2135 -0.3463
 5164TIP3    H236908   5.687   3.995  12.183  2.3679  0.5676  0.3363
 5165TIP3   OH236909   6.122   3.442   3.957 -0.2341 -0.3312  0.3798
 5165TIP3    H136910   6.197   3.466   3.904 -0.7380 -1.5254 -0.9277
 5165TIP3    H236911   6.046   3.456   3.901 -1.2766  2.6928  2.2771
 5166TIP3   OH236912   3.794   3.519   1.915 -0.1093 -0.2184 -0.9499
 5166TIP3    H136913   3.798   3.570   1.834 -1.5600  0.1075 -0.8297
 5166TIP3    H236914   3.768   3.582   1.982  2.4216 -0.1580  0.1043
 5167TIP3   OH236915   0.082   3.813   3.906  0.0567 -0.3564  0.1574
 5167TIP3    H136916   0.032   3.882   3.862  1.6703  0.3938 -0.5406
 5167TIP3    H236917   0.043   3.732   3.874  0.9549  0.1684 -2.4730
 5168TIP3   OH236918   1.317   0.909   3.047  0.3694 -0.2371 -0.8737
 5168TIP3    H136919   1.397   0.882   3.002  1.0566 -1.2359  0.8400
 5168TIP3    H236920   1.318   0.861   3.130 -0.3194  2.2160  0.6893
 5169TIP3   OH236921   6.367   4.831  11.784 -0.6452 -0.5151 -0.0313
 5169TIP3    H136922   6.377   4.882  11.704 -0.7047 -0.4296  0.0145
 5169TIP3    H236923   6.426   4.757  11.774 -1.0467 -0.7962 -0.3858
 5170TIP3   OH236924   0.579   3.562  13.585  0.1373 -0.3923 -0.0336
 5170TIP3    H136925   0.563   3.594  13.496 -0.8161  0.4510  0.4258
 5170TIP3    H236926   0.634   3.484  13.572  2.3542  1.2179 -1.2090
 5171TIP3   OH236927   4.493   0.907  16.061  0.4708  0.9091 -0.1464
 5171TIP3    H136928   4.572   0.937  16.017  1.1946  2.5922  2.1124
 5171TIP3    H236929   4.478   0.972  16.130 -2.0529 -0.1751  0.4367
 5172TIP3   OH236930   5.875   2.675   1.960 -0.0678  0.3662  1.1029
 5172TIP3    H136931   5.857   2.768   1.978 -0.4090  0.8621 -1.3324
 5172TIP3    H236932   5.968   2.665   1.980  0.2625  1.5729  0.3187
 5173TIP3   OH236933   0.395   3.211   4.224  0.5455  0.4632 -0.0977
 5173TIP3    H136934   0.409   3.120   4.249  0.9509  0.2446 -1.0821
 5173TIP3    H236935   0.309   3.212   4.183 -0.3421  0.9158  1.6889
 5174TIP3   OH236936   3.515   0.045  14.780 -0.2277 -0.1461 -0.1075
 5174TIP3    H136937   3.459  -0.026  14.811  0.8834 -1.0971 -0.1910
 5174TIP3    H236938   3.476   0.071  14.696 -3.1977  2.3763  1.8257
 5175TIP3   OH236939   0.312   6.388  11.731 -0.2627  0.3357  0.0938
 5175TIP3    H136940   0.358   6.470  11.712 -0.0599  0.6413  1.7406
 5175TIP3    H236941   0.252   6.410  11.802 -0.6061 -0.8192  0.1821
 5176TIP3   OH236942   6.656   1.354   3.717  0.3468  0.3921  0.1961
 5176TIP3    H136943   6.743   1.317   3.702  0.2947  0.4857 -0.3585
 5176TIP3    H236944   6.666   1.405   3.798  0.0851 -1.8867  1.7699
 5177TIP3   OH236945   0.340   3.323  12.602 -0.6308  0.0207  0.2554
 5177TIP3    H136946   0.378   3.352  12.519 -0.4048  0.2447  0.4334
 5177TIP3    H236947   0.404   3.261  12.638 -0.8614 -0.2928  0.1301
 5178TIP3   OH236948   0.208   4.826   1.685  0.4808 -0.2321  0.2197
 5178TIP3    H136949   0.274   4.781   1.633  1.4405  0.2843  0.9545
 5178TIP3    H236950   0.247   4.834   1.772  0.0218  1.3217  0.3162
 5179TIP3   OH236951   0.801   1.935   0.298 -0.2844  0.7552 -0.6458
 5179TIP3    H136952   0.881   1.882   0.302 -2.0890 -2.2502 -1.0678
 5179TIP3    H236953   0.765   1.932   0.387 -1.4599 -0.6502 -1.1193
 5180TIP3   OH236954   3.797   3.823  16.148 -0.4532  0.0885  0.1208
 5180TIP3    H136955   3.705   3.823  16.121 -0.2556 -3.2646 -1.0105
 5180TIP3    H236956   3.835   3.747  16.104  3.1652  1.8774 -0.2593
 5181TIP3   OH236957   6.419   4.775   1.712  0.3101 -0.4349  0.3454
 5181TIP3    H136958   6.480   4.741   1.647  0.0404 -0.1631 -0.0556
 5181TIP3    H236959   6.366   4.839   1.664 -1.2562 -1.6860  0.3203
 5182TIP3   OH236960   2.596   3.611  10.812  0.4047  0.3985 -0.0425
 5182TIP3    H136961   2.500   3.610  10.803  0.4287  0.7289 -0.3514
 5182TIP3    H236962   2.623   3.691  10.767  0.6368  1.5626  2.0511
 5183TIP3   OH236963   5.407   5.416  15.820  0.0170 -0.2507 -0.2018
 5183TIP3    H136964   5.454   5.371  15.750  0.0410 -1.6883  0.7042
 5183TIP3    H236965   5.432   5.508  15.811  2.6330 -0.8695 -0.0714
 5184TIP3   OH236966   5.630   5.958   1.398  0.2349  0.2573 -0.1162
 5184TIP3    H136967   5.646   6.040   1.443  1.5347  1.1466 -2.0465
 5184TIP3    H236968   5.570   5.910   1.455 -1.5788  3.0453  0.4903
 5185TIP3   OH236969   5.506   3.938   0.332  0.2377  0.2875 -1.1848
 5185TIP3    H136970   5.477   3.896   0.251 -0.0670 -1.3470 -0.2481
 5185TIP3    H236971   5.489   3.874   0.400  1.6975  1.1308  0.0190
 5186TIP3   OH236972   2.937   0.091  15.720  0.1639  0.0676 -0.0099
 5186TIP3    H136973   2.955   0.047  15.637 -1.3664 -0.3884 -0.1368
 5186TIP3    H236974   2.908   0.179  15.695 -1.4606 -0.4455 -0.0825
 5187TIP3   OH236975   3.722   5.161   1.130  0.5229 -0.0474  0.3411
 5187TIP3    H136976   3.766   5.146   1.213  2.2942 -1.1027 -0.7294
 5187TIP3    H236977   3.790   5.194   1.072 -0.4368 -0.2687 -0.9676
 5188TIP3   OH236978   3.315   3.032   0.444 -0.2401  0.3949 -0.0059
 5188TIP3    H136979   3.274   3.066   0.524 -0.4866 -0.5318  0.2725
 5188TIP3    H236980   3.401   3.075   0.442  0.4772 -0.8091  1.6963
 5189TIP3   OH236981   2.283   5.959  13.082 -0.4690 -0.0305  0.0893
 5189TIP3    H136982   2.277   5.879  13.029 -0.3231  0.2501 -0.3506
 5189TIP3    H236983   2.377   5.968  13.100 -0.7000 -1.6280  2.7121
 5190TIP3   OH236984   6.342   4.422   2.745 -0.7571  0.0080  0.1245
 5190TIP3    H136985   6.250   4.436   2.725 -1.1392 -0.8540  1.1420
 5190TIP3    H236986   6.343   4.399   2.838  0.4026 -0.6820 -0.0315
 5191TIP3   OH236987   4.144   2.735   4.711  0.0896  0.4173  0.5582
 5191TIP3    H136988   4.220   2.738   4.653 -0.9990 -0.5603 -0.9997
 5191TIP3    H236989   4.170   2.787   4.787  2.6284 -0.5971  0.4842
 5192TIP3   OH236990   4.469   5.041  15.455 -0.0570  0.0568 -0.4520
 5192TIP3    H136991   4.457   5.048  15.550  0.7240  2.2078 -0.4477
 5192TIP3    H236992   4.405   5.102  15.418  0.5595  0.2638 -1.2157
 5193TIP3   OH236993   2.708   4.489   2.955 -0.0767 -0.1742  0.5622
 5193TIP3    H136994   2.769   4.486   3.029  0.3918 -0.6133  0.1655
 5193TIP3    H236995   2.625   4.516   2.994  0.5562  1.2727  0.9821
 5194TIP3   OH236996   3.549   5.058  14.920  0.0584 -0.7016  0.2077
 5194TIP3    H136997   3.516   5.146  14.898  0.9285  0.1395  2.0187
 5194TIP3    H236998   3.644   5.065  14.909  0.0684 -1.6796 -0.4129
 5195TIP3   OH236999   5.796   5.166  10.546 -0.1032 -0.0448 -0.3300
 5195TIP3    H137000   5.707   5.180  10.512 -0.1991 -0.2243 -0.1526
 5195TIP3    H237001   5.831   5.095  10.492  0.1012  0.3348 -0.7076
 5196TIP3   OH237002   5.135   6.709   1.768 -0.4698 -0.0116 -0.0609
 5196TIP3    H137003   5.105   6.687   1.679 -0.2017 -2.1348  0.3084
 5196TIP3    H237004   5.055   6.716   1.819 -0.5589 -0.6784 -0.0998
 5197TIP3   OH237005   4.313   3.268  12.970  0.1387 -0.2247 -0.3252
 5197TIP3    H137006   4.373   3.340  12.988  1.0622 -1.2761  0.9912
 5197TIP3    H237007   4.262   3.297  12.894  0.2922  1.9136  0.3339
 5198TIP3   OH237008   5.437   2.473  15.907  0.0873  0.4877  0.5623
 5198TIP3    H137009   5.507   2.469  15.841 -1.5148 -3.4922 -1.2630
 5198TIP3    H237010   5.370   2.529  15.867 -1.2624 -2.5909 -1.9540
 5199TIP3   OH237011   1.549   4.849  11.265 -0.2190  0.5752  0.0682
 5199TIP3    H137012   1.577   4.851  11.173 -1.9303  1.1929 -0.4694
 5199TIP3    H237013   1.518   4.937  11.283  0.5932  0.6140  1.4408
 5200TIP3   OH237014   5.944   1.173   5.705  0.2450 -0.0015 -0.3883
 5200TIP3    H137015   5.970   1.102   5.646 -0.8108 -0.6945 -0.0398
 5200TIP3    H237016   5.913   1.242   5.646  1.9488  0.4878 -0.7657
 5201TIP3   OH237017   4.386   5.200   5.161  0.3834  0.2848  0.4478
 5201TIP3    H137018   4.393   5.242   5.075 -1.7577  0.0601  0.1176
 5201TIP3    H237019   4.335   5.121   5.145 -2.1942  1.4653  2.2581
 5202TIP3   OH237020   6.492   1.046   2.009  0.0608 -0.1435  0.0339
 5202TIP3    H137021   6.404   1.020   2.034  0.2508 -0.4672  0.3846
 5202TIP3    H237022   6.480   1.108   1.937 -0.4823  0.3859  0.5717
 5203TIP3   OH237023   5.623   1.542   2.671  0.2501 -0.2504 -0.0583
 5203TIP3    H137024   5.629   1.598   2.593  1.5312  2.3762  1.7841
 5203TIP3    H237025   5.585   1.599   2.738 -0.5833 -2.3515  1.3276
 5204TIP3   OH237026   2.518   4.640   1.090  0.7481 -0.9366  0.1415
 5204TIP3    H137027   2.562   4.563   1.126 -0.3383 -1.5361  0.1997
 5204TIP3    H237028   2.501   4.695   1.166  0.2049 -1.3108  0.2908
 5205TIP3   OH237029   5.686   6.766   0.213  0.2196  0.5864 -0.9170
 5205TIP3    H137030   5.665   6.858   0.202 -0.6251  0.4479 -0.5257
 5205TIP3    H237031   5.782   6.763   0.214  0.2535  1.5113 -0.4925
 5206TIP3   OH237032   4.644   2.596   5.870 -0.0314 -0.1055  0.2665
 5206TIP3    H137033   4.595   2.552   5.801  0.3257 -0.3599  0.1793
 5206TIP3    H237034   4.705   2.530   5.903 -1.4820 -0.5981  2.1193
 5207TIP3   OH237035   4.443   1.169   1.528  0.0397  0.3206  0.8938
 5207TIP3    H137036   4.490   1.106   1.474  2.9750  1.6250  1.7201
 5207TIP3    H237037   4.465   1.145   1.618 -2.8164 -0.3577  1.5167
 5208TIP3   OH237038   1.359   6.040   1.836 -0.4327 -0.0360  0.2586
 5208TIP3    H137039   1.421   6.002   1.899 -0.3484  1.7422  1.3339
 5208TIP3    H237040   1.273   6.013   1.868 -0.5409  2.5172  2.4832
 5209TIP3   OH237041   4.963   5.152   3.449 -0.4722 -0.2718 -0.9198
 5209TIP3    H137042   4.892   5.216   3.457 -1.4837 -1.5680  1.4976
 5209TIP3    H237043   4.919   5.072   3.421  0.1890 -0.8387 -0.3530
 5210TIP3   OH237044   6.100   5.160  13.002  0.3085 -0.0732 -0.7780
 5210TIP3    H137045   6.176   5.113  12.970 -0.0499 -0.5475 -0.9380
 5210TIP3    H237046   6.048   5.095  13.048 -0.2672  0.1288 -1.1350
 5211TIP3   OH237047   0.622   3.096   4.875  0.0577  0.1180 -0.1568
 5211TIP3    H137048   0.649   3.004   4.887  0.4780  0.4572  2.0214
 5211TIP3    H237049   0.704   3.145   4.873 -0.1612  0.4678 -1.4246
 5212TIP3   OH237050   2.227   4.420   4.981 -0.4523 -0.1430  0.5348
 5212TIP3    H137051   2.141   4.463   4.978  0.3249  1.4249 -0.3427
 5212TIP3    H237052   2.290   4.492   4.984  0.9385 -1.1743 -1.4344
 5213TIP3   OH237053   2.870   2.663  15.119  0.1933  0.0957  0.4681
 5213TIP3    H137054   2.876   2.653  15.214 -0.1327  0.4947  0.5318
 5213TIP3    H237055   2.889   2.756  15.103  0.0962  0.0629  0.1568
 5214TIP3   OH237056   0.239   3.686   5.840 -0.1047 -0.0404  0.0059
 5214TIP3    H137057   0.152   3.701   5.877 -0.1153  0.8984 -0.3849
 5214TIP3    H237058   0.271   3.609   5.887 -1.5809 -1.0967 -0.6247
 5215TIP3   OH237059   2.284   1.085   3.802 -0.0583 -0.8050 -0.3730
 5215TIP3    H137060   2.277   1.055   3.711  1.6286 -0.9372 -0.5000
 5215TIP3    H237061   2.331   1.015   3.847  0.5760 -0.0240  0.2085
 5216TIP3   OH237062   2.384   2.437   4.612  0.0240 -0.2073  0.1930
 5216TIP3    H137063   2.463   2.443   4.666 -0.2120 -3.9458  1.2419
 5216TIP3    H237064   2.411   2.471   4.527  2.3963 -0.1884  0.8700
 5217TIP3   OH237065   0.365   6.073  15.433 -0.2580 -0.2508 -0.1023
 5217TIP3    H137066   0.340   5.989  15.473 -0.8070 -0.5661 -1.0784
 5217TIP3    H237067   0.422   6.114  15.498 -0.1086 -1.3098  0.4603
 5218TIP3   OH237068   6.470   0.503   0.490  0.2868 -0.3029  0.5520
 5218TIP3    H137069   6.408   0.435   0.461  1.1462 -0.1415 -1.8681
 5218TIP3    H237070   6.415   0.566   0.537 -1.2025 -0.7975 -0.4223
 5219TIP3   OH237071   2.934   3.005   5.450  0.2566 -0.6312  0.4199
 5219TIP3    H137072   2.924   2.913   5.424  0.1537 -0.9486  1.5196
 5219TIP3    H237073   3.026   3.025   5.430  0.6073 -1.3377  1.2197
 5220TIP3   OH237074   1.063   6.266  11.706 -0.0075  0.2169 -0.0904
 5220TIP3    H137075   1.021   6.337  11.657 -1.6392  0.4115  1.4818
 5220TIP3    H237076   1.028   6.186  11.667  0.6991  0.2893 -0.8988
 5221TIP3   OH237077   0.708   6.226   1.922 -0.2775  0.5549 -0.0713
 5221TIP3    H137078   0.684   6.296   1.982 -0.6912  0.3962 -0.0498
 5221TIP3    H237079   0.790   6.192   1.956 -2.0247 -1.6426  2.2782
 5222TIP3   OH237080   6.604   5.979  11.680  1.0669  0.2296  0.1997
 5222TIP3    H137081   6.523   5.932  11.701  0.9569  0.7769  1.0463
 5222TIP3    H237082   6.600   5.991  11.585  0.4305 -0.2512  0.1594
 5223TIP3   OH237083   6.440   4.509   4.554 -0.2395 -0.0524  0.6173
 5223TIP3    H137084   6.497   4.586   4.547  1.8666 -1.5688 -0.0456
 5223TIP3    H237085   6.408   4.495   4.465 -0.0168 -0.3656  0.5858
 5224TIP3   OH237086   6.411   0.954   5.280 -0.3394 -0.9347 -0.1622
 5224TIP3    H137087   6.505   0.966   5.263 -0.3806 -0.9388 -0.4059
 5224TIP3    H237088   6.368   1.010   5.214 -0.4944 -0.1842  0.5516
 5225TIP3   OH237089   4.592   0.818  12.323  0.2404  0.2543 -0.1076
 5225TIP3    H137090   4.538   0.894  12.342  0.6793  1.0861 -1.9795
 5225TIP3    H237091   4.549   0.746  12.370 -0.7716  1.4456  0.8495
 5226TIP3   OH237092   3.678   6.662  10.739  0.3755  0.1435  0.0776
 5226TIP3    H137093   3.638   6.644  10.654  0.3343  0.8409 -0.0491
 5226TIP3    H237094   3.656   6.753  10.759  1.9716  0.5930 -0.0398
 5227TIP3   OH237095   1.238   2.616  17.069  0.2015 -0.2363 -0.0288
 5227TIP3    H137096   1.215   2.524  17.054  2.1567 -0.6302 -0.8543
 5227TIP3    H237097   1.302   2.637  17.001  1.3212  1.1318  1.3590
 5228TIP3   OH237098   4.931   6.302   5.620 -0.2529 -0.0354 -0.3740
 5228TIP3    H137099   4.932   6.214   5.583  2.3278 -0.2075 -0.0292
 5228TIP3    H237100   4.983   6.355   5.560  3.5085 -0.1816  2.3686
 5229TIP3   OH237101   0.557   1.311   0.614 -0.0225  0.4711 -0.0029
 5229TIP3    H137102   0.560   1.364   0.694 -1.6763  0.8378 -0.1483
 5229TIP3    H237103   0.527   1.371   0.546 -4.1462 -1.0181  0.2669
 5230TIP3   OH237104   3.736   1.913   2.360  0.1276 -0.0085  0.0178
 5230TIP3    H137105   3.679   1.938   2.287  1.0007  2.7150  0.1498
 5230TIP3    H237106   3.676   1.880   2.427 -0.8333 -1.1522 -1.3526
 5231TIP3   OH237107   0.346   4.081  12.523 -0.1041 -0.1978  0.7035
 5231TIP3    H137108   0.268   4.086  12.468 -0.5740  1.4487  1.4785
 5231TIP3    H237109   0.417   4.061  12.461 -1.0630 -1.4339 -0.0415
 5232TIP3   OH237110   1.696   5.811  17.002 -0.0014  0.1698 -0.0332
 5232TIP3    H137111   1.679   5.720  16.979  0.6165 -0.5479  2.1447
 5232TIP3    H237112   1.789   5.824  16.985  0.2496 -0.0911  1.0322
 5233TIP3   OH237113   4.211   5.426  15.691  0.4964  0.1366 -0.1114
 5233TIP3    H137114   4.197   5.387  15.778 -0.3043 -1.1041 -0.7665
 5233TIP3    H237115   4.130   5.472  15.671  0.5755  0.1869 -0.3226
 5234TIP3   OH237116   2.664   5.188  15.081  0.4867 -0.3931 -0.3789
 5234TIP3    H137117   2.621   5.239  15.149  1.4723  0.8471 -0.6667
 5234TIP3    H237118   2.605   5.195  15.006  0.1716 -0.4615 -0.1433
 5235TIP3   OH237119   1.064   3.223   3.904  0.2800 -0.3235  0.1137
 5235TIP3    H137120   1.079   3.130   3.886  0.5488 -0.6195  1.6990
 5235TIP3    H237121   1.150   3.264   3.892 -0.1318  0.0327 -2.0675
 5236TIP3   OH237122   6.678   6.515   5.316 -0.1455 -0.1764  0.4192
 5236TIP3    H137123   6.667   6.541   5.224 -0.4465 -0.4535  0.3739
 5236TIP3    H237124   6.729   6.434   5.311 -1.9014 -1.3345  0.3584
 5237TIP3   OH237125   1.266   2.496   1.232 -0.1029  0.0847  0.2463
 5237TIP3    H137126   1.201   2.492   1.163 -0.7859  0.9824  0.8116
 5237TIP3    H237127   1.344   2.456   1.194 -0.6393  0.0308 -0.8339
 5238TIP3   OH237128   4.455   3.704  16.594 -0.5756  0.2385 -0.2192
 5238TIP3    H137129   4.514   3.748  16.654  1.0220  0.6179 -1.9563
 5238TIP3    H237130   4.508   3.635  16.554 -1.1296  0.8609 -2.1502
 5239TIP3   OH237131   2.419   3.767   5.500  0.3687  0.4941 -0.3105
 5239TIP3    H137132   2.472   3.844   5.520  1.3542 -0.4756  1.0327
 5239TIP3    H237133   2.480   3.706   5.459 -0.3771  0.3668 -1.2710
 5240TIP3   OH237134   3.113   2.366  11.645  0.5692 -0.0823 -0.2906
 5240TIP3    H137135   3.119   2.371  11.741  0.4323  0.2634 -0.2992
 5240TIP3    H237136   3.060   2.442  11.621  1.4596  0.4127 -0.7258
 5241TIP3   OH237137   2.579   6.263  13.142 -0.0524 -0.2256 -0.6332
 5241TIP3    H137138   2.497   6.305  13.170 -1.2036 -1.9436 -1.2275
 5241TIP3    H237139   2.642   6.285  13.211 -1.7910 -1.2155  1.3711
 5242TIP3   OH237140   5.847   3.040  16.292 -0.1579 -0.1483 -0.1532
 5242TIP3    H137141   5.827   3.019  16.200  1.3021  0.1257 -0.5607
 5242TIP3    H237142   5.917   2.978  16.315 -1.2402 -0.9228  1.1236
 5243TIP3   OH237143   6.417   0.516   1.247 -0.3263  0.1371  0.1072
 5243TIP3    H137144   6.443   0.457   1.176  1.0881 -0.6529  1.2129
 5243TIP3    H237145   6.443   0.603   1.218  2.1613 -0.4241  0.4569
 5244TIP3   OH237146   3.597   5.808  13.042  0.4883  0.0710 -0.1949
 5244TIP3    H137147   3.618   5.895  13.006 -0.8384 -0.4490 -2.4434
 5244TIP3    H237148   3.613   5.748  12.969  0.2401 -1.4407  0.9504
 5245TIP3   OH237149   0.189   4.997  16.488 -0.2559  0.3934 -0.2298
 5245TIP3    H137150   0.094   5.004  16.475 -0.1356  1.6881 -0.5015
 5245TIP3    H237151   0.216   5.085  16.513  0.8651 -0.0049  0.0014
 5246TIP3   OH237152   6.232   5.244  12.281  0.0315 -0.8067  0.3684
 5246TIP3    H137153   6.271   5.330  12.264  1.3653 -1.1472  1.5255
 5246TIP3    H237154   6.154   5.263  12.332  0.3416 -0.2868  0.6610
 5247TIP3   OH237155   0.390   4.476  14.932  0.4950  0.1625  0.0333
 5247TIP3    H137156   0.379   4.437  14.846  0.8808  0.8335 -0.3263
 5247TIP3    H237157   0.331   4.552  14.932 -0.8783 -0.8525  1.0188
 5248TIP3   OH237158   6.371   1.596   6.074  0.4688  0.1619  0.0875
 5248TIP3    H137159   6.361   1.596   6.170 -0.0173  0.9215  0.0442
 5248TIP3    H237160   6.465   1.611   6.060  0.5619 -0.0749  0.4448
 5249TIP3   OH237161   4.617   4.392   1.873  0.1445  0.2962  0.1865
 5249TIP3    H137162   4.554   4.322   1.889  0.8621 -0.3656  0.1819
 5249TIP3    H237163   4.565   4.472   1.877 -1.4240 -0.3504 -3.4569
 5250TIP3   OH237164   5.213   5.035   0.545 -0.3837 -0.2658 -0.3794
 5250TIP3    H137165   5.193   4.950   0.504  0.7992 -1.1625  0.7960
 5250TIP3    H237166   5.193   5.021   0.638  0.9013  0.3707  0.0067
 5251TIP3   OH237167   5.461   1.542  16.224 -0.4870 -0.5821 -0.2929
 5251TIP3    H137168   5.428   1.455  16.204 -3.3081 -0.0412  1.5229
 5251TIP3    H237169   5.386   1.600  16.212  1.1427  1.5455 -0.8004
 5252TIP3   OH237170   3.827   6.198  12.550 -0.2736 -0.2221  0.0894
 5252TIP3    H137171   3.902   6.139  12.558  0.1541  0.5199  1.9122
 5252TIP3    H237172   3.750   6.140  12.557  0.1318 -0.7807 -0.0256
 5253TIP3   OH237173   4.557   3.527   4.198 -0.1332  0.2719 -0.3498
 5253TIP3    H137174   4.529   3.471   4.270  1.8701  0.6270  0.7724
 5253TIP3    H237175   4.604   3.468   4.139  0.2192  0.3930 -0.1924
 5254TIP3   OH237176   2.611   4.647   5.862  0.4282 -0.2210  0.0555
 5254TIP3    H137177   2.625   4.701   5.940 -0.5586  0.2953 -0.1014
 5254TIP3    H237178   2.573   4.566   5.896 -1.2101  0.5047  0.0285
 5255TIP3   OH237179   0.557   0.457  12.192  0.6571  0.4652  0.4848
 5255TIP3    H137180   0.465   0.455  12.165  0.6630 -0.6779  0.4855
 5255TIP3    H237181   0.555   0.469  12.287  0.5397  1.3424  0.3730
 5256TIP3   OH237182   5.475   2.183   5.190  1.0475 -0.1332 -0.2575
 5256TIP3    H137183   5.459   2.264   5.239  1.1255  0.0201 -0.4842
 5256TIP3    H237184   5.388   2.148   5.171  0.9841 -1.5773  2.2423
 5257TIP3   OH237185   3.450   4.992   1.822 -0.1148  0.5330  0.1158
 5257TIP3    H137186   3.401   4.910   1.808  1.9193 -0.9061  0.8725
 5257TIP3    H237187   3.427   5.018   1.911  0.7288 -0.3719  0.6272
 5258TIP3   OH237188   6.650   3.005  13.775  0.0217 -0.2452  0.0015
 5258TIP3    H137189   6.576   2.999  13.835 -0.0461 -0.1452 -0.0705
 5258TIP3    H237190   6.630   3.081  13.720  0.2214 -0.1648  0.0410
 5259TIP3   OH237191   0.682   1.474  14.164  0.3041  0.1974  0.2616
 5259TIP3    H137192   0.634   1.457  14.245  0.0025  2.2971  0.5919
 5259TIP3    H237193   0.744   1.543  14.187 -0.8929  2.0135 -1.6139
 5260TIP3   OH237194   2.897   6.592  13.368  0.6171  0.0271  0.0737
 5260TIP3    H137195   2.901   6.686  13.380 -0.6593  0.1365 -0.1973
 5260TIP3    H237196   2.931   6.577  13.280  1.5356  0.1384  0.3964
 5261TIP3   OH237197   1.740   3.943   3.695  0.0035 -0.0334 -0.1975
 5261TIP3    H137198   1.820   3.914   3.740  0.4620  0.3095 -0.7687
 5261TIP3    H237199   1.760   3.929   3.602 -0.1044  1.2645 -0.4268
 5262TIP3   OH237200   0.068   0.353   2.648 -0.3485  0.5291 -0.0793
 5262TIP3    H137201   0.118   0.434   2.641 -2.0129  1.6092  0.1280
 5262TIP3    H237202  -0.002   0.373   2.710 -0.1023 -1.4399  0.9109
 5263TIP3   OH237203   4.135   4.993   4.617 -0.3068 -0.1824  0.3302
 5263TIP3    H137204   4.203   4.966   4.555 -0.7197 -1.4615  0.4203
 5263TIP3    H237205   4.078   5.051   4.567 -0.4369 -0.9216 -0.3844
 5264TIP3   OH237206   2.906   6.336  16.231  0.6812 -0.3499  0.6988
 5264TIP3    H137207   2.815   6.308  16.219  0.5851  0.6645 -1.3030
 5264TIP3    H237208   2.948   6.315  16.148  2.0999 -0.1099  1.3377
 5265TIP3   OH237209   2.837   2.842  16.869 -0.0514 -0.0403 -0.3401
 5265TIP3    H137210   2.879   2.820  16.952  0.3561 -0.7339 -0.7164
 5265TIP3    H237211   2.898   2.810  16.803 -0.7821 -0.2961 -0.9000
 5266TIP3   OH237212   1.126   6.172  13.097  0.1296  0.0857  0.1379
 5266TIP3    H137213   1.191   6.193  13.030 -0.7565  0.1969 -0.7026
 5266TIP3    H237214   1.171   6.189  13.180  1.4166 -0.5544 -0.3999
 5267TIP3   OH237215   2.905   6.042   0.237 -0.4979 -0.3479 -0.6954
 5267TIP3    H137216   2.999   6.062   0.237 -0.0563 -1.0558  4.8747
 5267TIP3    H237217   2.863   6.123   0.208  1.7358  1.1762  0.0568
 5268TIP3   OH237218   0.411   5.460  16.653 -0.0138 -0.2248  0.4859
 5268TIP3    H137219   0.468   5.423  16.586 -0.3618 -0.1547  0.1487
 5268TIP3    H237220   0.435   5.553  16.657  0.8482 -0.4670  1.3203
 5269TIP3   OH237221   4.539   6.087  16.001  0.0123 -0.1938 -0.3864
 5269TIP3    H137222   4.590   6.150  15.950 -1.4766  0.5568 -1.0315
 5269TIP3    H237223   4.484   6.043  15.935 -0.8897 -0.2526  0.3823
 5270TIP3   OH237224   6.333   3.113  11.921  0.1898  0.0757  0.7474
 5270TIP3    H137225   6.403   3.088  11.980  0.6355 -0.5517 -0.0284
 5270TIP3    H237226   6.300   3.196  11.956 -0.6125 -1.0352  2.7764
 5271TIP3   OH237227   0.752   2.894   5.292  0.4209  0.1737  0.5000
 5271TIP3    H137228   0.700   2.852   5.223  1.8028 -4.0239  1.7005
 5271TIP3    H237229   0.690   2.909   5.363  0.1905 -1.9960  0.8164
 5272TIP3   OH237230   4.715   0.914   0.977  0.5201  0.5875  0.1451
 5272TIP3    H137231   4.743   0.990   1.029  1.7273 -0.5547  1.2441
 5272TIP3    H237232   4.687   0.849   1.042  1.0510 -0.4988 -0.6805
 5273TIP3   OH237233   2.844   2.745  12.672 -0.3227  0.4353 -0.2503
 5273TIP3    H137234   2.823   2.655  12.697  0.6530  0.1574 -0.4010
 5273TIP3    H237235   2.806   2.799  12.741 -1.9430 -0.0027 -0.7496
 5274TIP3   OH237236   1.122   6.577  13.069  0.2647 -0.6401 -0.2033
 5274TIP3    H137237   1.213   6.593  13.095  0.1901  1.7370 -1.0942
 5274TIP3    H237238   1.073   6.576  13.151  0.8804 -0.1399  0.1791
 5275TIP3   OH237239   4.882   1.044  12.544  0.0057 -0.4955  0.3799
 5275TIP3    H137240   4.945   1.010  12.480 -0.5118 -0.8534  0.0536
 5275TIP3    H237241   4.936   1.083  12.613  0.5769 -0.2537 -0.1947
 5276TIP3   OH237242   2.962   2.263  13.235 -0.2287 -0.0984  0.5205
 5276TIP3    H137243   2.968   2.179  13.190  0.6464  1.0956 -1.7085
 5276TIP3    H237244   2.878   2.299  13.208  1.4241  1.8429 -2.6405
 5277TIP3   OH237245   4.437   3.764  11.468 -0.7682 -0.1541  0.3089
 5277TIP3    H137246   4.523   3.721  11.466 -1.0905 -0.7580 -1.3254
 5277TIP3    H237247   4.457   3.853  11.497  0.2730 -0.5651  0.9456
 5278TIP3   OH237248   0.190   6.352   4.396  0.4556 -0.2122 -0.4313
 5278TIP3    H137249   0.125   6.322   4.460 -0.9306 -0.2340 -1.7893
 5278TIP3    H237250   0.273   6.349   4.443 -0.6936  1.4994  1.9631
 5279TIP3   OH237251   2.823   3.244   1.454  0.3589  0.2918 -0.0006
 5279TIP3    H137252   2.897   3.274   1.402  0.4027  0.5931  0.2311
 5279TIP3    H237253   2.824   3.300   1.531 -1.3567  1.7455 -0.9561
 5280TIP3   OH237254   6.235   1.587   0.862 -0.3534 -0.1951  0.0902
 5280TIP3    H137255   6.263   1.561   0.949 -0.1879 -1.3502 -0.2858
 5280TIP3    H237256   6.296   1.543   0.803 -1.0873 -0.2751 -0.6385
 5281TIP3   OH237257   5.149   6.480   4.804  0.3113 -0.4596 -0.7773
 5281TIP3    H137258   5.123   6.458   4.715  1.1679 -0.2748 -1.0895
 5281TIP3    H237259   5.209   6.554   4.794  0.2961 -0.3364 -0.0331
 5282TIP3   OH237260   0.911   6.627   0.200  0.0134 -0.0449  0.1722
 5282TIP3    H137261   0.930   6.539   0.231 -1.0147 -0.1135  0.6456
 5282TIP3    H237262   0.934   6.625   0.107  0.5873 -0.6205  0.3187
 5283TIP3   OH237263   4.344   6.768   4.716 -0.2224  0.4218 -0.3143
 5283TIP3    H137264   4.272   6.828   4.698 -0.3022  0.3839 -0.1307
 5283TIP3    H237265   4.359   6.777   4.810  0.5851  1.0631 -0.4930
 5284TIP3   OH237266   4.995   3.605   1.175 -0.1955 -0.1196  0.0404
 5284TIP3    H137267   4.943   3.677   1.210 -1.7293 -0.2437 -1.8326
 5284TIP3    H237268   4.930   3.541   1.146  1.0959 -2.6187  2.2255
 5285TIP3   OH237269   1.736   1.994  13.070 -0.0986 -0.3236 -0.8237
 5285TIP3    H137270   1.800   1.926  13.092  0.7759  0.0163 -2.1392
 5285TIP3    H237271   1.708   1.972  12.980 -0.7932  0.3196 -0.7771
 5286TIP3   OH237272   0.577   6.616  15.393  0.0319 -0.2962  0.8799
 5286TIP3    H137273   0.532   6.602  15.310  0.4064  0.0202  0.6206
 5286TIP3    H237274   0.605   6.708  15.391  1.0430 -0.5872  0.8540
 5287TIP3   OH237275   6.717   3.676   1.326  0.0767 -0.8630 -0.5963
 5287TIP3    H137276   6.709   3.765   1.359  0.5347 -0.7922 -0.6707
 5287TIP3    H237277   6.770   3.684   1.246 -1.1086 -1.0194 -1.4179
 5288TIP3   OH237278   2.780   6.526  15.282  0.1359 -0.2984 -0.0060
 5288TIP3    H137279   2.788   6.621  15.297 -1.1974 -0.0659 -0.5441
 5288TIP3    H237280   2.769   6.489  15.369  0.5218  0.0662  0.2012
 5289TIP3   OH237281   6.429   5.305   5.972  0.0101  0.1712  0.7414
 5289TIP3    H137282   6.491   5.320   6.043 -0.5617  0.6348  1.1555
 5289TIP3    H237283   6.388   5.391   5.957  0.3579  0.1584 -0.3816
 5290TIP3   OH237284   2.602   0.929  14.357 -0.4298  0.1222 -0.1234
 5290TIP3    H137285   2.636   1.006  14.311 -0.2770 -0.3196 -0.7566
 5290TIP3    H237286   2.540   0.890  14.295 -1.7433  0.6277  0.8070
 5291TIP3   OH237287   0.609   0.116   5.994 -0.0750 -0.3686  0.2225
 5291TIP3    H137288   0.583   0.133   6.084  1.1816 -0.8676  0.6909
 5291TIP3    H237289   0.599   0.021   5.983  1.3023 -0.5453  0.3519
 5292TIP3   OH237290   3.533   2.743   0.564  0.1332  0.7749 -0.5684
 5292TIP3    H137291   3.575   2.660   0.586  2.8353  1.8325 -1.3273
 5292TIP3    H237292   3.455   2.747   0.620  0.4877 -1.7664  0.2123
 5293TIP3   OH237293   0.576   4.504  11.228  0.2528  0.1049 -0.1012
 5293TIP3    H137294   0.632   4.522  11.303  2.2457  0.4076 -1.5783
 5293TIP3    H237295   0.492   4.546  11.249  0.9920  0.7893  1.6105
 5294TIP3   OH237296   1.625   1.312  13.584  0.4753 -0.2252  0.3945
 5294TIP3    H137297   1.629   1.385  13.646  2.8740  0.1535 -0.0784
 5294TIP3    H237298   1.617   1.234  13.639 -0.0034  0.2550  1.0239
 5295TIP3   OH237299   1.825   0.986   1.392 -0.6698 -0.0859  0.0612
 5295TIP3    H137300   1.803   1.068   1.348  0.8646  0.1898 -0.2562
 5295TIP3    H237301   1.759   0.977   1.461 -1.0606  1.2342 -0.1115
 5296TIP3   OH237302   3.981   5.682   4.333 -0.2207 -0.2253 -0.3300
 5296TIP3    H137303   4.072   5.712   4.334 -0.1925 -0.3085 -0.4339
 5296TIP3    H237304   3.960   5.672   4.241 -0.3180 -0.2575 -0.3041
 5297TIP3   OH237305   4.080   4.009   6.225 -0.4165 -0.2345 -0.2877
 5297TIP3    H137306   3.995   3.971   6.243  0.3281 -2.3713 -1.0400
 5297TIP3    H237307   4.088   4.081   6.288 -2.4271 -0.4643  0.2849
 5298TIP3   OH237308   4.732   0.115   5.100  0.1444 -0.1052  0.5188
 5298TIP3    H137309   4.722   0.137   5.192 -0.3833  0.0797  0.4166
 5298TIP3    H237310   4.682   0.034   5.089  0.4001 -0.2540  0.4454
 5299TIP3   OH237311   1.205   6.410   4.487  0.2912 -0.3176  1.0515
 5299TIP3    H137312   1.285   6.463   4.474 -0.0150 -0.0007  0.3758
 5299TIP3    H237313   1.134   6.468   4.459 -0.1028 -0.8840  0.8608
 5300TIP3   OH237314   3.686   4.793   4.915  0.0688  0.4488 -0.3034
 5300TIP3    H137315   3.665   4.749   4.997 -0.9583  0.4804 -0.5338
 5300TIP3    H237316   3.723   4.724   4.860  0.2164  0.2965 -0.0161
 5301TIP3   OH237317   6.684   1.862  10.458  0.3720  0.0722 -0.7906
 5301TIP3    H137318   6.630   1.899  10.528  0.3487  0.8229 -1.1950
 5301TIP3    H237319   6.664   1.769  10.460 -1.0913  0.3530 -1.0426
 5302TIP3   OH237320   3.897   4.422   2.049  0.0810  0.0857  0.1782
 5302TIP3    H137321   3.965   4.476   2.091 -0.7802  0.0120  1.7435
 5302TIP3    H237322   3.879   4.467   1.967  0.4499  1.3626  0.7639
 5303TIP3   OH237323   4.092   4.513  13.740  0.4442 -0.2521 -0.0329
 5303TIP3    H137324   4.078   4.560  13.658  0.4340 -1.6580 -0.8695
 5303TIP3    H237325   4.184   4.529  13.761  1.0790 -1.6667 -1.5285
 5304TIP3   OH237326   3.954   6.659   4.249 -0.5149  0.1910  0.2620
 5304TIP3    H137327   3.926   6.579   4.205  0.1811 -0.2020  0.5162
 5304TIP3    H237328   4.030   6.632   4.301  0.3740  1.2289 -0.4621
 5305TIP3   OH237329   3.245   0.929  13.713  0.2542 -0.5830  0.0416
 5305TIP3    H137330   3.330   0.972  13.720  0.6053 -1.4595  2.3589
 5305TIP3    H237331   3.257   0.861  13.647  0.6339  0.7895 -1.3313
 5306TIP3   OH237332   6.075   4.059   2.746  0.8885  0.1145  0.0001
 5306TIP3    H137333   6.109   4.076   2.834 -0.0619  1.7456  0.0988
 5306TIP3    H237334   5.997   4.006   2.761 -1.1565  3.0396  0.5071
 5307TIP3   OH237335   5.257   2.391  11.934  0.0627 -0.4923 -0.0263
 5307TIP3    H137336   5.350   2.374  11.922 -0.2252 -1.9604 -0.4360
 5307TIP3    H237337   5.253   2.478  11.972  1.4910  0.6434 -2.2379
 5308TIP3   OH237338   3.139   5.972  14.192  0.3477 -0.5907 -0.3967
 5308TIP3    H137339   3.063   5.977  14.134  2.0872 -0.3749 -2.7931
 5308TIP3    H237340   3.124   5.893  14.244 -1.9151 -0.0677 -0.1231
 5309TIP3   OH237341   5.583   6.138  14.801 -0.0001 -0.1228  0.2284
 5309TIP3    H137342   5.668   6.151  14.760  0.0262 -0.6004  0.1322
 5309TIP3    H237343   5.584   6.196  14.877  0.2170  0.2469 -0.0531
 5310TIP3   OH237344   3.993   2.389  13.127  0.3654 -0.7686 -0.8150
 5310TIP3    H137345   3.962   2.479  13.119 -3.4012 -1.7925  0.4119
 5310TIP3    H237346   4.067   2.384  13.066 -0.4922  2.5907 -2.3695
 5311TIP3   OH237347   4.809   6.666  14.381 -0.0454 -0.0814  0.5003
 5311TIP3    H137348   4.756   6.594  14.348 -0.7457 -0.0632  1.5380
 5311TIP3    H237349   4.799   6.736  14.316 -2.6679  0.5318  1.4223
 5312TIP3   OH237350   3.282   2.401   2.303  0.3560 -0.4614 -0.3785
 5312TIP3    H137351   3.295   2.335   2.372 -0.3699 -0.0449  0.1669
 5312TIP3    H237352   3.298   2.485   2.348  1.9446 -0.2694 -1.2186
 5313TIP3   OH237353   3.615   5.221   6.468 -0.1379  0.3656 -0.0904
 5313TIP3    H137354   3.572   5.178   6.394  0.7359 -0.9923  0.1442
 5313TIP3    H237355   3.705   5.234   6.439  0.0324  0.4775  0.4718
 5314TIP3   OH237356   0.677   4.674   1.479 -0.0780 -0.3090  0.1149
 5314TIP3    H137357   0.721   4.739   1.424 -1.3513  1.8311  1.4493
 5314TIP3    H237358   0.696   4.702   1.568 -0.1590 -2.1937  0.7612
 5315TIP3   OH237359   5.816   6.095  11.403  0.0804  0.0720 -0.0744
 5315TIP3    H137360   5.754   6.027  11.428 -1.0834  1.1932  0.1279
 5315TIP3    H237361   5.886   6.047  11.357 -0.2158 -1.3697  0.9111
 5316TIP3   OH237362   1.916   4.097  13.672 -0.0336  0.3290  0.1054
 5316TIP3    H137363   1.889   4.143  13.752  2.5113  0.1847  1.1242
 5316TIP3    H237364   1.845   4.034  13.656 -1.9651  2.2537  0.5760
 5317TIP3   OH237365   4.296   5.168   5.929 -0.3300  0.4755 -0.0991
 5317TIP3    H137366   4.262   5.139   6.013  0.0136  1.7167  0.5028
 5317TIP3    H237367   4.314   5.088   5.881 -2.6338 -0.2637  0.1282
 5318TIP3   OH237368   0.856   1.873  15.737  0.0494 -0.2747 -0.4365
 5318TIP3    H137369   0.913   1.946  15.762  0.4319 -0.8545  0.4411
 5318TIP3    H237370   0.787   1.873  15.803 -0.7623  0.1836 -1.2743
 5319TIP3   OH237371   2.045   2.176  13.932 -0.1026  0.0182  0.1870
 5319TIP3    H137372   2.050   2.105  13.996 -0.2303 -0.0269  0.1457
 5319TIP3    H237373   2.127   2.169  13.883  0.9088  1.2694  1.6199
 5320TIP3   OH237374   4.765   0.800   3.943  0.7730  0.2145 -0.0402
 5320TIP3    H137375   4.832   0.787   3.876 -0.8024  0.7254 -1.8103
 5320TIP3    H237376   4.755   0.714   3.983 -0.2456 -0.8922 -2.4900
 5321TIP3   OH237377   6.446   1.087   0.763 -0.4416 -0.0197  0.5601
 5321TIP3    H137378   6.438   1.106   0.857  2.3638  0.4110  0.8044
 5321TIP3    H237379   6.440   0.992   0.757  1.8010 -0.3087  1.5974
 5322TIP3   OH237380   4.220   3.168  14.712 -0.1834  0.4797  0.1366
 5322TIP3    H137381   4.223   3.078  14.746 -0.3868  0.1036 -0.8119
 5322TIP3    H237382   4.146   3.208  14.757 -1.1004 -0.3341 -0.6050
 5323TIP3   OH237383   0.428   0.957   2.202  0.1356  0.2090 -0.1750
 5323TIP3    H137384   0.406   1.046   2.173  1.9939  0.8192  0.1681
 5323TIP3    H237385   0.419   0.961   2.297  0.1082  0.0007 -0.1697
 5324TIP3   OH237386   3.685   0.724   4.095 -0.5896  0.5793 -0.2740
 5324TIP3    H137387   3.710   0.681   4.013 -0.2875  0.5102 -0.1437
 5324TIP3    H237388   3.647   0.655   4.149 -1.0333  0.6748 -0.4528
 5325TIP3   OH237389   2.082   1.767   1.640  0.7047  0.0866  0.4562
 5325TIP3    H137390   2.001   1.815   1.657 -0.0008 -1.2452  1.0309
 5325TIP3    H237391   2.083   1.756   1.545  0.8035  1.0870  0.3307
 5326TIP3   OH237392   0.062   6.482   4.943 -0.4479  0.0384 -0.0722
 5326TIP3    H137393   0.015   6.402   4.918  0.1373 -0.1428 -0.6071
 5326TIP3    H237394  -0.007   6.541   4.975 -0.9803 -0.3942 -0.4012
 5327TIP3   OH237395   2.810   3.667   6.768  0.7189 -0.2038 -0.0639
 5327TIP3    H137396   2.758   3.603   6.719  0.0957 -1.0460  1.6206
 5327TIP3    H237397   2.774   3.752   6.742  0.0797 -0.6612 -0.7029
 5328TIP3   OH237398   2.256   6.702  13.841 -0.3217 -0.5689 -0.0083
 5328TIP3    H137399   2.289   6.621  13.879  0.5083  0.2161  1.0198
 5328TIP3    H237400   2.314   6.719  13.767 -1.4324 -1.6727 -1.1804
 5329TIP3   OH237401   2.667   1.730  15.460 -0.3828 -0.8291  0.4719
 5329TIP3    H137402   2.625   1.691  15.536 -1.4623  2.0990  1.5281
 5329TIP3    H237403   2.597   1.781  15.418  1.1230  0.7790 -0.1812
 5330TIP3   OH237404   6.293   5.485   2.676 -0.4694  0.2926  0.1172
 5330TIP3    H137405   6.349   5.560   2.697 -0.1540  0.2959 -0.6984
 5330TIP3    H237406   6.312   5.421   2.745  0.1764  0.4864  0.1298
 5331TIP3   OH237407   2.250   4.468   3.729 -0.0580  0.1230 -0.3112
 5331TIP3    H137408   2.242   4.510   3.814  0.2580 -0.2196 -0.1058
 5331TIP3    H237409   2.214   4.531   3.667  1.2471  1.0878 -0.1248
 5332TIP3   OH237410   6.491   5.305   3.157 -0.0823  0.2811 -0.8341
 5332TIP3    H137411   6.481   5.213   3.181 -1.8889  1.1170  2.1925
 5332TIP3    H237412   6.585   5.316   3.141  0.1656 -2.0484 -1.3655
 5333TIP3   OH237413   1.321   5.301   5.776  0.6070 -0.9336  0.0567
 5333TIP3    H137414   1.355   5.383   5.813  1.3299 -0.6251 -1.1932
 5333TIP3    H237415   1.266   5.330   5.703  0.8386 -1.5603 -0.3705
 5334TIP3   OH237416   0.914   2.478  14.333  0.1927  0.0669 -0.5051
 5334TIP3    H137417   0.950   2.442  14.415 -1.1664  0.4230  0.2868
 5334TIP3    H237418   0.965   2.436  14.264 -0.3166 -2.2284  0.4264
 5335TIP3   OH237419   4.277   6.452   5.256 -0.0237  0.1623 -0.2349
 5335TIP3    H137420   4.182   6.456   5.268 -0.0007  1.4683 -0.3904
 5335TIP3    H237421   4.289   6.419   5.167 -0.3475  1.1143 -0.6340
 5336TIP3   OH237422   6.682   6.508   3.140  0.5807 -0.5762  0.2393
 5336TIP3    H137423   6.673   6.421   3.178  0.2442 -1.0361 -0.8348
 5336TIP3    H237424   6.620   6.508   3.067  1.2071  0.2497 -0.3109
 5337TIP3   OH237425   3.879   0.008   5.868 -0.2167  0.9559 -0.3898
 5337TIP3    H137426   3.953   0.069   5.870 -0.9283  1.8831 -1.1250
 5337TIP3    H237427   3.836   0.026   5.784 -0.7522 -0.2026 -0.3790
 5338TIP3   OH237428   4.877   5.423   5.559 -0.0038 -0.7904 -0.2783
 5338TIP3    H137429   4.830   5.438   5.642  1.4954 -0.6316  0.5821
 5338TIP3    H237430   4.926   5.343   5.574  0.3053 -0.7456 -1.0200
 5339TIP3   OH237431   3.314   1.879   5.645  0.3414  0.2322  0.4849
 5339TIP3    H137432   3.357   1.821   5.708  0.3903 -0.7897 -0.4567
 5339TIP3    H237433   3.221   1.855   5.650  0.2537  0.5953  0.6225
 5340TIP3   OH237434   1.736   2.071  16.598  0.1911 -0.3653  0.0760
 5340TIP3    H137435   1.698   1.983  16.593  0.0284 -0.4127  1.5703
 5340TIP3    H237436   1.827   2.056  16.626 -0.1012 -0.0397  1.2633
 5341TIP3   OH237437   4.310   4.634  15.217 -0.6352 -0.2938 -0.2414
 5341TIP3    H137438   4.388   4.662  15.264  0.2922 -1.8454 -0.7900
 5341TIP3    H237439   4.271   4.567  15.274 -0.7181 -0.6094 -0.6630
 5342TIP3   OH237440   1.217   3.590  12.311  0.1887  0.0022  0.7418
 5342TIP3    H137441   1.258   3.600  12.225 -1.0668 -0.8608  0.0024
 5342TIP3    H237442   1.222   3.678  12.350 -1.3484  1.0593 -1.2303
 5343TIP3   OH237443   0.948   5.067  14.554 -0.2637  0.0555  0.2869
 5343TIP3    H137444   0.913   5.083  14.641 -1.7758  2.3633 -0.6571
 5343TIP3    H237445   0.875   5.083  14.495  0.0483 -3.6437 -1.4077
 5344TIP3   OH237446   0.295   6.721   3.913  0.2637 -0.0446  0.2217
 5344TIP3    H137447   0.369   6.764   3.957 -1.7069  1.4357  2.3444
 5344TIP3    H237448   0.274   6.646   3.969 -1.4254  1.0749  1.1679
 5345TIP3   OH237449   6.341   0.136   2.014 -0.0411  0.1168 -0.5762
 5345TIP3    H137450   6.372   0.071   1.951  0.8079  1.4938 -1.6445
 5345TIP3    H237451   6.417   0.192   2.031 -0.4209  0.1471  1.2378
 5346TIP3   OH237452   1.033   1.655  16.430  0.1435  0.0416  0.0914
 5346TIP3    H137453   0.977   1.579  16.410 -1.0622 -0.1773  3.6036
 5346TIP3    H237454   1.081   1.671  16.349  0.2413 -4.2677 -0.9819
 5347TIP3   OH237455   5.193   3.632   3.170 -0.4284 -0.1620 -0.7467
 5347TIP3    H137456   5.140   3.557   3.142  1.4684 -1.5999 -0.7529
 5347TIP3    H237457   5.225   3.607   3.257  2.2375 -0.5893 -1.7363
 5348TIP3   OH237458   5.066   5.658   3.431  0.8106 -0.3124  0.2394
 5348TIP3    H137459   5.010   5.623   3.361  0.0052  1.0736  0.1444
 5348TIP3    H237460   5.026   5.625   3.512  1.6173 -1.7405  0.0934
 5349TIP3   OH237461   1.260   4.457   0.652 -0.1747 -0.2879  0.4446
 5349TIP3    H137462   1.204   4.495   0.584  0.4844 -0.3171 -0.1289
 5349TIP3    H237463   1.266   4.365   0.627  1.6830  0.0834 -0.6173
 5350TIP3   OH237464   6.174   2.107  16.405 -0.2848 -0.2202  0.0253
 5350TIP3    H137465   6.212   2.177  16.353  0.8621  0.1971  1.3633
 5350TIP3    H237466   6.241   2.039  16.406 -0.5209 -0.4521  0.4911
 5351TIP3   OH237467   1.806   3.485   2.969  0.3617  0.1074  0.0100
 5351TIP3    H137468   1.721   3.522   2.994 -0.2721 -0.2911 -1.4612
 5351TIP3    H237469   1.841   3.548   2.906 -0.8313 -1.7554 -2.7141
 5352TIP3   OH237470   1.508   2.142  12.171 -0.1634  0.3199 -0.3565
 5352TIP3    H137471   1.454   2.219  12.193 -0.2697  0.5843 -1.4956
 5352TIP3    H237472   1.452   2.089  12.114  0.1881 -0.2295 -0.1983
 5353TIP3   OH237473   4.017   1.170  15.192  0.1808 -0.1017 -0.6109
 5353TIP3    H137474   4.095   1.214  15.226 -0.7414  0.5928  0.6962
 5353TIP3    H237475   3.964   1.240  15.154  1.2033 -0.8636 -3.6876
 5354TIP3   OH237476   4.467   3.747   2.618  0.1412 -0.0647  0.1322
 5354TIP3    H137477   4.478   3.737   2.712 -0.6004 -0.4249  0.1859
 5354TIP3    H237478   4.554   3.770   2.586  1.0866 -2.6859  0.5466
 5355TIP3   OH237479   5.383   3.474  15.948 -0.1149  0.3787  0.1577
 5355TIP3    H137480   5.363   3.543  16.011  0.2262 -1.6982  2.7363
 5355TIP3    H237481   5.298   3.437  15.924 -0.3430  1.9013 -1.6335
 5356TIP3   OH237482   5.746   0.213   0.561 -0.0689  0.6070 -0.2448
 5356TIP3    H137483   5.830   0.211   0.515 -1.0817  2.3781 -2.3700
 5356TIP3    H237484   5.764   0.260   0.642  1.1820  0.0151 -0.1628
 5357TIP3   OH237485   6.016   0.863  12.253 -0.5577 -0.0072 -0.0527
 5357TIP3    H137486   6.046   0.863  12.162 -1.1841 -2.4495 -0.3213
 5357TIP3    H237487   5.921   0.868  12.247 -0.5691  0.5580  0.5074
 5358TIP3   OH237488   5.394   6.129   3.164 -0.0569 -0.1428 -0.6546
 5358TIP3    H137489   5.392   6.034   3.161 -0.8491 -0.1948  0.8702
 5358TIP3    H237490   5.488   6.151   3.161  0.1407 -0.9665 -0.7040
 5359TIP3   OH237491   6.312   3.286   3.036 -0.8665  0.2811  0.1058
 5359TIP3    H137492   6.383   3.290   3.099  0.6193 -0.6973 -1.4336
 5359TIP3    H237493   6.239   3.247   3.085  1.2353 -3.7421  0.4978
 5360TIP3   OH237494   1.675   0.040  15.446  0.0047  0.1349  0.3987
 5360TIP3    H137495   1.611  -0.011  15.396  0.0943 -2.0422  2.3225
 5360TIP3    H237496   1.759  -0.002  15.427  0.1372 -0.2485  1.7139
 5361TIP3   OH237497   4.883   3.055   4.778  0.2355 -0.2733 -0.0964
 5361TIP3    H137498   4.845   3.104   4.851 -1.8421  0.3990 -1.5399
 5361TIP3    H237499   4.908   3.122   4.714 -0.0736 -0.9382 -0.9379
 5362TIP3   OH237500   3.053   1.923   5.802  0.2089  0.1387 -0.2569
 5362TIP3    H137501   2.991   1.907   5.731 -1.5530 -0.2384  1.2993
 5362TIP3    H237502   3.003   1.906   5.882  1.9131  1.2727  1.1158
 5363TIP3   OH237503   3.910   1.953  15.017 -0.0888 -0.4594  0.6170
 5363TIP3    H137504   3.863   1.934  14.935  0.2134  0.9957  0.0848
 5363TIP3    H237505   4.000   1.928  14.998  0.4360  1.9155 -0.2974
 5364TIP3   OH237506   0.298   4.188  16.478 -0.3660  0.5605  0.5219
 5364TIP3    H137507   0.280   4.269  16.526  0.7469  0.7251  0.6996
 5364TIP3    H237508   0.254   4.200  16.394 -2.4805  0.1965  1.5147
 5365TIP3   OH237509   3.699   1.269   0.258  0.2135  0.1293  0.5966
 5365TIP3    H137510   3.767   1.330   0.228  1.0662  0.0674  2.2897
 5365TIP3    H237511   3.651   1.318   0.325 -1.0846 -0.0354 -0.1758
 5366TIP3   OH237512   0.164   1.988  11.410 -0.8142  0.1707 -0.3894
 5366TIP3    H137513   0.132   2.047  11.477 -0.7191  0.4954 -0.6271
 5366TIP3    H237514   0.176   2.043  11.333 -0.0779 -0.0219 -0.4208
 5367TIP3   OH237515   5.511   6.746  15.281  0.0427  0.3263  0.0173
 5367TIP3    H137516   5.476   6.830  15.252  0.6656  1.0553  1.2729
 5367TIP3    H237517   5.592   6.768  15.326  1.3580 -1.1798 -1.4898
 5368TIP3   OH237518   6.590   6.700   3.322  0.3835 -0.0062  0.2056
 5368TIP3    H137519   6.646   6.778   3.325 -0.1644  0.5441 -2.0312
 5368TIP3    H237520   6.630   6.644   3.256  0.2164 -1.2133  1.0953
 5369TIP3   OH237521   0.343   2.065  13.673 -0.4106 -0.0632 -0.4303
 5369TIP3    H137522   0.386   2.027  13.596  0.6910 -1.0382  0.6385
 5369TIP3    H237523   0.414   2.102  13.725 -1.3062  2.1925 -0.6938
 5370TIP3   OH237524   1.575   2.664   0.542 -0.3264  0.1204  0.2382
 5370TIP3    H137525   1.607   2.686   0.455  2.9292 -2.1662  0.7019
 5370TIP3    H237526   1.594   2.741   0.595 -1.1605  1.0354 -0.7384
 5371TIP3   OH237527   3.511   5.257   6.086  0.3488  0.5553 -0.1366
 5371TIP3    H137528   3.592   5.226   6.046 -1.0189 -0.4425 -2.2580
 5371TIP3    H237529   3.499   5.201   6.163  1.2702  0.2221 -0.2223
 5372TIP3   OH237530   0.794   0.622  16.086  0.3422  0.5093  0.5221
 5372TIP3    H137531   0.699   0.623  16.079  0.2713 -3.1980 -2.2605
 5372TIP3    H237532   0.822   0.702  16.042 -1.4649  0.8751 -0.0470
 5373TIP3   OH237533   6.550   5.298  11.435 -0.3177  0.2499  0.2782
 5373TIP3    H137534   6.609   5.354  11.485  1.6171 -1.6139  0.2446
 5373TIP3    H237535   6.536   5.222  11.492  1.0873 -1.4405 -1.4906
 5374TIP3   OH237536   2.124   6.637  15.077  0.7398 -0.3867  0.2468
 5374TIP3    H137537   2.117   6.704  15.009  4.4554  0.5222  0.5725
 5374TIP3    H237538   2.208   6.594  15.061 -0.6624 -3.8898  1.1369
 5375TIP3   OH237539   0.692   5.998  16.020  0.0260  0.1683 -0.1984
 5375TIP3    H137540   0.604   6.015  16.053  0.1366  0.3501  0.0089
 5375TIP3    H237541   0.701   5.903  16.026  0.5679  0.2864  1.7064
 5376TIP3   OH237542   3.174   6.452  13.193 -0.0760  0.6848 -0.2294
 5376TIP3    H137543   3.253   6.481  13.148  1.3568  0.9078  2.2175
 5376TIP3    H237544   3.202   6.442  13.285 -2.5422 -0.6356  0.4526
 5377TIP3   OH237545   3.155   3.736  12.786 -0.3218  0.1791 -0.3301
 5377TIP3    H137546   3.062   3.756  12.800 -0.0877 -1.0557  4.5842
 5377TIP3    H237547   3.175   3.667  12.849  3.5450 -1.1034 -2.6368
 5378TIP3   OH237548   0.921   1.636   4.545  0.6873 -0.3915  1.1132
 5378TIP3    H137549   0.839   1.619   4.592  0.8115  0.1393  1.5331
 5378TIP3    H237550   0.929   1.563   4.483 -1.5570  0.9744 -0.9810
 5379TIP3   OH237551   4.945   1.918   4.013  0.2669  0.3859  0.2493
 5379TIP3    H137552   4.856   1.942   4.037 -0.5415 -1.0778 -1.0867
 5379TIP3    H237553   4.947   1.925   3.918  1.3481 -0.3266  0.2020
 5380TIP3   OH237554   5.303   3.034  17.065  0.0018 -0.1504  0.0777
 5380TIP3    H137555   5.312   3.120  17.107  1.2532 -0.7180  1.0364
 5380TIP3    H237556   5.325   2.971  17.134  1.7420 -1.1346 -1.3119
 5381TIP3   OH237557   0.546   0.389   3.249  0.2701  0.0475  0.0988
 5381TIP3    H137558   0.486   0.462   3.261  0.8272  0.6302 -0.6088
 5381TIP3    H237559   0.633   0.426   3.261  0.5587 -0.4911 -0.2514
 5382TIP3   OH237560   5.730   2.784   4.934  0.6153  0.0616  0.0567
 5382TIP3    H137561   5.676   2.714   4.897 -0.6494  1.0901 -0.1496
 5382TIP3    H237562   5.807   2.787   4.878 -0.1389 -0.0143 -1.0282
 5383TIP3   OH237563   4.047   0.135   0.258 -0.1115  0.0725  0.2574
 5383TIP3    H137564   3.968   0.165   0.303  0.9699  2.3670  0.7656
 5383TIP3    H237565   4.088   0.075   0.319 -0.2194  0.7900  1.0494
 5384TIP3   OH237566   3.978   0.010  14.881 -0.4370 -0.2871  0.1604
 5384TIP3    H137567   4.017   0.037  14.798  0.0348 -1.7702 -0.1304
 5384TIP3    H237568   4.014  -0.077  14.897  0.5481  0.4850  2.6228
 5385TIP3   OH237569   4.112   1.648   2.454  0.2745  0.0402 -0.2123
 5385TIP3    H137570   4.196   1.605   2.446  0.4538  0.3601 -0.0693
 5385TIP3    H237571   4.133   1.737   2.484 -0.1574 -0.1129  0.5672
 5386TIP3   OH237572   4.357   4.335  13.723  0.4090  0.4427  0.1356
 5386TIP3    H137573   4.293   4.351  13.654 -0.2993  1.4759  1.0039
 5386TIP3    H237574   4.374   4.241  13.718 -0.7166  0.2516 -0.5057
 5387TIP3   OH237575   3.435   0.885   4.711 -0.1437 -0.2057 -0.7406
 5387TIP3    H137576   3.460   0.953   4.774 -0.3953  0.6241 -1.5117
 5387TIP3    H237577   3.508   0.823   4.712 -0.4639 -0.6076  0.8945
 5388TIP3   OH237578   1.678   4.678  16.267 -0.4537  0.2866  0.0643
 5388TIP3    H137579   1.718   4.614  16.326 -0.7504  0.9558  1.0217
 5388TIP3    H237580   1.641   4.745  16.326 -0.0333  1.4048 -0.9052
 5389TIP3   OH237581   6.034   3.604  11.411 -0.8527 -0.7866  0.1949
 5389TIP3    H137582   6.027   3.621  11.317  0.0162  1.0556  0.4139
 5389TIP3    H237583   6.117   3.558  11.422  0.8059  2.0040  0.3174
 5390TIP3   OH237584   2.871   5.473   4.461  0.1520  0.1448  0.4318
 5390TIP3    H137585   2.782   5.463   4.496  0.2333  0.0738  0.6201
 5390TIP3    H237586   2.861   5.458   4.367  0.3257 -2.2862  0.7238
 5391TIP3   OH237587   2.209   4.184  14.342  0.0988 -0.1680  0.1113
 5391TIP3    H137588   2.285   4.200  14.287 -0.7921  1.4462 -0.7262
 5391TIP3    H237589   2.164   4.110  14.301 -0.1065  0.4861 -0.8623
 5392TIP3   OH237590   1.675   2.293   3.177 -0.3118  0.3114  0.4756
 5392TIP3    H137591   1.654   2.247   3.259  0.0277  0.5261  0.6835
 5392TIP3    H237592   1.633   2.240   3.109 -1.3602  0.6271  0.8618
 5393TIP3   OH237593   1.510   0.647   2.314  0.0733 -0.4800 -0.4735
 5393TIP3    H137594   1.605   0.654   2.322 -0.1124  1.9427  0.6216
 5393TIP3    H237595   1.484   0.589   2.386  0.7537 -1.7493 -1.2271
 5394TIP3   OH237596   0.376   6.061  14.258 -0.1128 -0.0507 -0.2542
 5394TIP3    H137597   0.387   6.155  14.273  1.7568 -0.1086 -1.0045
 5394TIP3    H237598   0.347   6.026  14.343  0.0394  1.0653  0.2704
 5395TIP3   OH237599   0.530   5.055  15.734  0.0833  0.3553  0.2822
 5395TIP3    H137600   0.528   4.989  15.803 -1.7559 -0.2807 -0.3299
 5395TIP3    H237601   0.601   5.027  15.676 -1.3897 -1.8049 -0.5974
 5396TIP3   OH237602   3.237   3.779  10.993  0.2524  0.2121 -0.0170
 5396TIP3    H137603   3.326   3.803  11.016  0.0265 -0.5960  1.8285
 5396TIP3    H237604   3.186   3.793  11.072 -1.1512  0.0256 -0.8442
 5397TIP3   OH237605   3.628   3.974   1.552  0.2357 -0.0405  0.0801
 5397TIP3    H137606   3.608   4.066   1.533 -0.2759 -0.3466 -0.9909
 5397TIP3    H237607   3.678   3.945   1.476 -0.6323 -0.9513 -0.1685
 5398TIP3   OH237608   5.759   3.242  12.527  0.6310 -0.1986 -0.8059
 5398TIP3    H137609   5.834   3.298  12.547  2.0125 -2.9554  2.9110
 5398TIP3    H237610   5.709   3.239  12.608 -1.8792 -0.8671 -2.2680
 5399TIP3   OH237611   6.604   4.444  11.343  0.4331 -0.3144 -0.6211
 5399TIP3    H137612   6.613   4.539  11.357 -2.3137  0.1569 -1.3944
 5399TIP3    H237613   6.610   4.406  11.430 -1.1220  0.8929  0.0560
 5400TIP3   OH237614   5.423   2.268   0.905 -0.0233 -0.0255  0.5268
 5400TIP3    H137615   5.496   2.266   0.844 -0.1129  1.1158  0.3611
 5400TIP3    H237616   5.345   2.256   0.850 -0.1286  1.3379  0.3460
 5401TIP3   OH237617   4.438   6.677  15.892 -0.5428  0.4119 -0.2427
 5401TIP3    H137618   4.456   6.623  15.970 -0.8534  1.0242  0.2651
 5401TIP3    H237619   4.363   6.730  15.917  1.7343  3.5252  0.5391
 5402TIP3   OH237620   2.213   6.568  14.145  0.2024 -0.1070  0.1488
 5402TIP3    H137621   2.230   6.656  14.111 -1.5151  1.0156  1.9746
 5402TIP3    H237622   2.205   6.513  14.067 -0.2683  1.6717 -1.1181
 5403TIP3   OH237623   5.127   4.980   3.290 -0.6343 -0.0518  0.1055
 5403TIP3    H137624   5.094   5.065   3.317 -0.5439  0.0056  0.0355
 5403TIP3    H237625   5.216   4.997   3.258 -0.8771 -0.0545 -0.5874
 5404TIP3   OH237626   6.030   3.924  10.616 -0.6488 -0.2622 -0.4256
 5404TIP3    H137627   6.007   3.988  10.549 -0.9149 -0.6723 -0.7204
 5404TIP3    H237628   6.065   3.978  10.688 -2.3291  0.3780 -0.0195
 5405TIP3   OH237629   3.637   5.672   2.624 -0.7025 -0.4125 -0.1662
 5405TIP3    H137630   3.584   5.693   2.701 -0.6420 -0.2973 -0.1558
 5405TIP3    H237631   3.648   5.577   2.628  0.4553 -0.2579  0.7241
 5406TIP3   OH237632   3.295   2.650   3.836  0.0193  0.0396 -0.4103
 5406TIP3    H137633   3.280   2.701   3.756 -1.3163 -1.5697 -1.2567
 5406TIP3    H237634   3.334   2.712   3.897 -1.6859  2.1440 -1.3162
 5407TIP3   OH237635   2.342   2.903  13.168  0.1560  0.8238  0.2128
 5407TIP3    H137636   2.342   2.836  13.236  0.0542  1.8788  1.2689
 5407TIP3    H237637   2.250   2.922  13.152  0.0564 -1.0305 -1.8920
 5408TIP3   OH237638   1.228   5.659  11.546 -0.4996  0.1199  0.4234
 5408TIP3    H137639   1.249   5.703  11.463 -1.4881  0.0758  0.1344
 5408TIP3    H237640   1.282   5.703  11.611  0.2182  0.2235 -0.2295
 5409TIP3   OH237641   2.537   2.249  15.915  0.1840  0.5406 -0.3723
 5409TIP3    H137642   2.508   2.248  15.824  0.7354  1.4379 -0.5687
 5409TIP3    H237643   2.468   2.296  15.962  0.0302  0.3122 -0.3660
 5410TIP3   OH237644   2.861   5.312  16.216 -0.0498  0.3141  0.5937
 5410TIP3    H137645   2.765   5.311  16.212 -0.0230  0.9096 -0.4352
 5410TIP3    H237646   2.884   5.405  16.207  0.6215  0.1717  0.8353
 5411TIP3   OH237647   2.492   0.662   6.124 -0.2052 -0.0823 -0.8916
 5411TIP3    H137648   2.452   0.715   6.055  0.7492  1.3047 -0.4268
 5411TIP3    H237649   2.571   0.626   6.084  0.0238  0.2198 -0.7173
 5412TIP3   OH237650   1.110   6.356  13.484 -0.5098 -0.3308 -0.3891
 5412TIP3    H137651   1.020   6.356  13.450 -0.3585 -3.5346 -1.0462
 5412TIP3    H237652   1.100   6.329  13.576 -0.3061  1.4040  0.1966
 5413TIP3   OH237653   4.076   6.228  12.768 -0.0577 -0.0109 -0.3788
 5413TIP3    H137654   4.167   6.254  12.753  0.1487 -1.2906 -1.5893
 5413TIP3    H237655   4.069   6.142  12.727 -1.5259 -0.4406  0.6939
 5414TIP3   OH237656   6.475   2.625   5.555  0.1487 -0.0178  0.3885
 5414TIP3    H137657   6.517   2.552   5.510 -0.4174 -0.9814  1.3729
 5414TIP3    H237658   6.385   2.595   5.569 -0.4109  1.3302 -0.1818
 5415TIP3   OH237659   6.394   4.549  16.529 -0.1791 -0.0720 -0.3942
 5415TIP3    H137660   6.454   4.614  16.491  0.2220  1.2318  2.2483
 5415TIP3    H237661   6.425   4.465  16.494  1.1909  0.8561 -1.5470
 5416TIP3   OH237662   1.254   6.282   0.264  0.2877 -0.8704  0.2174
 5416TIP3    H137663   1.195   6.267   0.338 -1.9602  3.7901 -0.2654
 5416TIP3    H237664   1.325   6.335   0.301 -0.6309  1.1236 -0.6879
 5417TIP3   OH237665   1.738   3.237   0.571 -0.4798  0.4420 -0.2709
 5417TIP3    H137666   1.812   3.178   0.584  0.1723  0.2350 -3.8036
 5417TIP3    H237667   1.679   3.218   0.645  2.1304 -0.6515  1.6765
 5418TIP3   OH237668   0.290   6.757   5.324 -0.2309  0.3044 -0.4610
 5418TIP3    H137669   0.308   6.687   5.386 -0.1961 -0.1727 -0.9943
 5418TIP3    H237670   0.198   6.779   5.339 -0.1074  0.4775  0.0371
 5419TIP3   OH237671   4.097   2.908   3.471 -0.3845  0.1523  0.0706
 5419TIP3    H137672   4.029   2.883   3.532  0.6513  2.2508  2.2704
 5419TIP3    H237673   4.077   2.860   3.391 -3.8990  0.0227  0.8834
 5420TIP3   OH237674   6.316   5.916  11.346  0.0254  0.4376  0.2920
 5420TIP3    H137675   6.222   5.924  11.332 -0.1173  3.7453  2.0149
 5420TIP3    H237676   6.355   5.971  11.278  0.9363 -2.0711 -1.3564
 5421TIP3   OH237677   2.867   6.051  16.118  0.4792  0.0246 -0.3412
 5421TIP3    H137678   2.841   6.091  16.035  0.9193 -0.0238 -0.5078
 5421TIP3    H237679   2.931   5.985  16.093  1.2441  0.5785  0.1104
 5422TIP3   OH237680   1.346   3.311   3.853  0.1100  0.3332  0.2054
 5422TIP3    H137681   1.431   3.281   3.886  0.7363  1.9213  0.1622
 5422TIP3    H237682   1.354   3.307   3.758 -0.2248 -0.4105  0.2010
 5423TIP3   OH237683   6.548   2.975  12.508 -0.4682 -0.4212  0.2172
 5423TIP3    H137684   6.568   3.050  12.564 -0.3242  0.4043 -0.9057
 5423TIP3    H237685   6.605   2.986  12.432 -1.5109 -0.8552 -0.6557
 5424TIP3   OH237686   6.293   0.497   2.708 -0.8308 -0.0719 -0.8545
 5424TIP3    H137687   6.274   0.492   2.802  0.4624 -2.0061 -0.6350
 5424TIP3    H237688   6.371   0.443   2.697 -0.3736  0.9362 -2.9171
 5425TIP3   OH237689   0.624   4.322   2.713 -0.4230  0.1370 -0.1463
 5425TIP3    H137690   0.536   4.360   2.714 -1.2978 -1.7545 -0.9755
 5425TIP3    H237691   0.630   4.272   2.794  0.5198  1.5209  0.6767
 5426TIP3   OH237692   4.890   2.923   2.106 -0.1597  1.0354 -0.0356
 5426TIP3    H137693   4.919   2.837   2.076 -0.4668  1.3232 -1.2101
 5426TIP3    H237694   4.969   2.977   2.105  0.1677  0.6089  1.3558
 5427TIP3   OH237695   6.106   0.737   5.412 -0.0241 -0.1282  0.6143
 5427TIP3    H137696   6.163   0.733   5.335 -0.5476  1.3832  0.0991
 5427TIP3    H237697   6.023   0.770   5.378 -1.1948 -2.1123  1.3747
 5428TIP3   OH237698   4.768   4.689  16.736 -0.2150 -0.4441 -0.1387
 5428TIP3    H137699   4.704   4.632  16.778 -1.5432  1.3764  0.4665
 5428TIP3    H237700   4.763   4.771  16.785  0.5013  0.7146 -1.8790
 5429TIP3   OH237701   6.605   1.552   3.961  0.2934 -0.8218 -0.3568
 5429TIP3    H137702   6.681   1.508   3.998  0.2760  0.4785  1.3266
 5429TIP3    H237703   6.553   1.579   4.037 -1.7101 -1.3733 -1.4324
 5430TIP3   OH237704   4.698   0.274   3.255 -0.3688  0.4359 -0.8809
 5430TIP3    H137705   4.618   0.328   3.252 -0.8283 -0.0559  0.9995
 5430TIP3    H237706   4.763   0.331   3.297 -1.0419 -0.5846  1.7352
 5431TIP3   OH237707   0.474   5.834   4.572  0.4747  0.5476 -0.1842
 5431TIP3    H137708   0.556   5.829   4.523  0.4893  1.4055 -0.2533
 5431TIP3    H237709   0.418   5.893   4.521 -0.6770 -1.0311 -0.8251
 5432TIP3   OH237710   0.629   5.862   1.585  0.1462  0.4474 -0.7002
 5432TIP3    H137711   0.713   5.849   1.630 -0.4268  2.1863  1.0329
 5432TIP3    H237712   0.651   5.857   1.492  2.1960  0.8405 -0.2979
 5433TIP3   OH237713   0.609   0.923  14.035  0.2007  0.0381  0.2681
 5433TIP3    H137714   0.647   0.968  14.110  1.6626  1.8760 -1.4507
 5433TIP3    H237715   0.680   0.867  14.003 -0.3993 -0.7184  0.2425
 5434TIP3   OH237716   6.775   6.650   0.996  0.0643  0.3373  0.2496
 5434TIP3    H137717   6.827   6.633   0.917  0.9523 -0.8785  1.0666
 5434TIP3    H237718   6.685   6.655   0.964  0.6318  2.6296 -1.2119
 5435TIP3   OH237719   1.340   4.380   2.536 -0.2439  0.3272  0.4163
 5435TIP3    H137720   1.261   4.423   2.566 -1.2413 -1.3347  0.3011
 5435TIP3    H237721   1.351   4.409   2.445 -0.5661  0.7753  0.5205
 5436TIP3   OH237722   0.781   6.317   5.401  0.2371 -0.1518 -0.2202
 5436TIP3    H137723   0.827   6.376   5.460  0.9973 -1.0471  0.1043
 5436TIP3    H237724   0.811   6.229   5.425 -1.3733 -0.7484 -0.2387
 5437TIP3   OH237725   0.986   3.864  13.378 -0.2395 -0.9436  0.1454
 5437TIP3    H137726   0.986   3.770  13.397  0.1949 -1.1789 -0.9930
 5437TIP3    H237727   1.044   3.901  13.444  0.3760 -1.6034 -0.0154
 5438TIP3   OH237728   0.016   5.883   2.041 -0.8663  0.4302 -0.2386
 5438TIP3    H137729  -0.048   5.879   1.969  0.7790 -0.6261 -1.7199
 5438TIP3    H237730   0.058   5.797   2.040  1.5143  1.5144 -0.2526
 5439TIP3   OH237731   0.045   1.106   0.563  0.3842 -0.3413 -0.6815
 5439TIP3    H137732   0.135   1.086   0.538 -0.0582 -3.9998  0.1200
 5439TIP3    H237733   0.053   1.146   0.650  1.2388 -1.0378 -0.4247
 5440TIP3   OH237734   2.227   1.076  15.580 -0.4700 -0.1061 -0.3710
 5440TIP3    H137735   2.139   1.113  15.582 -0.0984  0.8796  2.4752
 5440TIP3    H237736   2.217   0.987  15.614 -0.3443  0.1341  0.3108
 5441TIP3   OH237737   3.603   0.319   0.802  0.3090  0.3604  0.6128
 5441TIP3    H137738   3.675   0.283   0.854 -1.0661  0.4640  2.7198
 5441TIP3    H237739   3.583   0.403   0.843  0.2115  1.2198 -1.1313
 5442TIP3   OH237740   0.340   0.103   3.074  0.1546 -0.3520 -0.2148
 5442TIP3    H137741   0.256   0.120   3.116 -0.4943 -3.3824 -0.0917
 5442TIP3    H237742   0.394   0.064   3.143  0.9657 -0.2901 -0.8048
 5443TIP3   OH237743   5.100   1.563  14.368 -0.6854  0.5587 -0.3356
 5443TIP3    H137744   5.070   1.651  14.391  1.3714  1.2094  0.0050
 5443TIP3    H237745   5.034   1.505  14.407 -0.5101  1.8402  2.1165
 5444TIP3   OH237746   2.869   5.258  15.397 -0.5941 -0.3630  0.0413
 5444TIP3    H137747   2.780   5.287  15.414 -0.5831  0.5139 -1.3040
 5444TIP3    H237748   2.886   5.283  15.306  0.6938 -1.3655 -0.0165
 5445TIP3   OH237749   3.661   0.589  14.812  0.1975 -0.7625 -0.3671
 5445TIP3    H137750   3.726   0.518  14.819  1.5226  0.4902  0.6028
 5445TIP3    H237751   3.691   0.641  14.737 -0.1945 -0.6678 -0.4572
 5446TIP3   OH237752   5.233   5.123   5.105  0.4020  0.3012 -0.5441
 5446TIP3    H137753   5.267   5.038   5.133 -0.9328  0.0941  0.5388
 5446TIP3    H237754   5.237   5.120   5.009 -1.8291 -1.9673 -0.6586
 5447TIP3   OH237755   5.407   3.730  16.536  0.0255 -0.1531 -0.2480
 5447TIP3    H137756   5.311   3.737  16.531  0.0395 -0.6396 -1.7717
 5447TIP3    H237757   5.438   3.820  16.527 -0.2950  0.1869  1.6602
 5448TIP3   OH237758   6.154   1.765  12.747  0.0018 -0.1233  0.2096
 5448TIP3    H137759   6.239   1.721  12.743  1.2088  2.1896 -0.9419
 5448TIP3    H237760   6.159   1.820  12.825  0.7807  2.2264 -1.3949
 5449TIP3   OH237761   4.913   4.023   5.545 -0.5955  0.4174 -1.1752
 5449TIP3    H137762   4.913   3.993   5.636  1.1821 -2.2065 -1.9215
 5449TIP3    H237763   4.848   3.967   5.501  0.4740 -0.2184 -1.9985
 5450TIP3   OH237764   1.054   6.528   4.241 -0.8957  0.2089  0.6431
 5450TIP3    H137765   0.983   6.463   4.242 -0.1991 -0.5897 -0.2688
 5450TIP3    H237766   1.040   6.577   4.160  0.2220 -0.6996 -0.1332
 5451TIP3   OH237767   1.166   2.184  14.192  0.7926  0.1781 -0.4564
 5451TIP3    H137768   1.193   2.276  14.188 -0.8773  0.6316 -3.4909
 5451TIP3    H237769   1.087   2.179  14.139  1.3439 -3.2017 -1.1829
 5452TIP3   OH237770   1.223   3.851  16.149  0.3188 -0.1340 -0.4949
 5452TIP3    H137771   1.185   3.790  16.212  0.7983  0.1010  0.0303
 5452TIP3    H237772   1.184   3.935  16.171 -1.2398 -0.4055 -1.9539
 5453TIP3   OH237773   4.697   5.794   0.808 -0.3120 -0.3328  0.3101
 5453TIP3    H137774   4.625   5.857   0.805 -0.8200 -0.8920  0.4357
 5453TIP3    H237775   4.764   5.836   0.862 -0.8133 -0.0712  0.7329
 5454TIP3   OH237776   3.893   4.761   3.711 -0.0415 -0.1978  0.1187
 5454TIP3    H137777   3.890   4.856   3.701  0.7617 -0.1115  0.5930
 5454TIP3    H237778   3.832   4.728   3.645 -1.9683  0.7166  1.3633
 5455TIP3   OH237779   5.912   6.317   1.637  0.1249 -0.4336  0.4552
 5455TIP3    H137780   5.983   6.303   1.699 -0.4972 -1.5887  0.9333
 5455TIP3    H237781   5.924   6.407   1.606 -0.1991  0.6104  3.1076
 5456TIP3   OH237782   2.996   5.603   2.927 -0.3061 -0.0423  0.4205
 5456TIP3    H137783   2.978   5.685   2.973  1.3339  0.8253 -0.4201
 5456TIP3    H237784   2.912   5.580   2.886 -1.1231  0.4832  1.7318
 5457TIP3   OH237785   2.562   0.446  14.942  0.4102 -0.0887  0.5307
 5457TIP3    H137786   2.596   0.368  14.899  0.2877 -0.3610  0.9176
 5457TIP3    H237787   2.476   0.461  14.902  0.4598 -0.1190  0.4150
 5458TIP3   OH237788   1.848   3.803  13.286 -0.5693 -0.2598 -0.1073
 5458TIP3    H137789   1.864   3.775  13.196  0.6414 -2.2876  0.6729
 5458TIP3    H237790   1.777   3.867  13.279 -0.0520  0.1492 -2.5441
 5459TIP3   OH237791   5.788   1.799   4.070  0.2558  0.3867  0.5357
 5459TIP3    H137792   5.877   1.804   4.035  0.7946  1.6413  1.9653
 5459TIP3    H237793   5.794   1.842   4.155 -1.8945  1.2290  0.3149
 5460TIP3   OH237794   4.396   1.828  14.803 -0.2056 -0.2384  0.4399
 5460TIP3    H137795   4.465   1.893  14.814 -0.2917 -0.1444  0.4279
 5460TIP3    H237796   4.390   1.786  14.889 -0.0584 -0.3226  0.4101
 5461TIP3   OH237797   5.331   4.189   2.760 -0.1764  0.5136  0.1226
 5461TIP3    H137798   5.381   4.128   2.706  0.0940 -1.6895  2.6132
 5461TIP3    H237799   5.396   4.230   2.817 -0.7792  0.4220  0.8932
 5462TIP3   OH237800   5.520   5.988   4.031 -0.0363 -0.5758 -0.3809
 5462TIP3    H137801   5.605   6.027   4.010 -0.7781  0.8483 -0.8530
 5462TIP3    H237802   5.542   5.901   4.066  1.4592 -1.4712 -3.2264
 5463TIP3   OH237803   2.170   1.058  15.135 -0.2847  0.5285  0.2788
 5463TIP3    H137804   2.172   1.150  15.162  0.4216  0.6401 -0.1410
 5463TIP3    H237805   2.258   1.040  15.103 -0.2057 -0.5100  1.0321
 5464TIP3   OH237806   2.655   5.533  12.749 -0.1523 -0.5778 -0.7473
 5464TIP3    H137807   2.563   5.539  12.774 -0.7051 -2.8849 -1.9163
 5464TIP3    H237808   2.696   5.485  12.822  0.4234  1.4087  0.3001
 5465TIP3   OH237809   4.152   1.926   5.321 -0.5078 -0.1034  0.3414
 5465TIP3    H137810   4.133   1.912   5.228  0.3202 -1.4278  0.3519
 5465TIP3    H237811   4.127   2.017   5.337  4.1012  2.0067 -2.4206
 5466TIP3   OH237812   3.524   5.721   1.309  0.2815  0.6645 -0.1907
 5466TIP3    H137813   3.548   5.700   1.219 -1.2863  1.2015 -0.7811
 5466TIP3    H237814   3.583   5.670   1.363 -0.2303 -1.4770 -1.5478
 5467TIP3   OH237815   0.838   6.525   3.935  0.3843  0.0973  0.0304
 5467TIP3    H137816   0.890   6.479   3.869 -1.5256  0.0834 -1.5561
 5467TIP3    H237817   0.792   6.456   3.983  0.9785  0.1619  0.7107
 5468TIP3   OH237818   6.058   5.426  10.903  0.0879  0.5779 -0.2403
 5468TIP3    H137819   5.975   5.449  10.945 -1.4440  0.6203 -3.0412
 5468TIP3    H237820   6.108   5.507  10.902 -0.9034  1.2027 -0.7030
 5469TIP3   OH237821   4.863   6.400   3.818 -0.0276  0.2692  0.6354
 5469TIP3    H137822   4.843   6.465   3.751 -0.0049 -0.3417  0.0395
 5469TIP3    H237823   4.950   6.426   3.850 -0.3011  0.9254  0.8838
 5470TIP3   OH237824   6.510   1.177  17.084  0.3529 -0.0171  0.0753
 5470TIP3    H137825   6.549   1.262  17.064 -0.4163  0.9187  2.1935
 5470TIP3    H237826   6.452   1.160  17.010  0.3420  1.4209 -0.2907
 5471TIP3   OH237827   2.838   6.305   0.308  0.0310  0.0965 -0.0290
 5471TIP3    H137828   2.812   6.242   0.375  0.0078 -0.2209 -0.3369
 5471TIP3    H237829   2.761   6.361   0.296  0.4230  0.9306  1.0791
 5472TIP3   OH237830   1.281   3.510   5.971  0.2332 -0.0279  0.2971
 5472TIP3    H137831   1.351   3.575   5.960 -1.0321  1.2574 -0.5728
 5472TIP3    H237832   1.212   3.539   5.911 -1.1758 -1.0741  1.3457
 5473TIP3   OH237833   2.894   0.521  14.921 -0.0478 -0.3825 -0.3277
 5473TIP3    H137834   2.905   0.504  14.827  1.9184  0.7567 -0.3493
 5473TIP3    H237835   2.879   0.435  14.959  2.1258 -1.2637 -1.3252
 5474TIP3   OH237836   0.214   0.834  14.560  0.1350  0.7090 -0.2009
 5474TIP3    H137837   0.303   0.868  14.563 -0.2930  2.0595 -1.2655
 5474TIP3    H237838   0.223   0.743  14.532  1.2421  0.4003  1.1130
 5475TIP3   OH237839   6.093   1.016  11.822 -0.2322  0.0235 -0.3816
 5475TIP3    H137840   6.031   1.041  11.754 -1.8671 -0.3674  0.8902
 5475TIP3    H237841   6.146   1.094  11.837 -1.4315  0.8731 -0.4618
 5476TIP3   OH237842   5.060   4.773  12.459 -0.3457  0.2842  0.1690
 5476TIP3    H137843   5.013   4.692  12.479 -0.4084 -0.1561 -1.5792
 5476TIP3    H237844   5.041   4.830  12.533 -0.5515 -1.1830  1.2968
 5477TIP3   OH237845   6.433   0.674   4.613  0.1836  0.2343  0.6542
 5477TIP3    H137846   6.389   0.721   4.542 -1.0269 -1.5283  0.1424
 5477TIP3    H237847   6.450   0.740   4.680 -0.9780  1.4653 -0.2125
 5478TIP3   OH237848   2.787   3.723   5.693 -0.1648  0.2585  0.4902
 5478TIP3    H137849   2.857   3.684   5.744  1.4423 -0.0877 -1.8035
 5478TIP3    H237850   2.768   3.659   5.624 -0.5825  1.6220 -0.7267
 5479TIP3   OH237851   0.725   0.949   5.055  0.3248 -0.1972  0.5600
 5479TIP3    H137852   0.773   1.029   5.075 -1.0089  0.3492  1.8112
 5479TIP3    H237853   0.711   0.952   4.960  1.1531  0.5373  0.4544
 5480TIP3   OH237854   3.393   3.415   6.268 -0.2521  0.1748 -0.5286
 5480TIP3    H137855   3.484   3.436   6.292 -0.5627  0.2908  0.6440
 5480TIP3    H237856   3.363   3.359   6.340 -1.8113  1.9653  0.3020
 5481TIP3   OH237857   1.618   4.698   0.541 -0.4635 -0.4556  0.2285
 5481TIP3    H137858   1.645   4.622   0.490  0.0511  0.0480 -0.2617
 5481TIP3    H237859   1.700   4.736   0.572 -0.7106 -0.0236  0.3544
 5482TIP3   OH237860   6.519   5.295   3.428  0.4615  0.1192 -0.3092
 5482TIP3    H137861   6.521   5.369   3.489 -0.7856 -0.6723  0.7427
 5482TIP3    H237862   6.482   5.332   3.347 -0.5832  0.5680  0.3480
 5483TIP3   OH237863   1.548   3.844  11.370 -0.0131  0.0693  0.3583
 5483TIP3    H137864   1.620   3.810  11.423 -0.2822 -1.8917 -0.4672
 5483TIP3    H237865   1.589   3.872  11.288  0.1417  1.4315  0.8663
 5484TIP3   OH237866   3.384   4.175   0.932 -0.1632 -0.0901 -0.6982
 5484TIP3    H137867   3.473   4.209   0.942 -0.1265  0.5250 -2.7407
 5484TIP3    H237868   3.338   4.205   1.010  1.2126  0.2376  0.0207
 5485TIP3   OH237869   1.532   5.885   2.020  0.5440  0.0947 -0.0900
 5485TIP3    H137870   1.611   5.851   2.062  2.2101  1.3703 -1.9732
 5485TIP3    H237871   1.479   5.920   2.092  1.2876 -1.5000  1.2904
 5486TIP3   OH237872   6.564   3.884  13.486  1.1161  0.0552  0.5866
 5486TIP3    H137873   6.556   3.829  13.564  2.3074  0.9012  1.3471
 5486TIP3    H237874   6.571   3.822  13.414  0.1522 -0.7518  1.1569
 5487TIP3   OH237875   0.384   2.030  13.121 -0.1373 -0.1224  0.2631
 5487TIP3    H137876   0.445   1.964  13.155  1.9280  1.3069 -0.4630
 5487TIP3    H237877   0.328   1.982  13.060  1.7758 -1.1497 -0.8041
 5488TIP3   OH237878   3.703   3.534   3.401  0.8583 -0.1107  0.6504
 5488TIP3    H137879   3.717   3.440   3.416 -1.6555 -0.5241  1.0051
 5488TIP3    H237880   3.744   3.551   3.316  2.3527 -1.2477  1.1091
 5489TIP3   OH237881   5.554   3.436   0.919  0.1216 -0.3917  0.3114
 5489TIP3    H137882   5.461   3.450   0.933  0.0075 -1.2603  0.4836
 5489TIP3    H237883   5.578   3.499   0.851 -0.6732 -0.4081  0.0087
 5490TIP3   OH237884   0.640   6.296   5.170  0.1545 -0.2235  0.7214
 5490TIP3    H137885   0.689   6.325   5.248  1.2596 -0.6952  0.2259
 5490TIP3    H237886   0.642   6.201   5.175  0.9077 -0.2757 -0.2747
 5491TIP3   OH237887   5.799   2.533  13.686  0.0812 -0.6849  0.0993
 5491TIP3    H137888   5.754   2.453  13.658 -0.9225 -0.1772  0.2265
 5491TIP3    H237889   5.883   2.502  13.719 -0.4725 -1.7358  0.5772
 5492TIP3   OH237890   3.201   6.367   3.068 -0.8757  0.2601 -0.5485
 5492TIP3    H137891   3.130   6.367   3.004 -2.2074 -0.0665  0.9007
 5492TIP3    H237892   3.166   6.323   3.144  1.1943 -0.7719 -0.1039
 5493TIP3   OH237893   2.850   2.863  14.357 -0.6110 -0.1329  0.2192
 5493TIP3    H137894   2.905   2.902  14.289  0.5646  0.9386  1.7170
 5493TIP3    H237895   2.868   2.769  14.352  0.3816  0.0681 -0.1668
 5494TIP3   OH237896   2.751   3.008  14.012 -0.1594 -0.1589 -0.3049
 5494TIP3    H137897   2.787   3.063  13.943 -1.8235  0.0911 -1.0414
 5494TIP3    H237898   2.825   2.988  14.069  0.5827  2.5140 -0.2157
 5495TIP3   OH237899   1.897   6.184  17.103 -0.0800  0.6837  0.0953
 5495TIP3    H137900   1.881   6.103  17.056  2.2132  1.1845 -1.7076
 5495TIP3    H237901   1.889   6.160  17.196  0.9399 -1.7039 -0.3682
 5496TIP3   OH237902   1.358   0.652   5.558 -0.0859  0.5796  0.2381
 5496TIP3    H137903   1.377   0.576   5.613 -1.6435 -0.3650 -0.4755
 5496TIP3    H237904   1.315   0.616   5.480  0.1306  2.0932 -0.6277
 5497TIP3   OH237905   2.612   4.191   0.904 -0.0288  0.6318  0.7954
 5497TIP3    H137906   2.654   4.258   0.958  0.0278  0.6122  0.7763
 5497TIP3    H237907   2.519   4.197   0.925  0.2437 -0.9771  2.6793
 5498TIP3   OH237908   5.727   4.728  15.744  0.2272 -0.0952  0.1838
 5498TIP3    H137909   5.713   4.634  15.736  1.6512 -0.2870 -0.2368
 5498TIP3    H237910   5.699   4.749  15.833 -1.2303 -0.6808 -0.1146
 5499TIP3   OH237911   0.503   2.938  14.689  0.2512  0.0181 -0.0911
 5499TIP3    H137912   0.463   2.861  14.730  0.6952 -0.0996  0.1291
 5499TIP3    H237913   0.552   2.979  14.760  0.6634  0.0618 -0.3980
 5500TIP3   OH237914   4.173   6.537  16.504 -0.0615  0.4692 -0.1902
 5500TIP3    H137915   4.131   6.497  16.581 -0.7962  0.0286 -0.8078
 5500TIP3    H237916   4.101   6.556  16.444  0.6724 -1.0673 -1.6335
 5501TIP3   OH237917   1.451   5.148  15.009 -0.4141 -0.7634 -0.4695
 5501TIP3    H137918   1.529   5.181  14.966 -0.2392  0.0112  0.4080
 5501TIP3    H237919   1.395   5.225  15.020 -0.7831 -1.0917 -0.0185
 5502TIP3   OH237920   2.811   5.559   2.546 -0.6590  0.3098  0.6379
 5502TIP3    H137921   2.884   5.619   2.538 -0.3374  0.2301  2.5213
 5502TIP3    H237922   2.747   5.590   2.482  1.0653  0.2564 -1.1896
 5503TIP3   OH237923   5.395   5.760  12.877 -0.3273  0.2878  0.6292
 5503TIP3    H137924   5.422   5.783  12.788 -0.3411 -2.3999 -0.1560
 5503TIP3    H237925   5.312   5.805  12.890 -1.2868 -0.7468 -1.4822
 5504TIP3   OH237926   5.327   6.244   4.889 -0.0776 -0.0037  0.8778
 5504TIP3    H137927   5.279   6.167   4.859 -0.6453 -0.8093  3.5534
 5504TIP3    H237928   5.272   6.318   4.862 -0.1961 -0.6013 -0.5725
 5505TIP3   OH237929   4.656   1.992   3.721 -0.2660  0.1756  0.5025
 5505TIP3    H137930   4.636   2.033   3.806  1.6292  0.5552  0.8021
 5505TIP3    H237931   4.744   1.957   3.732 -1.0060 -2.1424 -0.4719
 5506TIP3   OH237932   3.403   2.979  13.776 -0.5840  1.2648 -0.4195
 5506TIP3    H137933   3.383   3.057  13.726 -2.2179  1.7525  0.8990
 5506TIP3    H237934   3.352   2.909  13.734 -0.0430  1.1454 -0.8864
 5507TIP3   OH237935   1.262   3.377  12.462 -0.0070 -0.0296  0.1035
 5507TIP3    H137936   1.264   3.408  12.553 -1.0531 -0.0859  0.1487
 5507TIP3    H237937   1.260   3.458  12.410 -0.2511 -0.0051  0.1521
 5508TIP3   OH237938   3.291   4.616  13.131 -0.2451 -0.1808 -0.6667
 5508TIP3    H137939   3.299   4.523  13.148  0.6336  0.2049  1.3026
 5508TIP3    H237940   3.367   4.655  13.174 -0.4485  1.4257 -1.6791
 5509TIP3   OH237941   4.931   2.251   1.256 -0.2660 -0.0015 -0.5266
 5509TIP3    H137942   4.935   2.340   1.293 -2.7115 -0.4156  1.0051
 5509TIP3    H237943   4.881   2.262   1.175  1.6679  0.3230 -1.7431
 5510TIP3   OH237944   0.701   1.031   0.971  0.2581  0.0882 -0.4871
 5510TIP3    H137945   0.750   0.997   1.046 -1.1447  1.3035  1.0716
 5510TIP3    H237946   0.756   1.101   0.936  0.1813  0.7070  0.5665
 5511TIP3   OH237947   4.738   1.513  12.058  0.0395 -0.1595 -0.8935
 5511TIP3    H137948   4.818   1.516  12.005  0.7784 -0.7548  0.1609
 5511TIP3    H237949   4.667   1.518  11.994  0.8982  1.6435 -1.7772
 5512TIP3   OH237950   5.485   2.987  16.266 -0.3887 -0.5851 -0.1788
 5512TIP3    H137951   5.429   2.982  16.344 -2.7845 -1.1011 -1.8231
 5512TIP3    H237952   5.486   3.080  16.243 -1.4438 -0.6873 -0.6963
 5513TIP3   OH237953   1.668   3.345  12.713  0.2437 -0.2795  0.1091
 5513TIP3    H137954   1.636   3.365  12.625 -0.6632  0.4348  0.5919
 5513TIP3    H237955   1.697   3.254  12.707 -0.6410 -0.5230 -0.6885
 5514TIP3   OH237956   5.634   0.407  13.187  0.3714 -0.0691 -0.2156
 5514TIP3    H137957   5.579   0.485  13.193 -0.8733 -1.0256  2.9853
 5514TIP3    H237958   5.685   0.408  13.268  1.8842 -1.4917 -1.1044
 5515TIP3   OH237959   5.130   4.964   1.955 -0.0483 -0.2464  0.6882
 5515TIP3    H137960   5.133   5.039   2.015  1.0409 -0.0536  0.4155
 5515TIP3    H237961   5.046   4.972   1.910  0.5721  1.5466 -0.2356
 5516TIP3   OH237962   4.462   6.021   4.216 -0.3715 -1.0570 -0.2312
 5516TIP3    H137963   4.452   6.085   4.145 -4.5032  0.6657  1.5588
 5516TIP3    H237964   4.419   5.942   4.182  2.0315 -1.9900 -1.3114
 5517TIP3   OH237965   0.850   5.088  13.114  0.0181 -0.0886 -0.4170
 5517TIP3    H137966   0.942   5.063  13.101  0.2829  1.2593 -1.3041
 5517TIP3    H237967   0.850   5.140  13.194  0.3212  1.2859 -1.2887
 5518TIP3   OH237968   5.358   1.135  12.515  0.2618  0.0098 -0.2566
 5518TIP3    H137969   5.356   1.224  12.551 -2.8853  0.0657 -0.2818
 5518TIP3    H237970   5.414   1.141  12.438  0.7297  1.7636  0.1797
 5519TIP3   OH237971   1.486   1.916   2.192  0.4216  0.0235  0.4391
 5519TIP3    H137972   1.546   1.841   2.197  0.5628  0.2009  2.3058
 5519TIP3    H237973   1.532   1.986   2.238 -0.0638  1.0201 -0.5537
 5520TIP3   OH237974   6.257   3.370   5.938 -0.0890  1.0107 -0.3525
 5520TIP3    H137975   6.326   3.313   5.973 -1.4935  0.1923  1.2039
 5520TIP3    H237976   6.299   3.416   5.866  1.1303 -2.0729 -1.7987
 5521TIP3   OH237977   5.089   5.231  11.323 -0.3338  0.3202 -0.8080
 5521TIP3    H137978   5.167   5.274  11.290 -0.3139  0.3363 -0.7385
 5521TIP3    H237979   5.115   5.139  11.335 -0.1846  0.4247 -0.3133
 5522TIP3   OH237980   1.166   0.077   5.803 -0.1048  0.4850 -0.2498
 5522TIP3    H137981   1.163   0.169   5.829 -0.2916  0.4188 -0.0237
 5522TIP3    H237982   1.149   0.077   5.709 -0.6885  0.6402 -0.1456
 5523TIP3   OH237983   4.016   0.416   6.166  0.0798  0.0665 -0.4065
 5523TIP3    H137984   3.978   0.469   6.236  1.8294  0.3937  0.3321
 5523TIP3    H237985   4.023   0.328   6.202  1.2048  0.2850 -0.0495
 5524TIP3   OH237986   4.660   6.718  13.581  0.3166 -0.1682 -0.2643
 5524TIP3    H137987   4.612   6.637  13.599  2.7282 -1.7060 -0.2710
 5524TIP3    H237988   4.736   6.691  13.530  0.3817  2.3686 -1.6911
 5525TIP3   OH237989   3.046   0.155   0.672  0.7138  0.4955  0.3216
 5525TIP3    H137990   3.133   0.171   0.709  0.4303  0.4781  1.0119
 5525TIP3    H237991   3.002   0.103   0.738  0.1119  0.6642  0.0538
 5526TIP3   OH237992   3.320   6.245   5.646 -0.0589  0.6086  0.2885
 5526TIP3    H137993   3.276   6.161   5.631 -0.6894  0.6490  1.7880
 5526TIP3    H237994   3.414   6.224   5.641 -0.2138 -0.0802  0.1597
 5527TIP3   OH237995   4.291   3.392  16.594 -0.3806 -0.2555 -0.3116
 5527TIP3    H137996   4.297   3.302  16.627  0.9456 -0.0604  0.0428
 5527TIP3    H237997   4.316   3.446  16.669  0.9527  0.2810 -1.1112
 5528TIP3   OH237998   4.540   3.065  17.041 -0.1903  0.1517 -0.5804
 5528TIP3    H137999   4.479   3.127  17.002  0.4498  0.5285 -1.0162
 5528TIP3    H238000   4.523   2.982  16.996 -1.0983 -0.0180  0.0561
 5529TIP3   OH238001   2.802   2.798   2.919  0.1781  0.3255  0.5223
 5529TIP3    H138002   2.848   2.855   2.981  2.4621 -1.5665  0.6939
 5529TIP3    H238003   2.784   2.854   2.844 -1.2210  2.2550  2.1930
 5530TIP3   OH238004   0.904   6.011  13.007  0.0566  0.3608  0.7110
 5530TIP3    H138005   0.849   6.064  13.065  0.5757  4.9615 -2.4918
 5530TIP3    H238006   0.994   6.031  13.035  0.3314 -1.6007  1.4570
 5531TIP3   OH238007   4.534   6.598   1.994  0.0986 -0.5917 -0.0433
 5531TIP3    H138008   4.504   6.525   1.940 -0.1643  0.8297 -1.9394
 5531TIP3    H238009   4.582   6.557   2.066 -1.6112 -2.6772  0.0076
 5532TIP3   OH238010   0.992   1.561  15.351  0.5819 -0.1753 -0.5071
 5532TIP3    H138011   0.915   1.568  15.294 -0.0275  1.9392  0.4869
 5532TIP3    H238012   0.960   1.582  15.438  2.2240  0.4109 -0.0111
 5533TIP3   OH238013   3.483   3.120   2.995 -0.0623 -0.5871  0.3862
 5533TIP3    H138014   3.520   3.085   3.076  0.8933  0.8461  0.6077
 5533TIP3    H238015   3.454   3.043   2.946 -0.9075 -1.4682  2.1835
 5534TIP3   OH238016   5.957   0.010   1.284  0.0837 -0.1750  0.4858
 5534TIP3    H138017   5.866   0.023   1.313  0.2414  1.1334  0.4498
 5534TIP3    H238018   5.961   0.049   1.197  0.6516 -0.3107  0.4455
 5535TIP3   OH238019   0.678   5.198   2.275 -0.4498 -0.3327  0.3952
 5535TIP3    H138020   0.635   5.264   2.220  1.0005  1.8927  1.7548
 5535TIP3    H238021   0.731   5.146   2.214 -1.4701 -0.1274 -0.6984
 5536TIP3   OH238022   5.758   3.559  15.286  0.7010  0.7555 -0.5545
 5536TIP3    H138023   5.816   3.619  15.332  1.0077 -0.1281  0.2257
 5536TIP3    H238024   5.795   3.472  15.300 -1.2309  0.0629  0.6875
 5537TIP3   OH238025   0.572   5.336   4.602 -0.3077 -0.0892  0.1736
 5537TIP3    H138026   0.609   5.312   4.517 -0.0596 -3.1518  1.0514
 5537TIP3    H238027   0.499   5.394   4.581  1.3268  1.3716 -1.9250
 5538TIP3   OH238028   4.454   5.156   2.160  0.0694  0.0111 -0.3106
 5538TIP3    H138029   4.497   5.237   2.131  0.5846 -0.2173 -0.2045
 5538TIP3    H238030   4.414   5.120   2.081 -1.7420  1.2886 -0.0369
 5539TIP3   OH238031   2.697   3.835   3.944 -0.0857  0.1515  0.0656
 5539TIP3    H138032   2.683   3.849   3.850  0.2969 -0.5673 -0.1050
 5539TIP3    H238033   2.611   3.813   3.978 -0.3602  1.1230  0.0155
 5540TIP3   OH238034   2.868   4.028  16.739  0.5826 -0.2840 -0.1292
 5540TIP3    H138035   2.880   4.044  16.645 -0.2285 -0.7579 -0.3218
 5540TIP3    H238036   2.885   3.934  16.749  0.1760 -0.3354  0.1046
 5541TIP3   OH238037   4.279   5.796   4.942  0.3696  0.4166  0.2889
 5541TIP3    H138038   4.209   5.731   4.929  1.5601 -0.5883 -1.4444
 5541TIP3    H238039   4.285   5.842   4.859  3.7497 -1.6037 -0.7776
 5542TIP3   OH238040   5.923   6.569   2.296 -0.1005  0.5580  0.4743
 5542TIP3    H138041   5.983   6.537   2.363 -1.3941 -1.9473  0.5551
 5542TIP3    H238042   5.971   6.560   2.213 -0.1924 -1.1165  0.5691
 5543TIP3   OH238043   5.699   0.299   6.095  0.5091  0.1280 -0.6595
 5543TIP3    H138044   5.722   0.382   6.053 -1.3126  0.5914 -0.8177
 5543TIP3    H238045   5.612   0.278   6.061  0.3381 -1.1237  0.4643
 5544TIP3   OH238046   1.745   3.358  11.554  0.4751  0.7402  0.1029
 5544TIP3    H138047   1.704   3.432  11.509  1.4102  1.0756 -0.2091
 5544TIP3    H238048   1.742   3.287  11.490 -0.9855  0.3014  0.6184
 5545TIP3   OH238049   2.090   3.341   3.648  0.6103  0.3642 -0.2180
 5545TIP3    H138050   2.015   3.282   3.654  0.3981  0.5922 -0.5459
 5545TIP3    H238051   2.054   3.427   3.670  0.4532  0.7210 -1.7704
 5546TIP3   OH238052   2.508   4.725   1.663  0.4245 -0.0621  0.3834
 5546TIP3    H138053   2.576   4.684   1.716  0.6822 -1.9395 -1.2637
 5546TIP3    H238054   2.427   4.713   1.713  0.5934 -2.1712  0.2432
 5547TIP3   OH238055   4.707   4.231   1.317 -0.0933 -0.0209  0.1878
 5547TIP3    H138056   4.794   4.258   1.288 -0.3383  0.1552 -0.3939
 5547TIP3    H238057   4.649   4.300   1.286 -0.6305 -0.8286 -0.6571
 5548TIP3   OH238058   1.175   5.563  15.161 -0.1733  0.1264  0.1602
 5548TIP3    H138059   1.226   5.483  15.171 -1.0195 -0.5008 -0.3520
 5548TIP3    H238060   1.112   5.542  15.091 -0.6991  1.0815  0.3310
 5549TIP3   OH238061   6.250   3.029   0.487 -0.3737 -0.3573  0.1160
 5549TIP3    H138062   6.272   3.054   0.577  0.8982  0.2617 -0.3409
 5549TIP3    H238063   6.169   2.979   0.495  0.1571 -1.0428  1.7023
 5550TIP3   OH238064   5.555   1.876  13.712  0.0370 -0.3526  0.0044
 5550TIP3    H138065   5.474   1.826  13.723  0.7526 -1.3745  0.8716
 5550TIP3    H238066   5.533   1.964  13.742 -0.9687 -0.3844 -0.5680
 5551TIP3   OH238067   5.370   2.900  12.974 -0.0455  0.8139 -0.7688
 5551TIP3    H138068   5.348   2.861  12.890  1.1008 -0.8833 -0.3555
 5551TIP3    H238069   5.350   2.831  13.038  1.4068  1.1383  0.0792
 5552TIP3   OH238070   6.702   4.900  14.146 -0.0037  0.4261  0.2257
 5552TIP3    H138071   6.751   4.826  14.183  1.3281  0.1892 -1.8359
 5552TIP3    H238072   6.742   4.977  14.185  0.2548  0.1409  0.5373
 5553TIP3   OH238073   1.152   2.210  13.578  0.3011  0.1698 -0.3954
 5553TIP3    H138074   1.144   2.224  13.483  2.9746 -2.7737 -1.2392
 5553TIP3    H238075   1.134   2.117  13.590  1.6584  0.1235  1.7177
 5554TIP3   OH238076   3.862   1.849   4.613  0.5906  0.0823  0.3954
 5554TIP3    H138077   3.923   1.828   4.543 -0.1432 -1.3196  0.1389
 5554TIP3    H238078   3.916   1.887   4.682  1.6479 -0.5494 -0.0662
 5555TIP3   OH238079   0.070   3.258  12.663 -0.2969 -0.1866 -0.6024
 5555TIP3    H138080   0.085   3.165  12.679  1.6279  0.3703  1.2185
 5555TIP3    H238081   0.153   3.291  12.630 -1.2336  0.7512 -2.1695
 5556TIP3   OH238082   2.463   6.791  15.854  0.4448 -0.0992 -0.0283
 5556TIP3    H138083   2.498   6.844  15.926 -1.2665  1.7877 -0.5216
 5556TIP3    H238084   2.491   6.837  15.775 -1.7245  0.5992 -0.4502
 5557TIP3   OH238085   3.517   0.919  15.534 -0.1166 -0.3075  0.3316
 5557TIP3    H138086   3.448   0.935  15.470 -0.1584 -0.5912  0.3055
 5557TIP3    H238087   3.581   0.865  15.488 -0.2124 -0.6261  0.5719
 5558TIP3   OH238088   2.809   0.324  17.058  0.3943 -0.0501 -0.2534
 5558TIP3    H138089   2.760   0.322  16.975 -1.7212 -2.0008  0.9372
 5558TIP3    H238090   2.834   0.233  17.073  0.5852  0.2454  1.3425
 5559TIP3   OH238091   0.316   0.528   5.485  0.0690 -0.2044  0.5185
 5559TIP3    H138092   0.402   0.486   5.481 -0.5375 -1.4857  0.3282
 5559TIP3    H238093   0.255   0.459   5.460 -1.1643  0.2348  2.1822
 5560TIP3   OH238094   6.780   3.352   4.929 -0.2546  0.0568  0.1910
 5560TIP3    H138095   6.876   3.360   4.932 -0.1377 -0.7599 -0.8541
 5560TIP3    H238096   6.760   3.331   4.838 -1.1883 -2.3470  0.8651
 5561TIP3   OH238097   0.208   2.482   4.697  0.0678 -0.7256 -0.3812
 5561TIP3    H138098   0.165   2.457   4.778  0.2724  1.0192  0.2890
 5561TIP3    H238099   0.301   2.483   4.718  0.0482  0.9670 -0.2478
 5562TIP3   OH238100   0.620   3.492  15.195  0.3980 -0.0850  0.5813
 5562TIP3    H138101   0.709   3.478  15.227  0.7083  1.8063  0.6357
 5562TIP3    H238102   0.597   3.580  15.223 -1.0589 -0.0819 -0.4640
 5563TIP3   OH238103   2.274   0.262   1.025 -0.2918  0.2790  0.8767
 5563TIP3    H138104   2.358   0.303   1.044 -0.1103 -0.3502  1.4673
 5563TIP3    H238105   2.210   0.332   1.036  0.2361  1.0704 -0.7039
 5564TIP3   OH238106   2.547   0.291  11.084 -0.2142 -0.5157  0.6085
 5564TIP3    H138107   2.568   0.343  11.006 -0.0723 -1.3938  0.0463
 5564TIP3    H238108   2.588   0.207  11.067  0.2697 -0.5447  1.8844
 5565TIP3   OH238109   6.424   2.197   2.442  0.6368  0.2688  0.1975
 5565TIP3    H138110   6.414   2.147   2.523 -0.4076 -0.8445 -0.5840
 5565TIP3    H238111   6.513   2.178   2.414  1.0457  0.7445  1.1181
 5566TIP3   OH238112   0.278   1.759  11.653  0.1243  0.0960 -0.4348
 5566TIP3    H138113   0.214   1.819  11.691 -0.4372 -0.0372 -1.1378
 5566TIP3    H238114   0.349   1.816  11.623 -0.5973  0.4802 -1.4854
 5567TIP3   OH238115   5.949   5.150  12.770 -0.6987  0.8375 -0.3485
 5567TIP3    H138116   5.854   5.157  12.781 -0.7507  0.0078 -0.1812
 5567TIP3    H238117   5.984   5.152  12.859 -0.8283 -2.0543 -0.1463
 5568TIP3   OH238118   1.904   2.255  12.438 -0.4552 -0.0787  0.3059
 5568TIP3    H138119   1.945   2.338  12.414 -0.7552  0.0697  0.3022
 5568TIP3    H238120   1.948   2.190  12.383  0.3462 -0.0421  0.8762
 5569TIP3   OH238121   4.510   6.772   0.743 -0.6035 -0.0639  0.2822
 5569TIP3    H138122   4.599   6.739   0.729 -0.7461 -0.1503 -0.4770
 5569TIP3    H238123   4.513   6.812   0.830 -0.2006 -1.3000  0.8513
 5570TIP3   OH238124   1.665   6.762   0.158 -0.4186  0.6496  0.5398
 5570TIP3    H138125   1.747   6.720   0.185  0.0784  0.9786 -0.4029
 5570TIP3    H238126   1.692   6.827   0.093 -1.2121  2.1343  1.6315
 5571TIP3   OH238127   6.090   1.834   0.868  0.2743  0.4103  0.4265
 5571TIP3    H138128   6.124   1.886   0.940 -1.4662  0.4607  1.2676
 5571TIP3    H238129   6.147   1.758   0.863  0.6212  0.5774  1.6494
 5572TIP3   OH238130   6.208   2.621   1.234  0.6002  0.4551  0.4986
 5572TIP3    H138131   6.132   2.673   1.211  0.2972 -0.6932 -1.2911
 5572TIP3    H238132   6.280   2.684   1.237  0.1461  1.0850 -1.0305
 5573TIP3   OH238133   3.114   0.313   4.039  0.3442  0.1458 -0.2981
 5573TIP3    H138134   3.147   0.233   4.078  1.4016  1.5392  1.8293
 5573TIP3    H238135   3.188   0.374   4.041 -1.0788  1.9715  0.5805
 5574TIP3   OH238136   3.872   5.410   4.792 -0.5352  0.0657 -0.2724
 5574TIP3    H138137   3.793   5.460   4.811  0.3490  1.0345  1.1560
 5574TIP3    H238138   3.869   5.336   4.853  1.1152  1.8415  2.1862
 5575TIP3   OH238139   3.094   4.036   3.747 -0.0141  0.6394 -0.3445
 5575TIP3    H138140   3.124   4.108   3.803  1.7548  1.1394 -1.8429
 5575TIP3    H238141   3.172   3.983   3.732 -1.2741 -1.6917  0.7336
 5576TIP3   OH238142   2.028   5.586  15.042 -0.6740 -1.1060 -0.3264
 5576TIP3    H138143   2.042   5.628  14.957  1.6862 -0.9689  0.0806
 5576TIP3    H238144   2.020   5.659  15.104  3.6424 -1.0052  0.4142
 5577TIP3   OH238145   5.187   5.665  13.414  0.4795 -0.4028  0.5420
 5577TIP3    H138146   5.135   5.585  13.415 -0.3502  0.1232  0.2478
 5577TIP3    H238147   5.200   5.684  13.320  0.9199 -0.3462  0.6092
 5578TIP3   OH238148   0.865   1.433   0.263  0.3805 -0.2592 -0.0250
 5578TIP3    H138149   0.820   1.460   0.183 -1.0066 -1.9288  0.1536
 5578TIP3    H238150   0.899   1.346   0.244  1.3133 -0.0893  0.7394
 5579TIP3   OH238151   4.632   6.038   5.015 -0.3833  0.1880  0.2302
 5579TIP3    H138152   4.574   6.009   4.945  0.5449 -1.4366  0.0897
 5579TIP3    H238153   4.683   6.110   4.976  1.3423 -1.7957 -1.4161
 5580TIP3   OH238154   3.295   5.049   3.597 -0.0650 -0.0882 -0.0562
 5580TIP3    H138155   3.375   5.099   3.611  0.3102  0.1865 -2.6289
 5580TIP3    H238156   3.273   5.013   3.683  0.9121  2.5918  1.4391
 5581TIP3   OH238157   1.901   6.379   3.853  0.2906 -0.5625  0.5621
 5581TIP3    H138158   1.896   6.301   3.909  1.7089 -0.6598  0.5794
 5581TIP3    H238159   1.841   6.360   3.781 -2.3777 -0.0202  2.4626
 5582TIP3   OH238160   2.622   0.697   0.622  0.7897  0.4436  0.0192
 5582TIP3    H138161   2.623   0.602   0.633  0.0196  0.1819 -1.8783
 5582TIP3    H238162   2.703   0.726   0.664  2.1432 -1.2861 -1.2376
 5583TIP3   OH238163   0.339   0.429  14.069 -1.0437  0.4846 -0.0467
 5583TIP3    H138164   0.277   0.391  14.131  1.6416 -1.7270  1.5252
 5583TIP3    H238165   0.370   0.509  14.110 -1.0299  0.2754  0.3519
 5584TIP3   OH238166   5.837   1.228   5.003 -0.2677  0.4155 -0.3886
 5584TIP3    H138167   5.762   1.242   4.945  0.6848 -1.5896 -2.2377
 5584TIP3    H238168   5.913   1.236   4.946  0.8529  0.6897  1.0975
 5585TIP3   OH238169   3.977   2.608   1.259 -0.5297 -0.1834  0.3666
 5585TIP3    H138170   3.898   2.619   1.312 -0.1993 -0.3078  0.8970
 5585TIP3    H238171   4.030   2.686   1.279 -1.8767  1.6370 -2.4562
 5586TIP3   OH238172   2.559   0.116  14.342  0.1480 -0.4161 -0.8109
 5586TIP3    H138173   2.476   0.095  14.386  0.5612  0.3129  0.3687
 5586TIP3    H238174   2.559   0.211  14.338  0.4947 -0.4511 -1.6940
 5587TIP3   OH238175   0.070   2.891   4.104  0.0188 -0.0107  0.0738
 5587TIP3    H138176   0.161   2.874   4.129  0.2131  1.3220  0.3358
 5587TIP3    H238177   0.075   2.967   4.046 -0.7045 -1.4014 -1.9309
 5588TIP3   OH238178   0.711   0.215   0.646  0.2512  0.1441 -0.2767
 5588TIP3    H138179   0.678   0.252   0.564  0.9414  1.2826 -0.0548
 5588TIP3    H238180   0.723   0.291   0.703 -1.6793 -0.7436  1.4320
 5589TIP3   OH238181   0.215   5.204   5.310 -0.2819  0.4708 -0.4213
 5589TIP3    H138182   0.286   5.265   5.289  0.1834  0.4380  1.0111
 5589TIP3    H238183   0.237   5.169   5.396 -1.4645 -0.3905 -0.4449
 5590TIP3   OH238184   6.385   2.147  15.136  0.0542  0.3316 -0.1238
 5590TIP3    H138185   6.355   2.057  15.135 -0.1052  0.3905 -0.7119
 5590TIP3    H238186   6.446   2.151  15.211 -1.5642  0.2909  1.2626
 5591TIP3   OH238187   5.479   1.739   2.005 -0.0555 -0.0756  0.5481
 5591TIP3    H138188   5.541   1.811   2.005 -0.2954  0.1901 -1.6521
 5591TIP3    H238189   5.530   1.663   1.975 -0.3987 -0.2208  0.3174
 5592TIP3   OH238190   2.344   0.338  11.400 -0.4278 -0.4603  0.0658
 5592TIP3    H138191   2.266   0.297  11.362 -0.4674 -0.9294  0.6350
 5592TIP3    H238192   2.358   0.417  11.348  0.0310 -1.5144 -1.4731
 5593TIP3   OH238193   4.243   0.460  16.325 -0.7026  0.2373 -0.2370
 5593TIP3    H138194   4.163   0.501  16.291 -1.3564 -0.0488  0.9117
 5593TIP3    H238195   4.275   0.522  16.391  0.7297  0.9398 -1.5054
 5594TIP3   OH238196   4.791   6.052   5.517  0.0950  0.3962 -0.2174
 5594TIP3    H138197   4.749   5.970   5.542 -3.5854  1.7721 -1.2612
 5594TIP3    H238198   4.805   6.043   5.423 -0.1417  0.8706 -0.2982
 5595TIP3   OH238199   4.481   2.980   1.196 -0.2601 -0.3497  0.5300
 5595TIP3    H138200   4.495   2.912   1.130 -0.5969 -1.5643  1.6513
 5595TIP3    H238201   4.445   2.932   1.271 -0.8711  1.1406  1.2194
 5596TIP3   OH238202   5.040   1.084   3.097 -0.5897  0.0083  0.0796
 5596TIP3    H138203   4.977   1.024   3.055 -0.8185  0.5843 -0.4142
 5596TIP3    H238204   5.090   1.121   3.024 -0.7485  0.7485  0.3428
 5597TIP3   OH238205   2.785   4.547   3.658 -0.5311 -0.4278 -0.6812
 5597TIP3    H138206   2.730   4.599   3.717 -0.9501 -1.0628 -0.5032
 5597TIP3    H238207   2.874   4.559   3.691 -0.7337 -0.5785 -0.0738
 5598TIP3   OH238208   0.736   3.149   4.575 -0.0682 -0.0753 -0.0320
 5598TIP3    H138209   0.806   3.087   4.597  0.6285  0.3795 -0.8847
 5598TIP3    H238210   0.774   3.235   4.592 -1.0970  0.1402  1.3206
 5599TIP3   OH238211   4.931   4.089   5.822 -0.3123 -0.2940  0.0658
 5599TIP3    H138212   4.925   4.042   5.905 -1.9751 -0.4059 -0.0678
 5599TIP3    H238213   4.845   4.130   5.813 -0.4108 -0.8459 -1.9083
 5600TIP3   OH238214   4.734   2.358  12.998 -0.0054  0.1134  0.1440
 5600TIP3    H138215   4.757   2.268  12.977  0.9586  0.2821  0.4276
 5600TIP3    H238216   4.702   2.395  12.915  0.9390 -0.0817 -0.3187
 5601TIP3   OH238217   1.999   1.543   2.934 -0.5418 -0.2964 -0.1187
 5601TIP3    H138218   1.956   1.611   2.881  1.8892 -1.0388 -3.3634
 5601TIP3    H238219   1.931   1.476   2.945 -1.4511  0.3422 -1.5047
 5602TIP3   OH238220   4.999   6.211   1.910  0.3044  0.6106  0.0007
 5602TIP3    H138221   5.036   6.213   1.998 -2.4003  2.8797  1.2460
 5602TIP3    H238222   5.075   6.216   1.852  2.0992  0.8215  2.2096
 5603TIP3   OH238223   6.418   5.889  13.155 -0.2337 -0.7547  0.0109
 5603TIP3    H138224   6.507   5.870  13.125 -0.4313  1.4994 -2.4036
 5603TIP3    H238225   6.423   5.979  13.186 -1.7971 -0.2876 -0.9740
 5604TIP3   OH238226   6.400   2.545   3.170 -0.5542  0.1740  0.4690
 5604TIP3    H138227   6.421   2.465   3.219  1.0181  1.6492  2.3866
 5604TIP3    H238228   6.480   2.565   3.121 -1.0574  0.4072 -0.2791
 5605TIP3   OH238229   1.840   5.362  14.745 -0.5784  0.3880  0.2245
 5605TIP3    H138230   1.815   5.331  14.658  0.0009 -1.5453  0.6976
 5605TIP3    H238231   1.932   5.337  14.753  0.4068  3.5656  0.1432
 5606TIP3   OH238232   4.424   3.192   2.856  0.4917 -0.0073  0.7777
 5606TIP3    H138233   4.376   3.118   2.894  1.0414  0.0867  1.7028
 5606TIP3    H238234   4.365   3.266   2.865 -0.0844 -0.3388 -0.2059
 5607TIP3   OH238235   4.692   1.612  14.571 -0.3458 -0.0118 -0.2302
 5607TIP3    H138236   4.607   1.656  14.574 -0.2535  0.2515  3.4104
 5607TIP3    H238237   4.747   1.670  14.519 -1.8112  0.9564 -0.7715
 5608TIP3   OH238238   3.059   4.552   0.706  0.2865  0.5001 -0.0545
 5608TIP3    H138239   3.106   4.478   0.745  0.2023  0.0803 -0.7310
 5608TIP3    H238240   2.969   4.522   0.698  0.2782  0.6213 -0.4576
 5609TIP3   OH238241   6.155   2.242  15.650  0.5013  0.2755  0.8785
 5609TIP3    H138242   6.148   2.271  15.559  1.7431  0.3063  0.7734
 5609TIP3    H238243   6.129   2.149  15.648 -0.0164  0.4240  0.5963
 5610TIP3   OH238244   6.248   2.122   3.793 -0.0030 -0.5648  0.0809
 5610TIP3    H138245   6.241   2.205   3.839 -0.2285 -0.8752  0.6179
 5610TIP3    H238246   6.187   2.064   3.839 -0.9847 -0.6194 -1.1996
 5611TIP3   OH238247   0.300   6.135   0.330  0.1239 -0.3646 -0.2278
 5611TIP3    H138248   0.274   6.125   0.421 -1.0424 -1.1007 -0.6234
 5611TIP3    H238249   0.384   6.181   0.334 -0.3509  0.4341  1.1663
 5612TIP3   OH238250   6.630   0.747   1.235 -0.0281  0.4199  0.0563
 5612TIP3    H138251   6.631   0.780   1.324  0.0421  1.1190 -0.2033
 5612TIP3    H238252   6.705   0.688   1.230 -0.7540 -0.6015  0.8212
 5613TIP3   OH238253   1.379   5.590  15.633 -0.1039  0.3212 -0.2201
 5613TIP3    H138254   1.309   5.627  15.578 -1.6846 -1.2912  0.5956
 5613TIP3    H238255   1.395   5.503  15.596 -2.2817 -1.4592  2.5797
 5614TIP3   OH238256   1.341   4.495  12.374  0.0840 -0.1379  0.2465
 5614TIP3    H138257   1.378   4.409  12.390 -2.3352 -1.5554 -1.1674
 5614TIP3    H238258   1.297   4.518  12.456  0.6415 -0.2866  0.5917
 5615TIP3   OH238259   6.665   3.815   6.246  0.5220  0.7141 -1.0786
 5615TIP3    H138260   6.647   3.745   6.308  0.1604  2.7563  1.3035
 5615TIP3    H238261   6.745   3.788   6.201  0.6305 -1.0031  0.0648
 5616TIP3   OH238262   4.935   4.058   3.201 -0.1528  0.0439 -0.2241
 5616TIP3    H138263   5.024   4.094   3.194 -0.1530  0.2502  0.7453
 5616TIP3    H238264   4.892   4.113   3.266 -0.2730 -1.4547  1.0284
 5617TIP3   OH238265   5.589   0.293  11.399 -0.2535 -0.4331 -0.0764
 5617TIP3    H138266   5.595   0.387  11.415 -0.9521  0.0422 -2.3822
 5617TIP3    H238267   5.634   0.279  11.316 -1.6480 -1.8783 -0.6401
 5618TIP3   OH238268   6.576   6.605  12.292 -0.4414 -0.4206  0.1259
 5618TIP3    H138269   6.647   6.557  12.248 -0.5170  0.2314 -0.7211
 5618TIP3    H238270   6.621   6.673  12.342 -0.3668 -1.0602  0.9502
 5619TIP3   OH238271   3.784   6.408   0.265  0.3380  0.5076  0.3773
 5619TIP3    H138272   3.802   6.339   0.329 -0.3820 -1.1163 -1.0849
 5619TIP3    H238273   3.689   6.422   0.272  0.0923 -0.3494 -0.9209
 5620TIP3   OH238274   2.124   4.454  14.118 -0.2621 -0.2625 -0.1314
 5620TIP3    H138275   2.146   4.514  14.046  0.4294 -0.3613 -0.0127
 5620TIP3    H238276   2.169   4.492  14.194 -0.3384 -0.5901  0.0751
 5621TIP3   OH238277   4.857   5.229   4.693  0.1745 -0.3567 -0.6426
 5621TIP3    H138278   4.772   5.185   4.681  0.2634 -0.2025 -1.9744
 5621TIP3    H238279   4.866   5.238   4.788 -2.2772  1.4865 -0.4685
 5622TIP3   OH238280   5.443   2.131  13.714  0.2062 -0.1085  0.3430
 5622TIP3    H138281   5.519   2.187  13.701  1.9523 -1.8376  2.2776
 5622TIP3    H238282   5.397   2.133  13.630  0.1329  4.0592  0.2817
 5623TIP3   OH238283   5.797   1.852   5.869 -0.0687  0.5495  0.1173
 5623TIP3    H138284   5.850   1.903   5.807  0.1344  0.2274  0.0258
 5623TIP3    H238285   5.830   1.879   5.955 -0.6349  1.3089  0.1056
 5624TIP3   OH238286   3.207   0.648  11.678  0.1288  0.2246 -0.1254
 5624TIP3    H138287   3.119   0.639  11.641  1.4958 -1.8861 -3.2717
 5624TIP3    H238288   3.253   0.706  11.617  1.6121 -0.7810 -0.0036
 5625TIP3   OH238289   6.629   4.933   5.070 -0.1536  0.3487  0.9201
 5625TIP3    H138290   6.723   4.948   5.067  0.1384 -0.6661  3.4285
 5625TIP3    H238291   6.592   5.018   5.096 -0.0569  0.9234 -0.6691
 5626TIP3   OH238292   1.607   4.073   1.919 -0.0279 -0.1270  0.2705
 5626TIP3    H138293   1.676   4.112   1.866 -0.7144 -1.9537 -2.1936
 5626TIP3    H238294   1.653   4.029   1.990  1.0268  1.5450  0.6821
 5627TIP3   OH238295   5.693   4.898   0.650 -0.4046 -0.3136 -0.0698
 5627TIP3    H138296   5.770   4.920   0.598  1.0191  1.0549  2.4295
 5627TIP3    H238297   5.643   4.980   0.654 -0.4554 -0.3833  0.7777
 5628TIP3   OH238298   1.796   0.386   3.508  0.0649 -0.8771  0.5339
 5628TIP3    H138299   1.704   0.367   3.489  0.1543  0.2861 -1.2994
 5628TIP3    H238300   1.797   0.409   3.601 -1.6612 -0.0852  0.3996
 5629TIP3   OH238301   3.775   3.165  14.600 -0.2032  0.2129  0.3445
 5629TIP3    H138302   3.710   3.170  14.531 -0.9531  1.7653  1.1242
 5629TIP3    H238303   3.727   3.184  14.680  1.2412  1.7727  0.9086
 5630TIP3   OH238304   4.885   0.452  12.504  0.0030  0.3138  0.5417
 5630TIP3    H138305   4.887   0.546  12.490 -0.2831  0.2526  0.0610
 5630TIP3    H238306   4.817   0.438  12.569 -0.2223  0.4074  0.3281
 5631TIP3   OH238307   6.115   3.281  13.334  0.1629 -0.2567  0.0807
 5631TIP3    H138308   6.044   3.222  13.306 -0.9241  1.2579 -0.4665
 5631TIP3    H238309   6.127   3.260  13.427 -2.5748  0.9359  0.7998
 5632TIP3   OH238310   2.359   4.160  16.359  0.1113 -0.5335 -0.3301
 5632TIP3    H138311   2.335   4.154  16.266 -1.1253 -1.3647  0.0265
 5632TIP3    H238312   2.339   4.250  16.383 -1.1282 -0.7661 -0.4642
 5633TIP3   OH238313   3.889   5.481  11.221 -0.1776 -0.4137  0.6056
 5633TIP3    H138314   3.827   5.485  11.294 -1.0225  0.6418 -0.1398
 5633TIP3    H238315   3.873   5.395  11.181 -1.3264 -0.0749  0.2946
 5634TIP3   OH238316   0.135   3.187  14.289  0.3100 -0.0058 -0.6901
 5634TIP3    H138317   0.080   3.188  14.210  0.7777 -1.8251 -1.0830
 5634TIP3    H238318   0.076   3.215  14.359 -1.3056 -2.3349 -1.0126
 5635TIP3   OH238319   5.949   5.655   3.875  0.3661  0.2257  0.0648
 5635TIP3    H138320   5.921   5.727   3.819  1.2383  0.6789  0.1985
 5635TIP3    H238321   5.955   5.694   3.962  3.4275  0.7223 -0.2808
 5636TIP3   OH238322   1.370   1.804   0.663 -0.0450 -0.3918 -0.1248
 5636TIP3    H138323   1.358   1.846   0.748 -1.4594 -0.5758 -0.2164
 5636TIP3    H238324   1.412   1.872   0.609  1.9215 -0.6287  0.9841
 5637TIP3   OH238325   2.282   6.653  15.489 -0.8123 -0.2728 -0.1467
 5637TIP3    H138326   2.358   6.677  15.435  0.3745 -0.6533  1.2969
 5637TIP3    H238327   2.222   6.727  15.479 -0.8202 -0.4768 -2.2368
 5638TIP3   OH238328   4.308   6.672  11.724  0.1024 -0.3966 -0.0635
 5638TIP3    H138329   4.226   6.697  11.682  0.0250  0.0857  0.3611
 5638TIP3    H238330   4.284   6.605  11.787  0.1121 -0.6155 -0.2918
 5639TIP3   OH238331   1.076   1.891  13.688  0.4201 -0.0712 -0.7018
 5639TIP3    H138332   0.998   1.904  13.634  0.4123  0.3096 -0.6011
 5639TIP3    H238333   1.051   1.923  13.774  1.9066  3.9310 -1.5521
 5640TIP3   OH238334   1.657   3.358  13.374  0.2691  0.2658 -0.3488
 5640TIP3    H138335   1.703   3.359  13.291  0.9958 -0.4694  0.0287
 5640TIP3    H238336   1.707   3.417  13.431 -1.0495  1.9196 -0.8275
 5641TIP3   OH238337   3.426   6.714   4.032  0.2129 -0.6241 -0.2334
 5641TIP3    H138338   3.485   6.732   4.105  1.1355 -0.2780 -1.0525
 5641TIP3    H238339   3.402   6.622   4.043 -0.3229 -0.3700  0.9625
 5642TIP3   OH238340   3.021   5.344   2.567  0.1760 -0.1602 -0.5139
 5642TIP3    H138341   3.101   5.392   2.548 -1.0448  2.9930  1.5968
 5642TIP3    H238342   2.953   5.411   2.573 -2.7471 -2.6834 -2.2913
 5643TIP3   OH238343   3.884   3.836  13.087  0.5898  0.0134 -0.7232
 5643TIP3    H138344   3.793   3.858  13.106  0.8540  0.1827  0.4509
 5643TIP3    H238345   3.889   3.832  12.992 -0.6799 -0.1522 -0.7980
 5644TIP3   OH238346   0.230   1.172  14.798 -0.5685 -0.1068 -0.0751
 5644TIP3    H138347   0.281   1.094  14.820  0.2908  0.6008  0.5593
 5644TIP3    H238348   0.294   1.243  14.796 -1.4453  0.7234  0.1737
 5645TIP3   OH238349   5.723   4.898   1.305 -0.9704 -0.9938 -0.3485
 5645TIP3    H138350   5.761   4.883   1.391  1.2331  0.7651 -0.9034
 5645TIP3    H238351   5.764   4.832   1.249  1.6897  1.0183 -0.9848
 5646TIP3   OH238352   2.980   2.621   2.016 -0.1261  0.0711 -0.0701
 5646TIP3    H138353   2.970   2.679   2.092  0.4408  0.4684 -0.2916
 5646TIP3    H238354   3.074   2.610   2.006 -0.2452 -1.4620  0.3759
 5647TIP3   OH238355   2.037   0.686  15.884  0.2338 -0.3134 -0.1248
 5647TIP3    H138356   1.965   0.629  15.910 -0.5248  0.6445 -0.0695
 5647TIP3    H238357   2.055   0.740  15.961  1.1494 -0.6780 -0.0728
 5648TIP3   OH238358   4.403   6.380  17.160 -0.4952 -0.2473 -0.4992
 5648TIP3    H138359   4.373   6.445  17.096 -0.1969  0.6414  0.2350
 5648TIP3    H238360   4.494   6.363  17.136  0.0893  1.2248  0.5626
 5649TIP3   OH238361   2.264   5.916   6.190 -0.3648 -0.2147  0.4716
 5649TIP3    H138362   2.355   5.929   6.218 -0.7756 -0.4215  2.0498
 5649TIP3    H238363   2.268   5.846   6.125  0.8664  1.5569 -1.4342
 5650TIP3   OH238364   5.579   0.418  14.481  0.5424  0.0169  0.0824
 5650TIP3    H138365   5.642   0.468  14.429  1.1455  0.8348  1.5397
 5650TIP3    H238366   5.522   0.485  14.520 -1.2602 -0.6953 -1.1721
 5651TIP3   OH238367   4.156   2.603   5.805 -0.2950  0.5549  0.3329
 5651TIP3    H138368   4.083   2.547   5.781 -0.5767  1.7029 -1.7420
 5651TIP3    H238369   4.147   2.615   5.899 -1.9564 -0.4554  0.3417
 5652TIP3   OH238370   2.135   2.569   5.438  0.0759 -0.2776 -0.3526
 5652TIP3    H138371   2.177   2.509   5.376 -1.5236 -1.1693 -0.6242
 5652TIP3    H238372   2.104   2.513   5.509  0.8954  0.5947  0.7337
 5653TIP3   OH238373   5.870   4.544   2.526  0.1109 -0.2638  0.4519
 5653TIP3    H138374   5.803   4.535   2.594 -1.2608 -2.1483 -1.0020
 5653TIP3    H238375   5.833   4.608   2.465  1.1533  1.1202  1.2301
 5654TIP3   OH238376   5.787   3.189   2.381 -0.4254  0.2187  0.5418
 5654TIP3    H138377   5.825   3.107   2.352  2.7449  1.9447 -0.6400
 5654TIP3    H238378   5.739   3.221   2.305  0.0039  0.3799  0.3385
 5655TIP3   OH238379   1.454   0.853   2.574  0.0578  0.5090  0.0454
 5655TIP3    H138380   1.436   0.825   2.484  1.6616  0.9875 -0.4471
 5655TIP3    H238381   1.415   0.940   2.580 -0.3494  0.3392 -0.0718
 5656TIP3   OH238382   4.527   1.025   3.115  0.3968 -0.0173  0.5001
 5656TIP3    H138383   4.541   0.937   3.080  1.1296  0.1520  0.3414
 5656TIP3    H238384   4.482   1.072   3.044  0.4854 -0.1174  0.3763
 5657TIP3   OH238385   1.224   2.603   4.823  0.1984 -0.1229 -0.3365
 5657TIP3    H138386   1.140   2.622   4.782 -0.6380 -2.2027  0.2929
 5657TIP3    H238387   1.230   2.664   4.896 -0.5509  0.3435 -0.6518
 5658TIP3   OH238388   1.328   0.686   3.587  1.0786 -0.2928 -0.1417
 5658TIP3    H138389   1.274   0.607   3.598  0.6713 -0.5626 -3.3110
 5658TIP3    H238390   1.289   0.749   3.649 -1.8958 -0.9964 -1.1093
 5659TIP3   OH238391   5.268   5.263  15.384 -0.2994 -0.1368  0.1872
 5659TIP3    H138392   5.267   5.186  15.441 -1.0180 -0.3135 -0.0543
 5659TIP3    H238393   5.191   5.313  15.411  0.6896  1.0028  1.0038
 5660TIP3   OH238394   4.999   2.680  13.421  0.1153 -0.6183 -0.3500
 5660TIP3    H138395   5.020   2.764  13.380 -0.1804 -0.3424  0.0533
 5660TIP3    H238396   4.904   2.682  13.432 -0.6369 -2.8104 -4.2913
 5661TIP3   OH238397   1.103   3.600   5.064  0.3020 -0.0506 -0.5381
 5661TIP3    H138398   1.044   3.653   5.119  1.2479  1.7635 -1.2026
 5661TIP3    H238399   1.105   3.514   5.108 -1.2251  0.4485  0.6188
 5662TIP3   OH238400   1.247   4.836  12.422  0.2368 -0.4849 -0.0421
 5662TIP3    H138401   1.285   4.779  12.355  2.3765  1.1312 -0.3046
 5662TIP3    H238402   1.260   4.790  12.504 -0.3120 -1.4429 -0.4728
 5663TIP3   OH238403   5.853   2.917   4.200  0.2347  0.6205 -0.6315
 5663TIP3    H138404   5.945   2.914   4.172  1.0412  0.1729  1.8031
 5663TIP3    H238405   5.841   2.837   4.250 -1.8663  0.1245 -1.8019
 5664TIP3   OH238406   3.434   2.698  16.924 -0.6426 -0.0610 -0.2459
 5664TIP3    H138407   3.471   2.770  16.975 -1.6248  0.1822  0.1392
 5664TIP3    H238408   3.489   2.623  16.947  0.3894  0.5524 -0.6549
 5665TIP3   OH238409   5.539   3.782   3.346  0.3834  0.4992 -0.5441
 5665TIP3    H138410   5.500   3.754   3.263 -1.0878 -0.8557  0.5389
 5665TIP3    H238411   5.481   3.747   3.413  1.0865  2.2391  1.0748
 5666TIP3   OH238412   3.056   4.190   2.288 -0.1559 -0.0393 -0.0739
 5666TIP3    H138413   3.035   4.275   2.327  1.1018  0.8363 -1.2408
 5666TIP3    H238414   3.124   4.154   2.344  0.6992  0.6149 -0.6777
 5667TIP3   OH238415   4.117   3.636  10.981  0.1982 -0.1581 -0.2001
 5667TIP3    H138416   4.097   3.639  10.887  0.5120  1.5075 -0.2409
 5667TIP3    H238417   4.186   3.570  10.989  0.4917  0.0124 -1.2163
 5668TIP3   OH238418   4.920   4.376  15.932 -0.1742 -0.2260  0.5601
 5668TIP3    H138419   4.884   4.350  15.847 -1.7167  0.3359  1.0134
 5668TIP3    H238420   4.867   4.329  15.996  2.1938 -2.1616  1.2354
 5669TIP3   OH238421   4.705   0.289   1.250  0.4251  0.0837 -0.6574
 5669TIP3    H138422   4.719   0.306   1.343 -1.3497 -1.4423 -0.0558
 5669TIP3    H238423   4.784   0.245   1.221 -0.2235 -2.3797  0.9906
 5670TIP3   OH238424   0.333   5.488   4.558 -0.1113 -0.2706  0.2917
 5670TIP3    H138425   0.342   5.550   4.486 -0.5867 -2.2614 -1.5976
 5670TIP3    H238426   0.244   5.500   4.590 -0.2165  0.0118 -0.0986
 5671TIP3   OH238427   5.614   5.648  17.227  0.1022  0.3137  0.2427
 5671TIP3    H138428   5.562   5.715  17.271 -0.8775 -1.1051  1.3309
 5671TIP3    H238429   5.662   5.605  17.298 -1.3021 -1.8561 -0.0296
 5672TIP3   OH238430   2.993   4.875  17.167 -0.1296  0.1272 -0.3664
 5672TIP3    H138431   3.012   4.968  17.177  1.2257 -0.3254  1.9183
 5672TIP3    H238432   2.913   4.861  17.218 -0.6489  0.1135 -1.1661
 5673TIP3   OH238433   2.911   1.865   1.641  0.0584 -0.0337 -0.0889
 5673TIP3    H138434   2.988   1.841   1.693 -0.4586 -0.2646  0.5778
 5673TIP3    H238435   2.837   1.823   1.686 -0.3912 -0.3151 -1.0537
 5674TIP3   OH238436   0.213   3.559  11.590 -0.2637 -0.0799 -0.5795
 5674TIP3    H138437   0.253   3.633  11.635  1.6948 -1.4436  0.0780
 5674TIP3    H238438   0.283   3.522  11.536 -0.9275 -1.9152 -0.2734
 5675TIP3   OH238439   3.683   1.573  16.433 -0.1243 -0.2816 -0.1837
 5675TIP3    H138440   3.660   1.658  16.395 -2.9404 -0.2525  1.3500
 5675TIP3    H238441   3.642   1.509  16.375  2.5687 -0.7689 -1.7372
 5676TIP3   OH238442   0.272   0.072   1.445 -0.0603 -0.2891  0.5573
 5676TIP3    H138443   0.348   0.120   1.477  1.8475 -1.4008 -1.9941
 5676TIP3    H238444   0.244   0.119   1.366 -1.1040 -0.7541  0.6217
 5677TIP3   OH238445   6.530   2.353  15.010 -0.1212  0.2868  0.0938
 5677TIP3    H138446   6.537   2.339  14.915 -1.8296 -0.3858  0.0201
 5677TIP3    H238447   6.476   2.280  15.041 -0.6481  1.1775  1.3747
 5678TIP3   OH238448   0.790   0.639  13.421  0.1303 -0.0785  0.2169
 5678TIP3    H138449   0.804   0.682  13.506  0.1314  2.2209 -0.8739
 5678TIP3    H238450   0.701   0.605  13.426  0.5656 -1.1440  1.5787
 5679TIP3   OH238451   6.264   0.253  13.634 -0.2378 -0.2921  0.0066
 5679TIP3    H138452   6.306   0.228  13.551  0.5616  0.4390  0.1765
 5679TIP3    H238453   6.257   0.171  13.682  2.3282 -0.2956  0.5456
 5680TIP3   OH238454   6.278   4.365   3.043  0.0151 -0.0560 -0.2925
 5680TIP3    H138455   6.232   4.427   3.100  1.4485  0.2313  0.6201
 5680TIP3    H238456   6.363   4.352   3.086  0.7892 -0.5577 -1.8969
 5681TIP3   OH238457   5.799   1.009   2.539 -0.4677  0.5272 -0.2141
 5681TIP3    H138458   5.854   1.021   2.462 -0.5125  0.9875 -0.1770
 5681TIP3    H238459   5.842   1.061   2.607  0.1096 -0.6336  0.3473
 5682TIP3   OH238460   1.660   4.604   5.702  0.7400 -0.3919 -0.7178
 5682TIP3    H138461   1.619   4.671   5.757 -2.5513 -2.3052 -0.6151
 5682TIP3    H238462   1.684   4.534   5.763  2.1750 -0.2838 -1.1025
 5683TIP3   OH238463   2.026   3.991  11.789 -0.0537  0.0947 -0.6809
 5683TIP3    H138464   2.083   3.945  11.850 -0.5145  0.1775 -0.1772
 5683TIP3    H238465   1.957   3.928  11.768 -0.0379  0.1535 -0.9158
 5684TIP3   OH238466   4.663   1.944  15.097 -0.0363 -0.1112 -0.6649
 5684TIP3    H138467   4.721   1.868  15.097  0.1284  0.0008  0.7747
 5684TIP3    H238468   4.687   1.991  15.017  3.3669  1.0425  0.8362
 5685TIP3   OH238469   0.945   2.097  16.976 -0.4648 -0.3540  0.3928
 5685TIP3    H138470   0.986   2.013  16.998  0.3803  0.0490  0.3881
 5685TIP3    H238471   0.980   2.118  16.890  0.3818  0.6522  0.9675
 5686TIP3   OH238472   4.442   5.377  14.304  0.0629 -0.0427 -0.3480
 5686TIP3    H138473   4.366   5.423  14.339 -0.5903 -1.9276  0.8415
 5686TIP3    H238474   4.417   5.353  14.215 -1.6827 -2.4988  0.6994
 5687TIP3   OH238475   1.884   5.369   4.026  0.5369 -0.1920 -0.3210
 5687TIP3    H138476   1.878   5.283   3.985  0.8761 -1.0859  1.4197
 5687TIP3    H238477   1.974   5.397   4.011  0.7082 -0.5930 -0.0460
 5688TIP3   OH238478   2.158   6.463   1.830  1.0764 -0.1181 -0.5039
 5688TIP3    H138479   2.077   6.481   1.877  1.2440 -1.8521  0.5206
 5688TIP3    H238480   2.224   6.453   1.899  1.5028 -1.8546 -1.1280
 5689TIP3   OH238481   2.296   5.169  14.370 -0.1607 -0.5543 -0.2777
 5689TIP3    H138482   2.213   5.186  14.415  0.4299  1.8683  0.0484
 5689TIP3    H238483   2.352   5.242  14.395  1.0015 -0.3539 -3.0901
 5690TIP3   OH238484   0.587   4.190   2.933 -0.3381  0.0141 -0.4161
 5690TIP3    H138485   0.558   4.254   2.999  1.3330  1.8119 -1.3081
 5690TIP3    H238486   0.662   4.147   2.973  0.0453  0.3753 -0.7401
 5691TIP3   OH238487   4.856   6.697   3.154  0.2973  0.6101  0.2132
 5691TIP3    H138488   4.807   6.735   3.227 -0.8199  0.3423 -0.3826
 5691TIP3    H238489   4.936   6.662   3.195 -0.5636 -0.0421  1.4140
 5692TIP3   OH238490   3.329   0.618   4.930 -0.4736 -0.1505 -0.3340
 5692TIP3    H138491   3.384   0.677   4.981 -1.1872  1.1171 -0.9898
 5692TIP3    H238492   3.243   0.622   4.971 -0.2054 -1.9430  0.5401
 5693TIP3   OH238493   4.891   3.920  10.705 -0.3275 -0.2781  0.2794
 5693TIP3    H138494   4.910   3.873  10.623  0.7389  0.9353 -0.2004
 5693TIP3    H238495   4.901   4.012  10.683  0.2032  0.0705  1.8281
 5694TIP3   OH238496   6.751   5.832  13.750 -0.5399  0.3690 -0.5657
 5694TIP3    H138497   6.660   5.842  13.777 -0.5295  2.3693 -1.1109
 5694TIP3    H238498   6.802   5.862  13.825 -0.3221 -0.2053 -0.4748
 5695TIP3   OH238499   4.561   1.130   3.738  0.0919  0.2066  0.1594
 5695TIP3    H138500   4.565   1.206   3.680 -0.3273 -1.2879 -1.9648
 5695TIP3    H238501   4.637   1.139   3.795  1.6263  0.8488 -1.8547
 5696TIP3   OH238502   1.579   0.894  17.039 -0.4563  1.0089 -0.0310
 5696TIP3    H138503   1.674   0.905  17.030 -0.4241  1.6305  0.9239
 5696TIP3    H238504   1.546   0.892  16.949  0.3384  1.9340 -0.3568
 5697TIP3   OH238505   4.683   4.789   2.518 -0.1468  0.1127  0.5243
 5697TIP3    H138506   4.766   4.837   2.516  0.1223 -0.2978  1.4892
 5697TIP3    H238507   4.621   4.847   2.473  0.9850 -0.2642 -1.6390
 5698TIP3   OH238508   3.691   0.745   4.623 -0.5178 -0.1600  0.1252
 5698TIP3    H138509   3.704   0.830   4.582 -0.8063  0.1902  0.7369
 5698TIP3    H238510   3.774   0.699   4.611 -0.4839  0.0685 -0.5292
 5699TIP3   OH238511   4.279   3.585   0.989  0.2481  0.0353 -0.0714
 5699TIP3    H138512   4.365   3.604   1.027  1.0839 -0.8663 -1.3782
 5699TIP3    H238513   4.231   3.667   0.996  0.4477 -0.0084  2.5559
 5700TIP3   OH238514   3.473   5.151  11.667 -0.1386  0.2108  0.9111
 5700TIP3    H138515   3.409   5.160  11.596 -1.6400  1.0824  2.2977
 5700TIP3    H238516   3.421   5.151  11.747  1.4968 -0.8078  2.0468
 5701TIP3   OH238517   3.390   0.318  13.743 -0.0391  0.2607  0.5040
 5701TIP3    H138518   3.388   0.302  13.648 -0.3989 -0.2294  0.5899
 5701TIP3    H238519   3.363   0.235  13.782  1.9480 -0.1356  1.1097
 5702TIP3   OH238520   3.728   1.977   5.624  0.0730 -0.5083 -0.0330
 5702TIP3    H138521   3.786   2.048   5.651 -1.0218 -0.2101  1.7109
 5702TIP3    H238522   3.776   1.932   5.554  1.4359  1.0153 -0.1538
 5703TIP3   OH238523   1.140   1.026  11.398 -0.2053 -0.6092  0.0447
 5703TIP3    H138524   1.114   1.078  11.475  0.6036  0.9177 -0.6519
 5703TIP3    H238525   1.185   0.950  11.435  1.2244  0.6862  1.1164
 5704TIP3   OH238526   3.889   5.097   1.380  0.0051  0.4194  0.1167
 5704TIP3    H138527   3.923   5.043   1.308 -1.5891  1.8765 -1.8369
 5704TIP3    H238528   3.838   5.036   1.434 -0.3153 -0.3716 -1.0499
 5705TIP3   OH238529   4.536   5.233  17.043  0.7512  0.0018 -0.1024
 5705TIP3    H138530   4.442   5.240  17.061  0.6257  0.4582 -0.8638
 5705TIP3    H238531   4.557   5.142  17.062  0.2052 -0.0439  0.3143
 5706TIP3   OH238532   1.012   4.579   0.734 -0.0260  0.0706 -0.4120
 5706TIP3    H138533   0.985   4.581   0.826  0.7213 -1.5071 -0.1280
 5706TIP3    H238534   1.090   4.523   0.733  0.0118  0.1143 -1.9963
 5707TIP3   OH238535   6.301   4.938   1.998  0.8861  0.1914  0.7452
 5707TIP3    H138536   6.258   4.914   2.081  0.0645  1.2178  0.6355
 5707TIP3    H238537   6.378   4.881   1.994 -0.6641 -2.0093  0.7456
 5708TIP3   OH238538   5.785   4.916   4.444 -0.7467  0.0779 -0.5259
 5708TIP3    H138539   5.816   4.993   4.397  0.0066 -0.6523 -1.2656
 5708TIP3    H238540   5.691   4.931   4.454 -0.3502  1.9735  1.0851
 5709TIP3   OH238541   1.550   4.815  12.766 -0.3987  0.0194 -0.4879
 5709TIP3    H138542   1.493   4.754  12.719 -1.4269  1.9987 -1.9521
 5709TIP3    H238543   1.629   4.820  12.713 -0.7172  0.6794 -0.9131
 5710TIP3   OH238544   6.337   3.975  12.952  0.1237 -0.2336  0.5239
 5710TIP3    H138545   6.294   4.026  13.020 -1.5127  0.1772 -0.7447
 5710TIP3    H238546   6.379   4.041  12.896  1.5078 -0.5662  1.1281
 5711TIP3   OH238547   4.582   4.959   0.402 -0.9083  0.5875  0.0033
 5711TIP3    H138548   4.516   4.916   0.457  0.8322 -0.0956  1.6541
 5711TIP3    H238549   4.627   4.888   0.357 -0.2147  0.9202  0.1564
 5712TIP3   OH238550   0.390   3.849  12.264 -0.0956  0.1452 -0.1394
 5712TIP3    H138551   0.378   3.944  12.257 -1.4099  0.2604  2.4747
 5712TIP3    H238552   0.305   3.812  12.240  0.4412 -0.4127 -1.2460
 5713TIP3   OH238553   3.239   0.002  15.618  0.2838 -0.1636  0.1924
 5713TIP3    H138554   3.152  -0.018  15.584  0.7581 -0.2562 -0.9985
 5713TIP3    H238555   3.268  -0.079  15.659 -0.3162 -0.0310  0.9057
 5714TIP3   OH238556   4.814   0.980  17.223 -0.5674 -0.1074 -0.7259
 5714TIP3    H138557   4.859   0.960  17.141 -0.7964  0.4441 -0.9915
 5714TIP3    H238558   4.869   1.047  17.265  0.2643 -1.3341  0.2153
 5715TIP3   OH238559   3.067   4.836  12.115  0.8038 -0.1939  0.6442
 5715TIP3    H138560   3.071   4.747  12.148 -2.7651 -1.0597 -0.7829
 5715TIP3    H238561   2.991   4.874  12.159  0.3126  1.0166 -1.1627
 5716TIP3   OH238562   0.999   2.170  14.561  0.1286 -0.2904  0.5468
 5716TIP3    H138563   0.952   2.175  14.644 -1.0750  1.3862 -0.1913
 5716TIP3    H238564   1.029   2.259  14.545  0.3158 -0.5837 -0.8358
 5717TIP3   OH238565   6.765   3.157  14.013 -0.1517  0.0872  0.2809
 5717TIP3    H138566   6.737   3.140  13.923 -0.6828  0.0116  0.4548
 5717TIP3    H238567   6.723   3.240  14.037  1.7935  1.3039 -0.2904
 5718TIP3   OH238568   2.945   4.558  12.944 -0.2225  0.1454  0.0304
 5718TIP3    H138569   2.932   4.486  12.883 -0.4381  1.1930 -1.1967
 5718TIP3    H238570   3.025   4.601  12.914 -0.3333  0.6785  0.4860
 5719TIP3   OH238571   5.037   3.216  12.255  0.1631  0.3566  0.2011
 5719TIP3    H138572   5.103   3.257  12.199  0.3185  1.2314  1.0184
 5719TIP3    H238573   4.957   3.265  12.237 -0.0430 -0.0509 -0.0285
 5720TIP3   OH238574   2.920   4.008  16.172 -0.7677 -0.6276 -0.0094
 5720TIP3    H138575   2.998   4.061  16.154  0.3447 -1.1854  2.5728
 5720TIP3    H238576   2.939   3.924  16.131  0.2598 -0.8991  0.9499
 5721TIP3   OH238577   4.110   2.439   5.274  0.8438 -0.1995 -0.3819
 5721TIP3    H138578   4.071   2.497   5.340 -1.7070 -1.7672 -0.4196
 5721TIP3    H238579   4.166   2.498   5.222 -2.6795  2.6524 -1.3371
 5722TIP3   OH238580   6.641   1.140  12.879 -0.2848 -0.3289 -0.2858
 5722TIP3    H138581   6.657   1.219  12.827  0.9101  0.9861  1.9076
 5722TIP3    H238582   6.550   1.150  12.910 -0.6075 -0.5370 -1.1551
 5723TIP3   OH238583   4.534   4.975   2.356  0.3998 -0.2533  0.1347
 5723TIP3    H138584   4.509   5.019   2.275 -1.0264  0.2778  0.8301
 5723TIP3    H238585   4.538   5.045   2.421  0.8424 -0.7731  0.6865
 5724TIP3   OH238586   3.174   4.049  14.341 -0.4930  0.4787 -0.3497
 5724TIP3    H138587   3.208   3.962  14.357 -0.6044  0.6866  1.1337
 5724TIP3    H238588   3.198   4.068  14.250 -2.3982 -1.9433 -1.4936
 5725TIP3   OH238589   4.037   0.224  15.664  0.3022 -0.2202  0.2576
 5725TIP3    H138590   4.017   0.289  15.597  1.4415 -0.6822 -0.5766
 5725TIP3    H238591   3.959   0.221  15.720 -0.7825 -0.0000 -1.1882
 5726TIP3   OH238592   0.197   1.439  15.405 -0.4053  0.2256  0.4073
 5726TIP3    H138593   0.258   1.495  15.357  0.5593 -0.1146  1.2081
 5726TIP3    H238594   0.111   1.480  15.391 -0.2574 -0.1383 -2.0015
 5727TIP3   OH238595   5.678   4.958   3.214 -0.0213 -0.3514  0.6818
 5727TIP3    H138596   5.716   5.029   3.162 -0.9665 -0.0688  0.3584
 5727TIP3    H238597   5.711   4.972   3.302  1.1310 -0.4910  0.2827
 5728TIP3   OH238598   0.030   0.973  12.482  0.0818  0.1189 -0.2339
 5728TIP3    H138599  -0.053   0.957  12.527 -0.0462  2.1670  0.3410
 5728TIP3    H238600   0.007   0.975  12.390 -0.5166  0.6832 -0.0779
 5729TIP3   OH238601   5.437   4.516   2.493  0.0434  0.4445 -0.6848
 5729TIP3    H138602   5.485   4.497   2.574  1.0608  4.4222 -0.1316
 5729TIP3    H238603   5.441   4.434   2.443  0.8609 -1.6635  2.5087
 5730TIP3   OH238604   2.322   1.664  16.322 -0.3698  0.4149 -0.4033
 5730TIP3    H138605   2.406   1.710  16.331  1.0240 -1.9665 -0.2780
 5730TIP3    H238606   2.285   1.663  16.410  0.3113  0.0414 -0.1130
 5731TIP3   OH238607   6.063   6.366  17.068 -0.2261 -0.2195  0.5727
 5731TIP3    H138608   6.049   6.454  17.033 -0.1961 -1.3843 -2.5964
 5731TIP3    H238609   6.105   6.381  17.153  2.6044  2.7872 -1.1438
 5732TIP3   OH238610   0.761   4.816   0.632 -0.0970  0.2627 -0.6285
 5732TIP3    H138611   0.688   4.863   0.592  0.2618  1.8976  0.5424
 5732TIP3    H238612   0.830   4.820   0.566 -0.6843 -0.3431 -1.3044
 5733TIP3   OH238613   6.372   5.241   1.926 -0.8208  0.3806  0.4317
 5733TIP3    H138614   6.293   5.244   1.872  0.1756 -0.4664 -1.1638
 5733TIP3    H238615   6.360   5.163   1.980 -1.4828  0.7899  0.8903
 5734TIP3   OH238616   0.309   1.070  16.040  0.2338 -0.2949  0.3220
 5734TIP3    H138617   0.397   1.107  16.033 -0.2504  0.6600 -1.2014
 5734TIP3    H238618   0.296   1.056  16.133  2.1513 -0.8497  0.5453
 5735TIP3   OH238619   3.856   5.984   6.424 -0.3479  0.2870  0.1220
 5735TIP3    H138620   3.852   6.074   6.394 -0.9665 -0.0992 -1.0232
 5735TIP3    H238621   3.783   5.940   6.380 -0.2851 -0.6900  0.9445
 5736TIP3   OH238622   1.573   5.836   3.188 -0.0758 -0.4153  0.0222
 5736TIP3    H138623   1.649   5.889   3.213  0.4690  0.1226 -2.4475
 5736TIP3    H238624   1.610   5.765   3.135 -1.1346 -1.3019  0.4406
 5737TIP3   OH238625   3.780   1.706   2.167 -0.4597 -0.4171 -0.2407
 5737TIP3    H138626   3.854   1.742   2.117 -2.6682  2.4532 -1.7457
 5737TIP3    H238627   3.775   1.762   2.245 -0.2897 -1.4433  0.5202
 5738TIP3   OH238628   4.308   5.384  16.641 -0.2310 -0.0646 -0.0578
 5738TIP3    H138629   4.325   5.293  16.665 -0.3321  0.0199  0.3475
 5738TIP3    H238630   4.213   5.390  16.636 -0.1917 -0.2927 -1.3416
 5739TIP3   OH238631   3.827   4.775   5.278 -0.0272 -1.2898  0.2261
 5739TIP3    H138632   3.789   4.862   5.268  1.0431 -0.9178 -0.8853
 5739TIP3    H238633   3.777   4.721   5.217 -2.1584 -2.0288  2.4434
 5740TIP3   OH238634   6.660   3.716  13.112  0.0086  0.2920 -1.0035
 5740TIP3    H138635   6.715   3.693  13.186 -0.7463 -1.0137 -0.8120
 5740TIP3    H238636   6.597   3.779  13.147 -1.3589 -1.4940 -0.0601
 5741TIP3   OH238637   5.492   5.988   0.339  0.6208 -0.2610 -0.1702
 5741TIP3    H138638   5.556   5.945   0.282 -0.2061 -0.2829 -1.1002
 5741TIP3    H238639   5.543   6.050   0.390  1.3291  0.0031 -1.1809
 5742TIP3   OH238640   1.742   0.939   5.411 -0.5475  1.1758  0.0475
 5742TIP3    H138641   1.660   0.945   5.361 -1.6132 -2.6182  1.0290
 5742TIP3    H238642   1.722   0.983   5.494 -0.8289  2.1556 -0.5240
 5743TIP3   OH238643   4.569   4.511   5.166  0.2505 -0.4186  0.2326
 5743TIP3    H138644   4.556   4.590   5.219  1.5933 -0.7556  1.1244
 5743TIP3    H238645   4.627   4.540   5.095  0.4737 -0.5149  0.3727
 5744TIP3   OH238646   4.985   5.548  11.000  0.4008  0.3734  0.6159
 5744TIP3    H138647   5.014   5.466  10.961  1.5326  0.3686  1.4172
 5744TIP3    H238648   4.896   5.560  10.967  0.4034 -0.9093  0.0822
 5745TIP3   OH238649   0.005   4.429  15.242 -0.1513  0.6051  0.6060
 5745TIP3    H138650  -0.010   4.419  15.336  0.2214 -0.5647  0.5621
 5745TIP3    H238651  -0.069   4.385  15.200  0.2482  0.1330  0.3722
 5746TIP3   OH238652   4.289   2.769   5.633  0.0984 -0.3903  0.3235
 5746TIP3    H138653   4.259   2.707   5.700  1.0642 -1.8066 -0.4782
 5746TIP3    H238654   4.245   2.740   5.553 -1.2904  1.4788  0.3545
 5747TIP3   OH238655   6.253   5.173   4.201  0.1137  0.2146 -0.4187
 5747TIP3    H138656   6.283   5.244   4.258 -0.8122 -0.2910  0.7254
 5747TIP3    H238657   6.331   5.118   4.189  0.6966  1.1004 -0.8746
 5748TIP3   OH238658   5.131   1.342  14.038 -0.2998 -0.0426  0.4943
 5748TIP3    H138659   5.074   1.274  14.075 -0.7861  0.3200  0.4208
 5748TIP3    H238660   5.188   1.367  14.111 -1.5416  0.9731  1.1479
 5749TIP3   OH238661   3.312   0.197   0.729 -0.0335  0.1967 -0.2553
 5749TIP3    H138662   3.340   0.108   0.751 -0.7006 -0.3081 -1.3891
 5749TIP3    H238663   3.392   0.241   0.700  0.4406  0.2134  1.0415
 5750TIP3   OH238664   1.407   5.665   1.636  0.2876  0.6451 -0.0963
 5750TIP3    H138665   1.398   5.754   1.601  1.3005 -0.1424 -2.6073
 5750TIP3    H238666   1.488   5.632   1.597 -0.8001 -1.8589 -0.4178
 5751TIP3   OH238667   2.931   6.683  13.897 -0.1122 -0.1432 -0.2655
 5751TIP3    H138668   2.989   6.672  13.972  0.8745 -0.1088 -0.9963
 5751TIP3    H238669   2.976   6.746  13.841 -1.1019  0.2667 -0.6244
 5752TIP3   OH238670   5.730   1.308   0.938 -0.0174 -0.8590  0.2702
 5752TIP3    H138671   5.790   1.346   0.873  0.4180  1.7991  2.0879
 5752TIP3    H238672   5.644   1.340   0.912 -0.0685 -1.0780  0.1613
 5753TIP3   OH238673   4.401   5.645  15.594  0.0527  0.0334  0.2532
 5753TIP3    H138674   4.340   5.638  15.667 -0.5004  2.6888  0.1619
 5753TIP3    H238675   4.465   5.710  15.624  1.1844 -0.5964 -0.7452
 5754TIP3   OH238676   0.744   1.802   1.740 -0.7956 -0.4390  0.5092
 5754TIP3    H138677   0.788   1.752   1.809  0.1806  0.4897  0.6006
 5754TIP3    H238678   0.658   1.763   1.733 -1.0001 -0.4523  2.4087
 5755TIP3   OH238679   3.691   2.143   2.809 -0.1853  0.4159 -0.5690
 5755TIP3    H138680   3.653   2.138   2.897  0.8280  2.7574  0.0864
 5755TIP3    H238681   3.725   2.056   2.793 -2.7546 -0.8243  0.2018
 5756TIP3   OH238682   1.915   6.212   4.560  0.3602  0.0329 -0.2494
 5756TIP3    H138683   1.860   6.136   4.546  0.9316 -0.5050  0.3265
 5756TIP3    H238684   1.982   6.182   4.622  1.7661  0.4339 -1.5344
 5757TIP3   OH238685   1.770   4.722  15.876 -0.8992 -0.0537 -0.2189
 5757TIP3    H138686   1.804   4.755  15.960 -0.7081 -1.8473  0.4379
 5757TIP3    H238687   1.682   4.759  15.871 -0.1417  1.8886 -0.3324
 5758TIP3   OH238688   3.221   6.151   3.523 -0.0342  0.4331 -0.3122
 5758TIP3    H138689   3.250   6.159   3.613 -2.4961 -1.1119  0.7361
 5758TIP3    H238690   3.230   6.058   3.502 -1.5668  0.3568 -0.8226
 5759TIP3   OH238691   2.255   0.436   5.998 -0.0010 -0.1310  0.1325
 5759TIP3    H138692   2.258   0.474   6.086  2.0294 -1.9226  0.9183
 5759TIP3    H238693   2.182   0.375   6.000 -1.7906  1.8787 -0.4063
 5760TIP3   OH238694   2.892   1.136   6.028 -0.0549  0.4299  0.4388
 5760TIP3    H138695   2.941   1.193   6.086 -0.8204  0.0167  1.5274
 5760TIP3    H238696   2.950   1.121   5.953  1.3291  0.2270  1.5160
 5761TIP3   OH238697   2.190   3.783  14.702 -0.0543  0.4344 -0.3940
 5761TIP3    H138698   2.261   3.759  14.761  0.7626  1.0072 -1.1295
 5761TIP3    H238699   2.112   3.744  14.742  0.6673 -0.2384  0.4019
 5762TIP3   OH238700   1.815   2.849   0.429 -0.1324  0.6959 -0.4394
 5762TIP3    H138701   1.748   2.861   0.361 -0.1890  0.4918 -0.4192
 5762TIP3    H238702   1.776   2.889   0.507  0.3902  1.9403 -0.7973
 5763TIP3   OH238703   5.955   1.498   0.877  0.3938 -0.0239 -0.5718
 5763TIP3    H138704   6.040   1.541   0.878 -0.1428  1.1339 -1.6248
 5763TIP3    H238705   5.969   1.418   0.826  1.1679 -0.5997  0.5200
 5764TIP3   OH238706   5.508   2.488  11.432 -0.4446 -0.3099  0.1080
 5764TIP3    H138707   5.460   2.455  11.508  0.1826  1.1829  1.2153
 5764TIP3    H238708   5.440   2.504  11.366 -1.0807 -1.0002  0.5802
 5765TIP3   OH238709   0.021   5.164   3.366 -0.1364  0.0225 -0.6511
 5765TIP3    H138710  -0.046   5.209   3.418  0.9004 -0.2867  1.0256
 5765TIP3    H238711   0.065   5.106   3.428  1.2875 -0.2495 -1.8485
 5766TIP3   OH238712   6.461   5.081  14.207 -0.6699  0.1307 -0.1712
 5766TIP3    H138713   6.512   5.001  14.221  2.2351  2.3130  3.2392
 5766TIP3    H238714   6.455   5.089  14.112  0.4780 -3.1288 -0.6442
 5767TIP3   OH238715   5.309   6.071  14.739 -0.2330 -0.2965  0.0659
 5767TIP3    H138716   5.390   6.116  14.713 -0.1763 -0.1649  0.4620
 5767TIP3    H238717   5.318   6.060  14.834 -2.0536  2.5740  0.6974
 5768TIP3   OH238718   5.737   3.576   1.103  0.1592 -0.1595 -0.1809
 5768TIP3    H138719   5.766   3.641   1.039  1.1994 -1.3882 -0.9960
 5768TIP3    H238720   5.643   3.566   1.087  0.5459 -1.0887 -2.1538
 5769TIP3   OH238721   1.297   0.152  11.160 -0.8237  0.1042 -0.3846
 5769TIP3    H138722   1.356   0.193  11.097 -0.3942 -1.1028 -0.7927
 5769TIP3    H238723   1.221   0.211  11.164  0.2031  1.4541 -0.1722
 5770TIP3   OH238724   1.764   2.596   5.923  0.1076 -0.6358 -0.3991
 5770TIP3    H138725   1.819   2.562   5.852 -0.7087 -1.1074 -0.8151
 5770TIP3    H238726   1.809   2.675   5.952  3.7542 -3.4269  2.6149
 5771TIP3   OH238727   6.337   6.240  16.628 -0.1683 -0.2259 -0.3456
 5771TIP3    H138728   6.296   6.326  16.639  0.5665  0.1608 -0.5867
 5771TIP3    H238729   6.335   6.202  16.716 -1.9135 -0.6245 -0.5251
 5772TIP3   OH238730   5.323   0.683  14.987  0.3945 -0.8718  0.2714
 5772TIP3    H138731   5.396   0.745  14.992 -0.5164  0.1322  2.4363
 5772TIP3    H238732   5.275   0.708  14.908  1.5857 -0.6731 -0.4238
 5773TIP3   OH238733   5.806   1.182   1.704 -0.1201 -0.3337 -0.4806
 5773TIP3    H138734   5.831   1.130   1.628  0.6257  0.2351 -0.6358
 5773TIP3    H238735   5.863   1.150   1.774 -1.4854 -1.5609  0.1389
 5774TIP3   OH238736   2.748   4.934  15.201  0.2236 -0.0039 -0.2988
 5774TIP3    H138737   2.842   4.928  15.222  0.0220  0.6007  0.8740
 5774TIP3    H238738   2.733   5.027  15.186 -0.4318  0.0964  0.8448
 5775TIP3   OH238739   5.016   6.734  15.315 -0.0516 -0.3317  0.2380
 5775TIP3    H138740   4.967   6.676  15.257 -1.3538  0.8759  0.0964
 5775TIP3    H238741   5.105   6.697  15.317 -0.4531 -1.4139 -1.0702
 5776TIP3   OH238742   3.033   4.782   2.017 -0.0175  0.4886 -0.4726
 5776TIP3    H138743   2.989   4.823   2.092 -0.8972 -0.9993 -0.1414
 5776TIP3    H238744   3.121   4.764   2.047  0.2938  1.8476 -0.5287
 5777TIP3   OH238745   1.420   1.490   2.046  0.1376  0.0250  0.7012
 5777TIP3    H138746   1.514   1.504   2.058  0.3179  1.4920 -1.8181
 5777TIP3    H238747   1.415   1.425   1.976 -0.6813  1.0912 -0.2631
 5778TIP3   OH238748   1.643   5.119  12.004  0.3349 -0.1852 -0.4037
 5778TIP3    H138749   1.557   5.133  11.965  1.7631  0.9375 -3.4600
 5778TIP3    H238750   1.626   5.064  12.081 -3.2419  1.2730  0.0459
 5779TIP3   OH238751   1.377   4.766   1.478  0.5064 -0.2022  0.0672
 5779TIP3    H138752   1.383   4.677   1.513 -0.7013 -1.0340 -1.6452
 5779TIP3    H238753   1.440   4.768   1.406 -0.7489 -0.3471 -1.0966
 5780TIP3   OH238754   2.306   3.770   1.164 -0.0693  0.2042  0.1391
 5780TIP3    H138755   2.214   3.787   1.145  0.9024  2.2165 -3.6834
 5780TIP3    H238756   2.327   3.692   1.114  0.8401  1.2809 -1.2336
 5781TIP3   OH238757   4.709   0.365   5.763  0.4371 -0.4870  0.6407
 5781TIP3    H138758   4.805   0.365   5.758  0.4033  0.0325 -0.1489
 5781TIP3    H238759   4.690   0.360   5.857  1.2184 -1.9632  0.7484
 5782TIP3   OH238760   4.082   5.380   1.076 -0.1830  0.0843  0.3548
 5782TIP3    H138761   4.125   5.454   1.032 -0.1323  0.8600  1.6708
 5782TIP3    H238762   3.989   5.391   1.054  0.0227 -0.4573 -0.8540
 5783TIP3   OH238763   1.060   1.293  14.873 -0.3829 -0.0298  0.1004
 5783TIP3    H138764   0.981   1.266  14.921 -1.2854  0.0768 -1.2439
 5783TIP3    H238765   1.026   1.340  14.796  1.0508  1.6227  0.4037
 5784TIP3   OH238766   6.605   4.298  12.509  0.1987  0.8724  0.3036
 5784TIP3    H138767   6.640   4.300  12.598 -0.1583  0.2461  0.4700
 5784TIP3    H238768   6.655   4.364  12.462  2.1252 -0.4827  0.3225
 5785TIP3   OH238769   2.954   0.354  15.183 -0.3022 -0.7373  0.0294
 5785TIP3    H138770   2.954   0.290  15.112  1.0284  0.5006 -1.1536
 5785TIP3    H238771   2.870   0.399  15.175  0.0492 -0.2589 -1.1230
 5786TIP3   OH238772   6.647   0.628  14.246 -0.0450 -0.4203  0.1173
 5786TIP3    H138773   6.647   0.659  14.155  0.4014 -0.0889  0.2340
 5786TIP3    H238774   6.612   0.539  14.240  1.5106 -1.0128 -0.5860
 5787TIP3   OH238775   0.850   3.357   0.280  0.3368 -0.3735  0.5955
 5787TIP3    H138776   0.944   3.377   0.275  0.3813 -0.5575  0.6965
 5787TIP3    H238777   0.807   3.437   0.248  0.5676 -0.7584 -0.7492
 5788TIP3   OH238778   4.466   5.589   2.609  0.2589  0.5050  0.1622
 5788TIP3    H138779   4.431   5.600   2.697 -0.2565  0.7926 -0.0751
 5788TIP3    H238780   4.390   5.597   2.551  0.8083  2.0562 -0.4125
 5789TIP3   OH238781   0.640   4.703  16.401  0.0609  0.6163  0.0800
 5789TIP3    H138782   0.609   4.704  16.491  0.1400  1.3635  0.1038
 5789TIP3    H238783   0.672   4.614  16.388  0.8885  0.7374  1.0870
 5790TIP3   OH238784   1.213   2.868  14.602  0.2568  0.0322 -0.3388
 5790TIP3    H138785   1.293   2.851  14.652  0.2459 -0.6665 -0.5519
 5790TIP3    H238786   1.219   2.810  14.526 -1.7588 -2.1863  1.0457
 5791TIP3   OH238787   4.127   1.409  17.112  0.5072  0.3591  0.4588
 5791TIP3    H138788   4.195   1.470  17.140  0.8256  0.2687 -0.0960
 5791TIP3    H238789   4.076   1.458  17.048  0.0226  0.4388  0.9017
 5792TIP3   OH238790   6.668   6.292  14.402 -0.0331  0.8230  0.4259
 5792TIP3    H138791   6.756   6.257  14.414 -0.7034 -0.7277  0.9938
 5792TIP3    H238792   6.627   6.232  14.340 -1.8335 -0.6380  2.8641
 5793TIP3   OH238793   4.524   2.692  14.722 -0.5791  0.1754 -0.0714
 5793TIP3    H138794   4.433   2.700  14.694 -0.0058 -1.2251 -2.6085
 5793TIP3    H238795   4.566   2.639  14.654  1.3323 -2.3432  2.7723
 5794TIP3   OH238796   2.209   0.971   0.966  0.0438 -0.3054  0.3545
 5794TIP3    H138797   2.192   1.033   1.037  0.8567  0.3647 -0.0241
 5794TIP3    H238798   2.122   0.945   0.936 -0.3084  0.7033  0.4727
 5795TIP3   OH238799   3.445   6.782  12.354 -1.0195 -0.1918 -0.4913
 5795TIP3    H138800   3.519   6.826  12.397 -0.5778 -0.0629 -1.3588
 5795TIP3    H238801   3.466   6.689  12.358 -1.1383 -0.2039 -0.1406
 5796TIP3   OH238802   6.151   1.129  12.096 -0.8711  0.0332 -0.0487
 5796TIP3    H138803   6.167   1.195  12.164 -0.9481  0.7203 -0.6821
 5796TIP3    H238804   6.196   1.164  12.018 -0.5052 -0.8975 -0.2688
 5797TIP3   OH238805   5.990   3.463  12.852  0.0668  0.2796  0.4469
 5797TIP3    H138806   6.030   3.393  12.905  0.8999  0.3292 -0.0956
 5797TIP3    H238807   6.056   3.532  12.851 -0.4298  0.7563  0.3167
 5798TIP3   OH238808   6.026   4.493   4.478  0.3523  0.9041  0.3050
 5798TIP3    H138809   6.060   4.515   4.391 -0.8633 -2.9296 -1.3754
 5798TIP3    H238810   5.942   4.539   4.483 -1.0670 -1.1438 -2.0655
 5799TIP3   OH238811   2.190   0.274   5.207  0.4707 -0.1407 -0.5891
 5799TIP3    H138812   2.247   0.299   5.135 -0.6366  0.1908 -1.3893
 5799TIP3    H238813   2.152   0.190   5.179  2.8856 -2.0007  1.3259
 5800TIP3   OH238814   2.750   2.792  13.523  0.2456  0.3429 -0.2740
 5800TIP3    H138815   2.709   2.849  13.588 -1.5677  1.3206 -2.1451
 5800TIP3    H238816   2.737   2.837  13.440  0.6453 -1.8129 -1.5867
 5801TIP3   OH238817   0.243   2.857   4.864 -0.2330 -0.3624 -0.3399
 5801TIP3    H138818   0.315   2.809   4.904 -0.2270 -0.9004 -0.9741
 5801TIP3    H238819   0.255   2.843   4.770  0.8474  2.3534 -0.7128
 5802TIP3   OH238820   5.128   6.173   0.917  0.3357 -0.1108  0.6260
 5802TIP3    H138821   5.115   6.093   0.866  0.7545 -0.0916  0.4850
 5802TIP3    H238822   5.059   6.171   0.983  0.3396 -0.5806  0.6171
 5803TIP3   OH238823   5.721   5.769  12.025  0.2992  0.1388  0.0637
 5803TIP3    H138824   5.650   5.823  12.059 -0.2410 -0.9059  0.6655
 5803TIP3    H238825   5.786   5.767  12.095  0.5127  0.3587 -0.1273
 5804TIP3   OH238826   6.166   4.872   2.260 -0.0203 -0.5855 -0.0810
 5804TIP3    H138827   6.084   4.913   2.287  1.1572  0.5628  1.9986
 5804TIP3    H238828   6.139   4.804   2.198 -2.6116 -0.8375  1.1692
 5805TIP3   OH238829   0.042   4.960   3.076  0.0491  1.1142 -0.2535
 5805TIP3    H138830  -0.013   4.999   3.009 -0.2576  1.2093  0.0516
 5805TIP3    H238831   0.032   5.017   3.152 -0.7341  0.2313  0.3356
 5806TIP3   OH238832   0.852   5.748   3.360  0.2941 -0.2144  0.4874
 5806TIP3    H138833   0.802   5.825   3.388 -0.9222  0.0719 -2.1404
 5806TIP3    H238834   0.786   5.689   3.324  1.3545 -2.0115  1.3796
 5807TIP3   OH238835   6.194   0.056   3.992 -0.3446 -0.2659  0.3843
 5807TIP3    H138836   6.259   0.082   4.057  0.7401  1.9993 -1.4302
 5807TIP3    H238837   6.119   0.113   4.009  0.7405  1.9087 -1.4893
 5808TIP3   OH238838   0.461   5.850  13.257 -0.4805  0.3621  0.0610
 5808TIP3    H138839   0.390   5.860  13.195 -0.9131 -0.4347  0.4168
 5808TIP3    H238840   0.423   5.802  13.330  1.2910 -3.5759 -1.3530
 5809TIP3   OH238841   6.424   6.369  12.397 -0.3653 -0.1955  0.5686
 5809TIP3    H138842   6.436   6.462  12.378  0.8340 -0.0776  1.7644
 5809TIP3    H238843   6.405   6.366  12.491 -1.5384 -1.0841  0.3282
 5810TIP3   OH238844   1.978   1.455   1.588 -0.1885  0.6598  0.3833
 5810TIP3    H138845   2.064   1.417   1.607  0.9780  2.7201 -0.4967
 5810TIP3    H238846   1.955   1.505   1.667 -0.7176 -0.0546  0.6998
 5811TIP3   OH238847   4.477   2.443  16.175  0.1354 -0.4086 -0.3017
 5811TIP3    H138848   4.559   2.460  16.130  0.1532 -1.8211 -0.8497
 5811TIP3    H238849   4.412   2.436  16.105 -0.0152 -1.6393 -0.0648
 5812TIP3   OH238850   2.019   2.453  12.021  0.0368 -0.0913 -0.2713
 5812TIP3    H138851   2.034   2.534  12.070 -1.3483 -0.3676  0.6682
 5812TIP3    H238852   2.059   2.385  12.075  1.0522 -0.0805 -0.9795
 5813TIP3   OH238853   6.126   5.049   5.848  0.1754  0.1303  0.3561
 5813TIP3    H138854   6.161   5.030   5.935 -0.6753 -0.2080  0.6423
 5813TIP3    H238855   6.043   5.002   5.846  0.7203 -0.8030 -1.0815
 5814TIP3   OH238856   1.150   3.466   3.074  0.0919  0.1900  0.5169
 5814TIP3    H138857   1.178   3.379   3.047 -0.5635  0.8535 -2.7848
 5814TIP3    H238858   1.217   3.495   3.137  1.7238 -1.6929 -0.2520
 5815TIP3   OH238859   4.682   3.818  15.622 -0.6751 -0.5597 -0.0071
 5815TIP3    H138860   4.592   3.787  15.633 -1.2792  1.5341  1.3965
 5815TIP3    H238861   4.686   3.852  15.533 -1.9031  1.1379  0.5489
 5816TIP3   OH238862   3.756   6.749   5.189 -0.0134  0.4365  0.3003
 5816TIP3    H138863   3.691   6.728   5.123 -1.2023  0.3483  1.4591
 5816TIP3    H238864   3.817   6.808   5.145  0.4445 -1.2606 -1.4680
 5817TIP3   OH238865   6.393   0.062   3.257 -0.3204  0.0526  0.2625
 5817TIP3    H138866   6.449  -0.010   3.286  1.3433  0.9767 -0.4611
 5817TIP3    H238867   6.310   0.021   3.235  0.6679 -1.7051 -0.4030
 5818TIP3   OH238868   0.480   6.045   1.776 -0.1830  0.2283 -0.6610
 5818TIP3    H138869   0.548   5.987   1.742 -0.7815  0.0861 -1.6720
 5818TIP3    H238870   0.523   6.095   1.846  0.6964 -0.4969 -0.6739
 5819TIP3   OH238871   4.451   3.918  16.806  0.3378  0.2216 -0.1243
 5819TIP3    H138872   4.465   3.856  16.877  0.5551  1.2827  0.8010
 5819TIP3    H238873   4.407   3.992  16.848 -1.1702  0.1364 -1.4695
 5820TIP3   OH238874   0.021   1.301  10.655  0.0103 -0.4064  0.1085
 5820TIP3    H138875  -0.027   1.265  10.581  0.7402 -1.9177  0.3387
 5820TIP3    H238876  -0.024   1.383  10.675 -1.4018 -0.9427 -0.7518
 5821TIP3   OH238877   3.265   3.201  16.119 -0.1439 -0.5246  0.8590
 5821TIP3    H138878   3.350   3.211  16.161 -0.3683 -1.1115  1.4781
 5821TIP3    H238879   3.209   3.268  16.158  0.3533  0.7305 -0.4835
 5822TIP3   OH238880   1.678   3.135  12.959  0.5606  0.9966  0.0104
 5822TIP3    H138881   1.697   3.106  12.870 -2.4207 -0.4275 -0.2814
 5822TIP3    H238882   1.650   3.056  13.005  0.7263  1.9427  1.8450
 5823TIP3   OH238883   6.035   3.921  11.336 -0.1447  0.7529  0.1251
 5823TIP3    H138884   5.980   3.854  11.377  1.0732 -0.0849  0.4469
 5823TIP3    H238885   6.047   3.891  11.246  2.8270 -1.1495  1.0105
 5824TIP3   OH238886   3.000   0.068  12.707 -0.2687 -0.3315  0.1727
 5824TIP3    H138887   3.050   0.114  12.640  0.1043  0.3529  0.9062
 5824TIP3    H238888   3.025  -0.024  12.696  0.1030 -0.1723 -0.3631
 5825TIP3   OH238889   6.046   4.425  11.530 -0.1517  0.1441  0.0617
 5825TIP3    H138890   6.043   4.330  11.519  2.3958  0.1730 -1.7316
 5825TIP3    H238891   6.067   4.437  11.623  1.8861 -1.2138 -0.1459
 5826TIP3   OH238892   5.120   5.539   0.624 -0.1562  0.1314 -0.0274
 5826TIP3    H138893   5.029   5.557   0.600  0.2117  0.7444 -1.0456
 5826TIP3    H238894   5.134   5.448   0.600 -0.2653  0.2798 -0.6799
 5827TIP3   OH238895   5.217   4.719  11.648  0.3562  0.3400  0.0766
 5827TIP3    H138896   5.136   4.668  11.642  0.9023 -0.6006  0.3449
 5827TIP3    H238897   5.196   4.803  11.608 -0.8098  0.1924  0.3407
 5828TIP3   OH238898   0.278   4.237   2.585 -0.0071  0.4272 -0.7488
 5828TIP3    H138899   0.304   4.176   2.655  2.5134  0.2085 -1.7521
 5828TIP3    H238900   0.322   4.319   2.609 -0.7071  0.9114 -1.1029
 5829TIP3   OH238901   2.557   5.642   4.836  0.3511  0.6584 -0.3437
 5829TIP3    H138902   2.569   5.579   4.765 -2.8294 -0.0868 -0.3515
 5829TIP3    H238903   2.562   5.728   4.794 -2.7662  0.2139 -1.8393
 5830TIP3   OH238904   0.513   3.320  16.806  0.1510  0.6024  0.1894
 5830TIP3    H138905   0.460   3.249  16.841  1.8899  0.4545  2.7566
 5830TIP3    H238906   0.506   3.390  16.872  1.5224  1.3433 -0.4047
 5831TIP3   OH238907   5.463   2.461   5.248  0.1559  0.1547 -1.0522
 5831TIP3    H138908   5.468   2.467   5.344 -0.6627  1.8326 -1.0909
 5831TIP3    H238909   5.552   2.479   5.218  0.0412  1.4217 -0.6636
 5832TIP3   OH238910   1.660   1.497   2.178  0.3427 -0.2955  0.2012
 5832TIP3    H138911   1.738   1.448   2.205  0.7215 -0.6514 -1.4508
 5832TIP3    H238912   1.680   1.587   2.203  0.1430 -0.7543  2.1794
 5833TIP3   OH238913   4.919   1.369   2.255  0.2081  0.4346 -0.0026
 5833TIP3    H138914   4.903   1.460   2.281 -1.3747  0.5375 -1.1975
 5833TIP3    H238915   5.003   1.371   2.211 -0.6354  1.7351 -1.6856
 5834TIP3   OH238916   2.633   3.543  16.391 -0.0924  0.0568  0.9318
 5834TIP3    H138917   2.659   3.634  16.377 -0.3464  0.0599  0.4522
 5834TIP3    H238918   2.679   3.517  16.471  2.0325 -0.2019 -0.3026
 5835TIP3   OH238919   2.944   0.966  13.596 -0.0420  0.5310  0.2721
 5835TIP3    H138920   2.930   1.012  13.679  1.3921  0.1273  0.7686
 5835TIP3    H238921   2.965   0.876  13.623  1.0069  0.5360 -0.4890
 5836TIP3   OH238922   5.868   6.559   2.824 -0.1235 -0.0245  0.4432
 5836TIP3    H138923   5.846   6.638   2.774  0.0205 -1.3118 -1.7824
 5836TIP3    H238924   5.883   6.591   2.913 -0.7286  2.3514 -0.2244
 5837TIP3   OH238925   0.622   6.474   4.394 -0.4459  0.7417 -0.6598
 5837TIP3    H138926   0.632   6.537   4.464  0.2273 -1.1908  1.0748
 5837TIP3    H238927   0.537   6.433   4.411  0.1993 -0.4893 -0.2805
 5838TIP3   OH238928   5.313   4.130  12.638  0.4228 -0.0882  0.2357
 5838TIP3    H138929   5.292   4.103  12.549 -1.2387  0.6170  0.3876
 5838TIP3    H238930   5.280   4.059  12.693 -0.8887  0.6429  0.4249
 5839TIP3   OH238931   4.587   5.357  14.818  0.4313 -0.6603  0.1628
 5839TIP3    H138932   4.681   5.372  14.812  0.4236 -0.6891 -0.0474
 5839TIP3    H238933   4.578   5.266  14.845  0.4699 -0.4872  0.7616
 5840TIP3   OH238934   4.502   0.258  15.970  0.0952 -0.0745 -0.0343
 5840TIP3    H138935   4.451   0.261  15.888  0.4026 -0.8667 -0.2606
 5840TIP3    H238936   4.435   0.258  16.039 -0.1674  0.6060 -0.2750
 5841TIP3   OH238937   1.482   0.258   1.599  0.2554 -0.9179  0.3054
 5841TIP3    H138938   1.574   0.253   1.572  0.5467 -2.1117  1.4077
 5841TIP3    H238939   1.477   0.334   1.656  0.1956  0.0754 -0.9743
 5842TIP3   OH238940   0.115   0.287  15.532  0.5006  0.0673 -0.8077
 5842TIP3    H138941   0.048   0.272  15.464 -0.7655 -1.2501  0.6487
 5842TIP3    H238942   0.085   0.365  15.579 -0.2929 -0.7733  0.1193
 5843TIP3   OH238943   2.219   1.224   5.262 -0.3564  0.1321 -0.2520
 5843TIP3    H138944   2.303   1.269   5.260  0.0138 -0.5935 -1.2486
 5843TIP3    H238945   2.226   1.155   5.196 -1.0293 -1.2018  1.0013
 5844TIP3   OH238946   6.644   1.191  10.453  0.5055 -0.2840 -0.5454
 5844TIP3    H138947   6.586   1.115  10.459  1.1282 -0.6872  0.5651
 5844TIP3    H238948   6.590   1.259  10.413 -0.3975 -0.9787 -0.5455
 5845TIP3   OH238949   4.691   2.571   3.266 -0.1830  0.1314 -0.1493
 5845TIP3    H138950   4.701   2.534   3.178 -1.7048 -0.2448 -0.1996
 5845TIP3    H238951   4.738   2.511   3.323  0.0176 -0.1400 -0.5947
 5846TIP3   OH238952   2.020   6.474   4.448 -0.4951 -0.4431 -0.0775
 5846TIP3    H138953   1.993   6.408   4.511 -1.9010 -1.2457 -1.4535
 5846TIP3    H238954   2.065   6.425   4.379  0.5520  0.3477  0.0256
 5847TIP3   OH238955   3.328   0.736  12.436  0.1861  0.0532  0.8558
 5847TIP3    H138956   3.267   0.800  12.399  0.7950  0.1487 -0.0325
 5847TIP3    H238957   3.364   0.779  12.514 -0.8929 -0.0243  1.4165
 5848TIP3   OH238958   2.258   1.937   1.185  0.4196  0.0499 -0.3859
 5848TIP3    H138959   2.273   1.844   1.168 -2.0712 -0.6790  0.8340
 5848TIP3    H238960   2.220   1.970   1.104  1.0793 -0.0339 -0.7386
 5849TIP3   OH238961   2.401   0.638   0.479  0.2166 -0.6355  0.1253
 5849TIP3    H138962   2.440   0.697   0.415  1.6301 -0.8901  0.7250
 5849TIP3    H238963   2.441   0.662   0.563 -1.1421 -0.7209  0.8406
 5850TIP3   OH238964   1.129   4.240  12.402 -0.6155  0.3839 -0.4791
 5850TIP3    H138965   1.121   4.301  12.329  0.5756  0.5139 -0.5139
 5850TIP3    H238966   1.221   4.216  12.404 -0.5822  0.5359  1.1153
 5851TIP3   OH238967   5.895   3.682   5.487 -0.2540  0.0758  0.4892
 5851TIP3    H138968   5.811   3.727   5.495 -0.8173 -0.5655 -1.1956
 5851TIP3    H238969   5.924   3.667   5.577 -0.8623  2.2435  1.1054
 5852TIP3   OH238970   6.680   4.589   5.692 -0.1879  0.2844  0.1235
 5852TIP3    H138971   6.674   4.647   5.768 -1.6684 -2.2676  2.1278
 5852TIP3    H238972   6.683   4.501   5.729 -1.6240 -1.1390 -2.7599
 5853TIP3   OH238973   3.379   2.893  12.586  0.3850  0.5905  0.0007
 5853TIP3    H138974   3.366   2.935  12.671  1.4795  0.3457  0.3068
 5853TIP3    H238975   3.309   2.828  12.580 -0.0856  1.0537  0.4222
 5854TIP3   OH238976   5.723   5.286  14.855  0.0069  0.9793  0.5370
 5854TIP3    H138977   5.641   5.326  14.826 -0.7513 -1.0265 -0.2899
 5854TIP3    H238978   5.782   5.293  14.780 -0.6487 -0.7422 -0.1851
 5855TIP3   OH238979   5.395   2.785   2.409  0.2156 -0.1149 -0.9683
 5855TIP3    H138980   5.424   2.873   2.432 -0.0636 -0.0690 -0.7885
 5855TIP3    H238981   5.351   2.795   2.325  0.1813 -0.0807 -0.9465
 5856TIP3   OH238982   3.976   0.125  13.404  0.2980 -0.1250 -0.4597
 5856TIP3    H138983   3.904   0.161  13.353 -1.9394 -3.2143  0.2228
 5856TIP3    H238984   4.037   0.091  13.339 -1.2995 -1.7754 -1.1762
 5857TIP3   OH238985   3.711   2.537   0.611 -0.1316  0.0770 -0.3108
 5857TIP3    H138986   3.762   2.608   0.651 -0.8106 -0.0766  0.8833
 5857TIP3    H238987   3.776   2.474   0.581  0.4158  0.3607  0.2603
 5858TIP3   OH238988   1.260   1.938  16.992  0.1977  0.5622  0.0683
 5858TIP3    H138989   1.212   1.968  16.916 -0.6971 -0.5263  0.1728
 5858TIP3    H238990   1.192   1.919  17.057  0.9779  2.2980  1.4737
 5859TIP3   OH238991   3.469   3.594   2.858 -0.1085  0.1388 -0.6717
 5859TIP3    H138992   3.524   3.642   2.796  1.1086  0.9361  0.9618
 5859TIP3    H238993   3.529   3.566   2.927 -1.6524  0.5755  0.9070
 5860TIP3   OH238994   4.978   4.133  16.371  0.5967 -0.7793  0.1479
 5860TIP3    H138995   4.909   4.083  16.328  1.5930 -2.7854  0.7727
 5860TIP3    H238996   4.957   4.224  16.352 -2.0912 -1.3217  0.1627
 5861TIP3   OH238997   5.514   2.267   1.167 -0.1124  0.6455  0.0666
 5861TIP3    H138998   5.475   2.207   1.103  0.1055 -1.8759  2.1249
 5861TIP3    H238999   5.563   2.330   1.114 -2.3726  0.5412 -2.3365
 5862TIP3   OH239000   6.774   2.796   0.816  0.5561  0.0821 -0.1644
 5862TIP3    H139001   6.740   2.725   0.870  3.5036 -2.3094 -1.1320
 5862TIP3    H239002   6.803   2.862   0.878 -1.4220  0.1132  0.8136
 5863TIP3   OH239003   0.272   2.740   4.205  0.0491  0.2742  0.2488
 5863TIP3    H139004   0.288   2.669   4.266 -2.3967 -0.2773  0.3480
 5863TIP3    H239005   0.325   2.718   4.128  1.0496 -0.4596  1.1300
 5864TIP3   OH239006   4.992   5.312  15.489  0.0877 -0.0497 -0.3913
 5864TIP3    H139007   4.987   5.227  15.445  2.8152 -0.7342  0.4309
 5864TIP3    H239008   4.982   5.291  15.582 -0.6211  0.7309 -0.2855
 5865TIP3   OH239009   1.016   1.775   3.015 -0.5378  0.4827 -0.1186
 5865TIP3    H139010   1.064   1.692   3.010 -1.6643 -0.3695  1.8228
 5865TIP3    H239011   0.927   1.753   2.988 -1.2492  0.6201  1.9340
 5866TIP3   OH239012   0.579   6.525   2.443 -0.3352  0.3462  0.0765
 5866TIP3    H139013   0.649   6.537   2.507  0.3963 -2.0597 -0.1632
 5866TIP3    H239014   0.504   6.573   2.479  0.7650  1.1025  1.4557
 5867TIP3   OH239015   6.672   1.683  15.225  0.1200 -0.0353 -0.1975
 5867TIP3    H139016   6.746   1.743  15.239  0.4420 -0.3077 -0.6847
 5867TIP3    H239017   6.612   1.732  15.169  0.1932 -0.0200 -0.2626
 5868TIP3   OH239018   1.721   1.255  13.304  0.2489  0.4268  0.0772
 5868TIP3    H139019   1.812   1.276  13.324 -0.1374  0.8661  1.5096
 5868TIP3    H239020   1.672   1.283  13.381 -0.7279 -2.7986  0.8092
 5869TIP3   OH239021   2.116   4.187  13.112 -0.7011  0.5543 -0.1102
 5869TIP3    H139022   2.095   4.255  13.177  1.2001  0.7491  0.3604
 5869TIP3    H239023   2.154   4.116  13.163 -3.1604 -1.1978 -0.5231
 5870TIP3   OH239024   4.130   0.857  15.785  0.2677 -0.2579  0.5727
 5870TIP3    H139025   4.137   0.838  15.691  0.4862 -2.2628  0.9461
 5870TIP3    H239026   4.183   0.789  15.827 -1.1473 -0.3855  2.2396
 5871TIP3   OH239027   4.476   0.439   1.497  0.4105  0.0203  0.7021
 5871TIP3    H139028   4.424   0.519   1.491 -2.1164 -1.4980  0.6437
 5871TIP3    H239029   4.500   0.433   1.590 -0.9218 -0.0023  1.0666
 5872TIP3   OH239030   3.185   5.262  15.052  0.2905  0.3127  0.1409
 5872TIP3    H139031   3.209   5.330  14.988  0.2250 -1.4895 -1.8977
 5872TIP3    H239032   3.090   5.253  15.042  0.2136  0.2842  0.8239
 5873TIP3   OH239033   3.735   0.578   0.064 -0.7951 -0.3207 -0.1169
 5873TIP3    H139034   3.830   0.580   0.049 -0.4390 -0.7604  1.7402
 5873TIP3    H239035   3.699   0.637  -0.001  0.5586 -1.5126 -2.0731
 5874TIP3   OH239036   3.357   1.553   0.596 -0.2796  0.0711  0.3161
 5874TIP3    H139037   3.331   1.645   0.604  0.4644  0.2576  0.7067
 5874TIP3    H239038   3.279   1.508   0.565 -0.7916  0.7551  0.6016
 5875TIP3   OH239039   4.301   3.289  13.290  0.3027  0.0326 -0.0915
 5875TIP3    H139040   4.396   3.287  13.295  0.3493 -0.1842 -0.8505
 5875TIP3    H239041   4.280   3.373  13.249  0.0950  0.6310  1.2167
 5876TIP3   OH239042   5.571   3.330   0.046  0.0823 -0.2864 -0.6632
 5876TIP3    H139043   5.567   3.391   0.120  0.1975  0.6941 -1.4381
 5876TIP3    H239044   5.614   3.380  -0.024 -1.3419 -0.6770 -1.8783
 5877TIP3   OH239045   1.628   3.701  14.363  0.4649  0.6103 -0.3064
 5877TIP3    H139046   1.640   3.695  14.269  1.1029  0.4189 -0.2196
 5877TIP3    H239047   1.681   3.777  14.390  1.2196 -0.0174  0.0356
 5878TIP3   OH239048   2.144   1.175   1.147  0.2021 -0.9936  0.0490
 5878TIP3    H139049   2.109   1.243   1.090  1.7007  0.0544  0.3430
 5878TIP3    H239050   2.105   1.193   1.233  1.5841  0.3306  0.4370
 5879TIP3   OH239051   4.184   6.226  16.471 -0.4432 -0.4673 -0.0948
 5879TIP3    H139052   4.098   6.261  16.446 -0.5918 -0.0738  0.9388
 5879TIP3    H239053   4.165   6.151  16.527 -0.1078 -1.5989 -1.4296
 5880TIP3   OH239054   2.601   3.697  11.763 -0.3022  0.2385  0.3794
 5880TIP3    H139055   2.571   3.659  11.846  0.2537 -0.3477  0.3139
 5880TIP3    H239056   2.595   3.792  11.777 -0.4581  0.1448  0.9952
 5881TIP3   OH239057   6.513   0.973   2.715 -0.4384 -0.2414 -0.5038
 5881TIP3    H139058   6.510   1.068   2.719  0.5580 -0.2445  0.8325
 5881TIP3    H239059   6.422   0.945   2.727 -0.6272  0.5192 -0.1399
 5882TIP3   OH239060   4.047   3.420   5.176  0.6146 -0.0148  0.1482
 5882TIP3    H139061   4.000   3.418   5.259 -0.2036  1.1004 -0.2628
 5882TIP3    H239062   4.009   3.349   5.125 -0.9692  1.1158 -0.3253
 5883TIP3   OH239063   4.116   2.488  10.474 -0.1751  0.0831 -0.8146
 5883TIP3    H139064   4.202   2.451  10.493  0.2287  0.5226 -1.7558
 5883TIP3    H239065   4.066   2.414  10.440  0.3207  0.1596 -1.7408
 5884TIP3   OH239066   6.037   5.317   4.928 -0.2010  0.0914  0.4283
 5884TIP3    H139067   6.031   5.226   4.899  3.2020 -0.4503  0.9836
 5884TIP3    H239068   6.025   5.314   5.023 -0.6646  0.3206  0.3804
 5885TIP3   OH239069   4.870   2.634   2.009 -0.2268 -0.0596  0.0421
 5885TIP3    H139070   4.815   2.627   2.087 -2.0612  0.6004 -1.1321
 5885TIP3    H239071   4.926   2.556   2.012 -2.9314 -2.1257  0.0556
 5886TIP3   OH239072   0.122   4.756  11.756  0.6171 -0.1936 -0.4013
 5886TIP3    H139073   0.197   4.815  11.765 -0.2674  1.0984 -1.3430
 5886TIP3    H239074   0.058   4.804  11.705 -1.0034 -1.1697  0.6021
 5887TIP3   OH239075   0.991   1.770   6.573 -0.0087 -0.1665  0.6824
 5887TIP3    H139076   0.951   1.687   6.546  3.0121 -0.5519 -3.8081
 5887TIP3    H239077   0.951   1.835   6.516  0.8335  0.6177  0.9663
 5888TIP3   OH239078   3.898   6.592  15.506 -0.2350  0.1951 -0.1769
 5888TIP3    H139079   3.886   6.497  15.501 -0.4210  0.2102 -0.0497
 5888TIP3    H239080   3.809   6.626  15.515 -0.1708  0.3830 -0.2644
 5889TIP3   OH239081   4.304   4.795   2.462 -0.1417  0.0956 -0.5552
 5889TIP3    H139082   4.383   4.849   2.456 -1.5399  2.3727  0.3318
 5889TIP3    H239083   4.286   4.770   2.372  1.1517  0.1749 -0.8628
 5890TIP3   OH239084   3.829   2.038  13.560  0.1775 -0.2203  0.5232
 5890TIP3    H139085   3.807   1.986  13.638  0.8675  1.3947  1.8366
 5890TIP3    H239086   3.877   2.114  13.594  1.8535 -0.2231 -1.6147
 5891TIP3   OH239087   6.239   5.392   3.171  0.5249  0.0882  0.3884
 5891TIP3    H139088   6.329   5.383   3.140  1.2389 -0.6428  2.4602
 5891TIP3    H239089   6.246   5.452   3.245 -0.8433  0.6727  0.0583
 5892TIP3   OH239090   3.412   3.734  12.429 -0.5126 -0.6088  0.2781
 5892TIP3    H139091   3.347   3.665  12.441  0.6091 -1.7672 -0.0603
 5892TIP3    H239092   3.483   3.692  12.381  0.9896  0.2996  1.5979
 5893TIP3   OH239093   4.930   6.012  11.723  0.0698  0.1744 -0.0977
 5893TIP3    H139094   4.873   5.950  11.768 -0.3709 -0.4297 -1.4662
 5893TIP3    H239095   4.881   6.094  11.724  0.9885  0.7989  2.4326
 5894TIP3   OH239096   3.915   0.234  13.058 -0.2374  0.3028 -0.0513
 5894TIP3    H139097   3.928   0.142  13.082 -2.3410  0.1951  0.8198
 5894TIP3    H239098   3.987   0.252  12.997  0.4672 -1.7932  0.0593
 5895TIP3   OH239099   6.080   3.791  12.942  0.2383 -0.1949  0.2380
 5895TIP3    H139100   6.027   3.825  12.870  0.3016  0.7427  0.6299
 5895TIP3    H239101   6.160   3.842  12.940 -0.1766  0.5719  1.6120
 5896TIP3   OH239102   1.062   6.790  11.030  0.1119 -0.2107  0.0139
 5896TIP3    H139103   1.122   6.830  11.094  1.4398 -1.5863 -0.3081
 5896TIP3    H239104   1.064   6.850  10.955  0.5110  0.1477  0.3051
 5897TIP3   OH239105   5.084   1.707   0.490 -0.2235 -0.0966 -0.1148
 5897TIP3    H139106   5.013   1.725   0.552 -0.7501  1.5159 -1.1142
 5897TIP3    H239107   5.158   1.681   0.545 -1.7798 -2.7029  0.9056
 5898TIP3   OH239108   6.773   3.870   0.519  0.1494 -0.2747 -0.4917
 5898TIP3    H139109   6.799   3.902   0.606 -1.5256  2.1457 -0.7764
 5898TIP3    H239110   6.729   3.787   0.536  1.1550 -0.5609  0.8051
 5899TIP3   OH239111   2.246   2.311  13.192 -0.0623 -0.0690  0.2513
 5899TIP3    H139112   2.202   2.249  13.134  0.5408  1.6122 -2.1693
 5899TIP3    H239113   2.253   2.391  13.140 -0.4383  1.9360  3.0746
 5900TIP3   OH239114   2.669   6.362   2.044 -0.3301  0.0494  0.5756
 5900TIP3    H139115   2.628   6.448   2.041  0.2274  0.3963  1.9084
 5900TIP3    H239116   2.626   6.312   1.975 -0.1622  1.6063 -0.7164
 5901TIP3   OH239117   4.375   6.381   5.554  0.2224  0.3414  0.3206
 5901TIP3    H139118   4.454   6.378   5.501  1.3920  0.0272  1.9997
 5901TIP3    H239119   4.358   6.474   5.567  0.9163  0.4108  0.7804
 5902TIP3   OH239120   0.931   6.637   3.339  0.2713  0.1118 -0.7395
 5902TIP3    H139121   0.980   6.601   3.265 -0.7310  1.1768 -1.9659
 5902TIP3    H239122   0.843   6.600   3.330  0.5066 -0.9011  0.7901
 5903TIP3   OH239123   3.394   3.131   0.936  0.3717 -0.4262 -0.7542
 5903TIP3    H139124   3.423   3.136   1.027 -1.2203 -0.1828 -0.2324
 5903TIP3    H239125   3.474   3.120   0.886  1.1942 -1.7389  0.7703
 5904TIP3   OH239126   2.816   3.793   2.220 -0.1234 -0.0220  0.5079
 5904TIP3    H139127   2.889   3.815   2.163  0.5203 -2.6232  0.1889
 5904TIP3    H239128   2.841   3.827   2.305  1.4125 -0.7035  0.3653
 5905TIP3   OH239129   4.093   1.386  14.251  0.4777 -0.2687  0.3659
 5905TIP3    H139130   4.168   1.378  14.311 -0.7404  0.0500  2.0026
 5905TIP3    H239131   4.081   1.298  14.216  1.6167 -0.3237  0.0682
 5906TIP3   OH239132   3.299   0.487   4.112  0.4980  0.2133  0.6972
 5906TIP3    H139133   3.304   0.562   4.170  1.5169  1.7608 -1.2523
 5906TIP3    H239134   3.373   0.498   4.052  0.1173 -1.8357 -0.2621
 5907TIP3   OH239135   4.377   2.987   6.453 -0.5265 -0.5652 -0.1094
 5907TIP3    H139136   4.390   3.060   6.392  2.3491 -1.0868 -0.2654
 5907TIP3    H239137   4.324   3.024   6.523 -3.0482  0.3579 -2.3173
 5908TIP3   OH239138   3.488   2.146  15.623 -0.6290  0.0846  0.5403
 5908TIP3    H139139   3.475   2.219  15.684 -1.1589  0.6273 -0.2098
 5908TIP3    H239140   3.399   2.124  15.593 -0.3953 -0.3493  0.1554
 5909TIP3   OH239141   2.252   0.011   1.195  0.6112 -0.0882 -0.1000
 5909TIP3    H139142   2.282   0.091   1.152 -0.7855  1.1316  1.0993
 5909TIP3    H239143   2.171  -0.012   1.148 -0.2809  0.5828  1.0658
 5910TIP3   OH239144   0.673   5.196  14.549 -0.2684  0.2056  0.1758
 5910TIP3    H139145   0.665   5.168  14.640  0.8905  2.3783  1.0311
 5910TIP3    H239146   0.595   5.248  14.533 -2.6727 -3.4902 -1.5645
 5911TIP3   OH239147   0.772   1.017   0.157  0.0670 -0.1252 -0.6555
 5911TIP3    H139148   0.722   1.099   0.161 -0.6699 -0.5968  0.1495
 5911TIP3    H239149   0.855   1.037   0.201 -0.0475  0.2262 -0.5922
 5912TIP3   OH239150   3.586   6.409   0.756 -0.3493 -0.2506 -0.4089
 5912TIP3    H139151   3.657   6.431   0.696  1.2567  4.5732  2.6397
 5912TIP3    H239152   3.623   6.342   0.814  0.5204 -0.1407 -0.8266
 5913TIP3   OH239153   5.201   1.367   3.727  0.2819 -0.3899  0.4683
 5913TIP3    H139154   5.213   1.427   3.800  0.2276 -1.4880  1.4116
 5913TIP3    H239155   5.106   1.352   3.724  0.3415 -0.7836  0.5377
 5914TIP3   OH239156   5.564   2.369  12.568  0.1992 -0.2071 -0.6804
 5914TIP3    H139157   5.552   2.280  12.599 -0.4550 -0.8831 -2.7076
 5914TIP3    H239158   5.656   2.374  12.540 -0.2588 -0.9665 -2.4963
 5915TIP3   OH239159   4.600   5.575   1.353 -0.6286 -0.0117  0.2105
 5915TIP3    H139160   4.622   5.568   1.260  0.2672  1.9333  0.2265
 5915TIP3    H239161   4.678   5.614   1.393 -2.1681  2.2964  1.1807
 5916TIP3   OH239162   2.058   1.543  13.467 -0.3169  0.0177  0.1490
 5916TIP3    H139163   2.103   1.485  13.528  0.0515 -0.0749 -0.2137
 5916TIP3    H239164   1.965   1.531  13.488 -0.2501 -0.7716  0.0138
 5917TIP3   OH239165   4.862   0.368   0.334 -0.1648  0.8592  0.2919
 5917TIP3    H139166   4.911   0.397   0.411  1.1791  0.7763 -0.5044
 5917TIP3    H239167   4.927   0.326   0.278 -1.1944  0.5263 -0.7057
 5918TIP3   OH239168   2.991   1.030   5.027 -0.0918  0.2304 -0.5425
 5918TIP3    H139169   3.006   1.022   5.121  1.1553 -1.7139 -0.8431
 5918TIP3    H239170   3.045   1.105   5.000 -3.4057  3.4037  0.7547
 5919TIP3   OH239171   1.496   4.983  16.626 -0.2776 -0.7338 -0.0509
 5919TIP3    H139172   1.407   4.991  16.660 -0.2091 -0.4675  0.0699
 5919TIP3    H239173   1.484   4.957  16.534 -0.5017  0.2576 -0.3084
 5920TIP3   OH239174   1.081   3.199  15.394 -0.4302  0.1462 -0.3077
 5920TIP3    H139175   1.076   3.240  15.481 -1.8165  0.7408 -0.6449
 5920TIP3    H239176   1.122   3.265  15.339  0.0625 -0.0703 -0.2047
 5921TIP3   OH239177   1.612   5.371   2.057 -0.2718 -0.0028 -0.1066
 5921TIP3    H139178   1.584   5.425   2.131 -2.2624 -0.3717 -0.5426
 5921TIP3    H239179   1.603   5.427   1.981  0.5242 -0.0339 -0.2299
 5922TIP3   OH239180   2.091   3.450  14.893 -0.2486  0.0918 -0.1293
 5922TIP3    H139181   2.035   3.488  14.826 -0.1083  1.7169  0.6360
 5922TIP3    H239182   2.123   3.524  14.943 -0.2294 -1.0489  1.6499
 5923TIP3   OH239183   5.840   5.683   5.655  0.7034 -0.0725 -0.2085
 5923TIP3    H139184   5.914   5.733   5.688  0.2618  0.5822 -0.1918
 5923TIP3    H239185   5.768   5.703   5.715  0.0570  0.6571 -1.1773
 5924TIP3   OH239186   3.822   4.783   1.759  0.5188 -0.2715 -0.1647
 5924TIP3    H139187   3.803   4.788   1.853  1.2097  2.3636 -0.0698
 5924TIP3    H239188   3.741   4.813   1.717  0.3874 -0.9445 -0.3983
 5925TIP3   OH239189   6.170   1.284  11.474 -0.1764  0.4830 -0.0967
 5925TIP3    H139190   6.162   1.222  11.402 -1.4024  0.6771 -0.1634
 5925TIP3    H239191   6.260   1.275  11.505  0.7239  1.1300 -2.3134
 5926TIP3   OH239192   5.757   2.834   5.206 -0.4567 -0.5928  0.1562
 5926TIP3    H139193   5.682   2.879   5.245 -2.0840 -3.1478  0.2212
 5926TIP3    H239194   5.726   2.805   5.121  0.2723 -2.0960  0.3685
 5927TIP3   OH239195   4.282   5.876   1.753  0.3506 -0.5398 -0.0096
 5927TIP3    H139196   4.332   5.955   1.775  0.9931 -0.3693 -1.9347
 5927TIP3    H239197   4.349   5.808   1.742  0.0103 -0.7787 -0.6806
 5928TIP3   OH239198   4.266   6.272  15.733  0.1177 -0.2873 -0.9799
 5928TIP3    H139199   4.248   6.331  15.660  1.0039  0.1731 -0.8399
 5928TIP3    H239200   4.341   6.312  15.778 -0.8584 -0.1790  0.6042
 5929TIP3   OH239201   0.322   2.870  15.467  0.3093  0.1487  0.1937
 5929TIP3    H139202   0.237   2.832  15.488 -0.3557  1.5110  0.0669
 5929TIP3    H239203   0.340   2.842  15.378 -0.0396 -0.0933  0.1983
 5930TIP3   OH239204   0.019   2.761  12.305  0.2333  0.4164  0.3810
 5930TIP3    H139205   0.066   2.808  12.373 -0.0700  2.0943 -0.5179
 5930TIP3    H239206   0.075   2.686  12.283  1.4696  1.2123  0.7689
 5931TIP3   OH239207   3.204   3.973   2.451 -0.1238 -0.4323  0.4741
 5931TIP3    H139208   3.219   3.879   2.461 -0.1517 -0.3811  1.0258
 5931TIP3    H239209   3.181   4.003   2.539 -0.0707  0.0983  0.3101
 5932TIP3   OH239210   3.236   3.070  12.260 -0.4790 -0.4328 -0.1246
 5932TIP3    H139211   3.259   3.019  12.337 -0.1892 -0.9552 -0.5437
 5932TIP3    H239212   3.286   3.151  12.269  0.3589 -0.9206 -0.2661
 5933TIP3   OH239213   5.615   3.369   5.556 -0.7705  0.1284  0.4517
 5933TIP3    H139214   5.616   3.450   5.607 -0.2921  1.1148 -1.0376
 5933TIP3    H239215   5.600   3.300   5.620  1.9722  1.0511  2.2708
 5934TIP3   OH239216   1.628   2.066   1.336  0.4279  0.0345 -0.4679
 5934TIP3    H139217   1.637   1.977   1.370  1.8578  1.4259  3.3026
 5934TIP3    H239218   1.536   2.086   1.347 -0.1245 -1.1901 -2.2819
 5935TIP3   OH239219   3.013   2.559   0.006  0.3880  0.1359 -0.2798
 5935TIP3    H139220   3.078   2.505   0.051 -0.4191  0.8391  1.8344
 5935TIP3    H239221   2.930   2.512   0.018  0.1376  0.3724 -1.0084
 5936TIP3   OH239222   0.573   1.322   4.157  0.3736 -0.0502 -0.3227
 5936TIP3    H139223   0.568   1.227   4.169 -2.6974  0.0080 -0.3533
 5936TIP3    H239224   0.618   1.333   4.073  0.3465 -1.5069 -0.5581
 5937TIP3   OH239225   3.917   2.922   0.386 -0.8196 -0.1498  0.2306
 5937TIP3    H139226   3.961   2.846   0.349 -0.3974 -0.5755  1.5719
 5937TIP3    H239227   3.959   2.936   0.470 -0.5163  1.9152 -0.2138
 5938TIP3   OH239228   5.926   1.576   0.505  0.1651  0.5506  0.4093
 5938TIP3    H139229   5.902   1.539   0.420 -1.0293  0.9074  0.5684
 5938TIP3    H239230   5.961   1.501   0.554 -1.9788 -0.3882  0.6444
 5939TIP3   OH239231   4.234   5.263  14.678  0.5711  0.1857 -0.6531
 5939TIP3    H139232   4.188   5.209  14.742  0.9756 -0.4235 -0.8643
 5939TIP3    H239233   4.313   5.293  14.723  0.1353  0.9868 -0.3895
 5940TIP3   OH239234   4.076   1.233  12.285 -0.5455 -0.2105  0.8330
 5940TIP3    H139235   3.997   1.186  12.259 -0.9116  1.1306 -0.6483
 5940TIP3    H239236   4.093   1.293  12.212  1.2853  0.2158  1.5606
 5941TIP3   OH239237   4.598   0.175   2.172 -1.0825 -0.5916 -0.2266
 5941TIP3    H139238   4.507   0.203   2.182 -0.2781  1.7758  1.3558
 5941TIP3    H239239   4.628   0.219   2.093 -0.7111  0.5587  0.5251
 5942TIP3   OH239240   6.546   3.679  15.165  0.5433 -0.5038  0.3333
 5942TIP3    H139241   6.628   3.652  15.125  0.5209 -0.9645  0.5839
 5942TIP3    H239242   6.485   3.687  15.092  0.8779  0.1086  0.1157
 5943TIP3   OH239243   1.272   2.888   2.071  0.2056  0.5068 -0.2010
 5943TIP3    H139244   1.305   2.949   2.004  1.3760  0.0059 -0.1066
 5943TIP3    H239245   1.348   2.834   2.094  0.0666  1.1498  2.0734
 5944TIP3   OH239246   1.821   6.188  11.563 -0.2801 -0.0267 -0.0279
 5944TIP3    H139247   1.781   6.268  11.597  0.5766  0.3442  0.1260
 5944TIP3    H239248   1.897   6.218  11.513 -0.6760 -0.6587 -1.0544
 5945TIP3   OH239249   1.104   3.047   0.954  0.9714 -0.0039  0.2494
 5945TIP3    H139250   1.109   3.125   1.010  1.1279 -0.3884  0.7792
 5945TIP3    H239251   1.062   2.981   1.009 -1.1030  0.2852 -0.8544
 5946TIP3   OH239252   0.267   5.046  15.570  0.0151 -0.0998  0.5772
 5946TIP3    H139253   0.184   5.057  15.616 -0.5886 -0.9416 -0.2686
 5946TIP3    H239254   0.334   5.055  15.638 -0.6620  2.1314  1.0275
 5947TIP3   OH239255   2.053   1.161  11.706 -0.3235 -0.2224  0.6451
 5947TIP3    H139256   2.135   1.186  11.748  0.1406 -1.0615  0.2757
 5947TIP3    H239257   2.073   1.162  11.612 -1.1736  1.0346  0.4569
 5948TIP3   OH239258   6.541   1.949  11.911  0.1779 -0.7550  0.0059
 5948TIP3    H139259   6.497   2.021  11.865 -1.2080 -0.1885  2.0920
 5948TIP3    H239260   6.612   1.992  11.959 -1.4268 -0.4692  2.2734
 5949TIP3   OH239261   2.919   2.802  17.154 -0.1616  0.1803  0.6826
 5949TIP3    H139262   2.929   2.730  17.215 -0.4294  0.2760  0.8406
 5949TIP3    H239263   3.006   2.840  17.146  0.1019 -0.5143  0.1586
 5950TIP3   OH239264   4.706   3.345  16.856 -0.3373 -0.2300 -0.3429
 5950TIP3    H139265   4.710   3.441  16.851  0.0135 -0.2925 -1.3191
 5950TIP3    H239266   4.612   3.325  16.858 -0.4193  0.1864  1.1775
 5951TIP3   OH239267   5.466   3.789   0.082 -0.2114 -0.0204 -0.3209
 5951TIP3    H139268   5.468   3.703   0.040  2.7652 -0.1969 -0.0097
 5951TIP3    H239269   5.467   3.851   0.010  1.1526 -0.3016 -0.5638
 5952TIP3   OH239270   6.626   0.254   5.766  0.0348  0.5975  0.7109
 5952TIP3    H139271   6.626   0.331   5.709  0.0561  0.1650  0.1212
 5952TIP3    H239272   6.703   0.266   5.822  1.2512 -0.0004 -0.7654
 5953TIP3   OH239273   2.216   5.596   0.631  0.0721 -0.6583 -0.5261
 5953TIP3    H139274   2.304   5.631   0.642 -0.1537 -0.4018  0.5967
 5953TIP3    H239275   2.181   5.642   0.555  1.1026 -1.2087 -1.3690
 5954TIP3   OH239276   5.237   2.877   1.080 -0.0787  0.7571 -0.2439
 5954TIP3    H139277   5.225   2.966   1.116  0.6973  0.5996  0.4489
 5954TIP3    H239278   5.329   2.856   1.100  0.3260  0.5681 -2.1828
 5955TIP3   OH239279   3.233   3.976  16.265 -0.0005  0.0414  0.1436
 5955TIP3    H139280   3.199   3.938  16.184 -0.1616  0.0214  0.2194
 5955TIP3    H239281   3.293   4.044  16.236  2.4337 -2.0334 -0.0561
 5956TIP3   OH239282   3.824   4.319   1.502  0.2507 -0.2368 -0.2115
 5956TIP3    H139283   3.744   4.287   1.460  0.7189  0.1632 -1.4533
 5956TIP3    H239284   3.851   4.248   1.559 -2.1980  0.4495  2.0128
 5957TIP3   OH239285   1.456   1.728   0.182 -0.6669  0.1636  0.2547
 5957TIP3    H139286   1.485   1.649   0.136 -1.2124  0.3488 -0.4150
 5957TIP3    H239287   1.440   1.699   0.272 -0.3038 -0.3588  0.1538
 5958TIP3   OH239288   4.113   0.724  15.542  0.2917 -0.0206  0.1285
 5958TIP3    H139289   4.207   0.735  15.554  0.4236  1.5501 -1.7378
 5958TIP3    H239290   4.102   0.711  15.447 -1.3520 -0.3063  0.3266
 5959TIP3   OH239291   4.645   3.840   3.144 -0.1664  0.9337 -0.4436
 5959TIP3    H139292   4.575   3.776   3.159  0.4544 -0.5986 -3.2564
 5959TIP3    H239293   4.663   3.878   3.230 -3.0069 -0.1071  0.7262
 5960TIP3   OH239294   0.488   0.757   3.854  0.1696 -0.7376  0.1284
 5960TIP3    H139295   0.547   0.761   3.779 -0.1392 -1.1952 -0.1376
 5960TIP3    H239296   0.488   0.847   3.889 -0.9269 -0.1165 -1.3612
 5961TIP3   OH239297   5.612   2.242   4.967 -0.2599 -0.5756 -0.2460
 5961TIP3    H139298   5.537   2.298   4.945 -0.0096 -0.4708 -0.8669
 5961TIP3    H239299   5.579   2.182   5.033 -1.2514 -1.3141 -1.3677
 5962TIP3   OH239300   2.716   4.316  17.219 -0.3017  0.4703 -0.0112
 5962TIP3    H139301   2.767   4.237  17.240  0.0671  1.0935  1.5241
 5962TIP3    H239302   2.779   4.373  17.175 -0.3101  0.3090 -0.2378
 5963TIP3   OH239303   2.896   2.990   6.591  0.2674 -0.5501  0.0869
 5963TIP3    H139304   2.940   3.067   6.626  0.1157  0.0411 -0.9748
 5963TIP3    H239305   2.967   2.934   6.560  0.3113  0.1466 -1.1070
 5964TIP3   OH239306   6.638   1.533  12.518 -0.4095  0.1312  0.0717
 5964TIP3    H139307   6.709   1.582  12.558 -0.8015  0.0202  0.9094
 5964TIP3    H239308   6.643   1.556  12.425  1.4227 -0.7399 -0.1003
 5965TIP3   OH239309   5.126   6.776  12.113  0.4767 -0.1296  0.2536
 5965TIP3    H139310   5.059   6.709  12.097  0.2693 -0.6211  2.7051
 5965TIP3    H239311   5.195   6.757  12.050 -0.6567 -1.0938 -0.7488
 5966TIP3   OH239312   5.723   1.724   2.401  0.0725 -0.2527  0.5385
 5966TIP3    H139313   5.639   1.765   2.382 -0.2225 -0.3427  1.5534
 5966TIP3    H239314   5.718   1.639   2.358  0.0282  0.1162 -0.1946
 5967TIP3   OH239315   1.322   6.790  16.845  0.6887  0.3533 -0.3242
 5967TIP3    H139316   1.345   6.870  16.892 -0.3911  0.2676  0.4062
 5967TIP3    H239317   1.392   6.729  16.865  0.6241  0.5657  0.5782
 5968TIP3   OH239318   0.082   1.899   4.644  0.1912  0.3196 -0.1115
 5968TIP3    H139319   0.139   1.964   4.684 -1.0436  0.8700  0.8473
 5968TIP3    H239320   0.100   1.818   4.692  0.1322  0.5090  0.2369
 5969TIP3   OH239321   1.711   1.457   0.264  0.0158  0.2998  0.0809
 5969TIP3    H139322   1.735   1.390   0.200  1.6171 -0.1364  1.0905
 5969TIP3    H239323   1.620   1.437   0.286  0.8281 -2.4224  1.3456
 5970TIP3   OH239324   2.363   4.473   0.679 -0.0147  0.2689 -0.0832
 5970TIP3    H139325   2.435   4.452   0.619 -1.2998 -1.0273 -1.2395
 5970TIP3    H239326   2.348   4.566   0.667  0.3998  0.2189 -1.0306
 5971TIP3   OH239327   6.382   5.905   2.475  0.0801  0.3374 -0.4646
 5971TIP3    H139328   6.379   5.981   2.532 -0.4204 -0.5506  0.7268
 5971TIP3    H239329   6.387   5.941   2.387 -0.5975  1.7422  0.0501
 5972TIP3   OH239330   5.864   6.100   0.250  0.2249  0.1090  0.1585
 5972TIP3    H139331   5.953   6.078   0.224 -0.1600  0.3106 -1.4101
 5972TIP3    H239332   5.829   6.152   0.178 -1.0605  0.3281  0.8919
 5973TIP3   OH239333   2.569   4.382  13.423  0.3253  0.0599 -0.2208
 5973TIP3    H139334   2.599   4.340  13.343 -0.4183 -2.2998  0.6564
 5973TIP3    H239335   2.637   4.363  13.487  1.2586  2.5259 -0.3721
 5974TIP3   OH239336   4.986   1.856   2.628 -0.1274  0.3241 -0.3691
 5974TIP3    H139337   4.970   1.947   2.601  0.2443  0.5531  0.1642
 5974TIP3    H239338   4.943   1.849   2.714  2.0961  0.7989  0.8504
 5975TIP3   OH239339   0.441   1.918  11.509  0.5849  0.0733 -0.5927
 5975TIP3    H139340   0.524   1.966  11.508 -0.3935  1.9433  0.7782
 5975TIP3    H239341   0.381   1.974  11.460 -0.4487  0.0029  0.5461
 5976TIP3   OH239342   0.740   2.776  13.940  0.0293 -0.3202  0.0006
 5976TIP3    H139343   0.723   2.761  14.033 -1.7500 -0.5720 -0.3318
 5976TIP3    H239344   0.730   2.870  13.929 -1.5287 -0.4939 -0.2361
 5977TIP3   OH239345   3.086   0.565   3.685  0.3265 -0.1897  0.6525
 5977TIP3    H139346   3.031   0.569   3.607 -0.2249  1.8115  1.0703
 5977TIP3    H239347   3.075   0.476   3.718 -0.1121 -0.8087 -1.0436
 5978TIP3   OH239348   6.239   6.240  13.080  0.1423 -0.2915 -0.4967
 5978TIP3    H139349   6.151   6.226  13.116  0.2090  3.5304  1.7265
 5978TIP3    H239350   6.229   6.316  13.022  1.6611 -1.1697 -2.0111
 5979TIP3   OH239351   0.532   2.823  11.977 -0.6195  0.0046 -1.1152
 5979TIP3    H139352   0.596   2.753  11.966 -1.9339 -1.7142  1.1171
 5979TIP3    H239353   0.499   2.840  11.888  1.4038 -0.5061 -2.0103
 5980TIP3   OH239354   3.954   5.912   4.102  0.1557 -0.8743 -0.3776
 5980TIP3    H139355   3.906   5.829   4.094  0.8309 -1.2197 -0.9301
 5980TIP3    H239356   3.885   5.977   4.116 -0.3338 -1.6490  1.1481
 5981TIP3   OH239357   1.018   1.873  14.184  0.4056 -0.6038  0.6282
 5981TIP3    H139358   1.037   1.950  14.236 -0.4203  0.0164  0.0381
 5981TIP3    H239359   1.081   1.807  14.214  1.8075  0.5996  0.4189
 5982TIP3   OH239360   5.049   4.973   0.895  0.1413 -0.3271  0.0914
 5982TIP3    H139361   4.970   5.027   0.899  0.1435 -0.2771 -0.4408
 5982TIP3    H239362   5.117   5.025   0.937 -0.0492 -0.2590  0.3145
 5983TIP3   OH239363   5.266   5.303  11.075  0.2618 -0.2554 -0.1395
 5983TIP3    H139364   5.239   5.322  10.985  1.4598  1.5276 -0.1874
 5983TIP3    H239365   5.332   5.235  11.066 -1.0902 -1.5908 -0.3818
 5984TIP3   OH239366   1.249   6.498  11.585  0.1046  0.3273 -0.0426
 5984TIP3    H139367   1.293   6.572  11.626  1.8573 -0.1986 -0.8824
 5984TIP3    H239368   1.227   6.529  11.497  1.2545 -0.2624 -0.5563
 5985TIP3   OH239369   3.488   6.592  16.040  0.2028 -0.3138 -0.1710
 5985TIP3    H139370   3.572   6.551  16.058  0.1172 -0.4145  0.0029
 5985TIP3    H239371   3.430   6.519  16.019  0.2253 -0.2242 -0.5660
 5986TIP3   OH239372   6.498   2.956  16.359 -0.3171  0.4127 -0.3677
 5986TIP3    H139373   6.546   2.925  16.436 -1.6529  0.4569  0.5177
 5986TIP3    H239374   6.412   2.981  16.393 -1.5928 -1.2600 -2.1353
 5987TIP3   OH239375   5.423   5.676  14.891  0.6211  0.0338  0.1207
 5987TIP3    H139376   5.341   5.715  14.923 -0.2216  0.7817 -2.6071
 5987TIP3    H239377   5.462   5.746  14.838  2.6004 -0.6356  0.6382
 5988TIP3   OH239378   3.003   1.471   0.169 -0.2778 -0.3043  0.3519
 5988TIP3    H139379   3.049   1.439   0.091 -0.0277  0.5851  0.1171
 5988TIP3    H239380   2.988   1.564   0.151 -3.4697 -0.8000 -0.2428
 5989TIP3   OH239381   1.832   0.968  17.157  0.2266 -0.7056  0.7259
 5989TIP3    H139382   1.771   0.931  17.221  0.0958 -1.5409  0.1413
 5989TIP3    H239383   1.919   0.957  17.197 -0.0044  0.8148  1.7193
 5990TIP3   OH239384   2.548   3.413   1.713  0.3121  0.4653  0.1884
 5990TIP3    H139385   2.527   3.456   1.797  2.1816  0.1573  0.8746
 5990TIP3    H239386   2.560   3.321   1.736 -0.3766  0.1608 -0.6614
 5991TIP3   OH239387   4.573   0.789   2.966 -0.3028 -0.2099  0.2352
 5991TIP3    H139388   4.552   0.815   2.877  2.0334  0.0166 -0.3263
 5991TIP3    H239389   4.489   0.779   3.010 -1.4593  0.8170 -1.6632
 5992TIP3   OH239390   0.450   5.433   0.291 -0.0486  0.2501  0.1570
 5992TIP3    H139391   0.483   5.467   0.374 -0.4046  0.7719  0.0862
 5992TIP3    H239392   0.498   5.351   0.279 -0.8135 -0.4441  1.4609
 5993TIP3   OH239393   6.257   2.170   0.710 -0.3565 -0.6559 -0.0469
 5993TIP3    H139394   6.199   2.181   0.785 -0.5495  0.7252 -0.3699
 5993TIP3    H239395   6.212   2.106   0.654 -2.5307  1.6543 -1.1464
 5994TIP3   OH239396   6.672   4.344   5.817  0.0960 -0.3944 -0.4679
 5994TIP3    H139397   6.705   4.365   5.905 -2.2425 -0.2755  0.4395
 5994TIP3    H239398   6.617   4.267   5.830 -0.6175 -0.1297 -1.7670
 5995TIP3   OH239399   3.626   5.827  14.895 -0.6112 -0.0253  0.2746
 5995TIP3    H139400   3.609   5.805  14.986  1.5926 -2.5288  0.2022
 5995TIP3    H239401   3.719   5.853  14.893 -1.1885  2.2152 -0.9558
 5996TIP3   OH239402   1.383   1.937  10.716  0.2957  0.4878 -0.1796
 5996TIP3    H139403   1.311   1.909  10.659 -0.2491  0.2898  0.5849
 5996TIP3    H239404   1.368   1.889  10.798  0.5695  1.4114  0.4289
 5997TIP3   OH239405   0.202   6.671  13.719 -0.3495  0.2539  0.7219
 5997TIP3    H139406   0.201   6.587  13.674  0.3199  0.0003  1.1546
 5997TIP3    H239407   0.285   6.711  13.693 -1.7921  1.9788 -1.5776
 5998TIP3   OH239408   3.606   0.707  14.457 -0.0354 -0.1451  0.0595
 5998TIP3    H139409   3.663   0.707  14.379 -0.4057 -0.2862 -0.2140
 5998TIP3    H239410   3.661   0.742  14.526  0.7981 -1.4482  0.0965
 5999TIP3   OH239411   5.937   0.081  14.462  0.1986 -0.5191 -0.3096
 5999TIP3    H139412   5.847   0.058  14.484  0.1943 -0.1899  0.0355
 5999TIP3    H239413   5.978   0.099  14.547  0.4025  0.0027 -0.5157
 6000TIP3   OH239414   3.882   6.771  13.152 -0.6469 -0.1323 -0.1058
 6000TIP3    H139415   3.954   6.733  13.201 -1.0763 -1.3067 -0.3314
 6000TIP3    H239416   3.810   6.708  13.163 -1.3708  0.5830 -0.5824
 6001TIP3   OH239417   6.493   5.109  12.689 -0.1238  0.3835  0.4306
 6001TIP3    H139418   6.519   5.201  12.695  0.7242  0.3368 -1.8631
 6001TIP3    H239419   6.475   5.095  12.597 -0.1409 -1.7961  0.7244
 6002TIP3   OH239420   4.552   5.030   3.324 -0.2300 -0.2197 -0.1193
 6002TIP3    H139421   4.514   4.957   3.276 -1.2410  0.2430 -0.0499
 6002TIP3    H239422   4.488   5.049   3.394  0.2316  0.4341  0.1396
 6003TIP3   OH239423   0.293   2.156  11.142 -0.0889 -0.2596  0.4185
 6003TIP3    H139424   0.323   2.137  11.053 -0.1640 -1.3492  0.6227
 6003TIP3    H239425   0.201   2.127  11.143 -0.6151  1.2906  0.3662
 6004TIP3   OH239426   3.219   3.498  16.552  0.0234 -0.0135 -0.0043
 6004TIP3    H139427   3.236   3.492  16.646  0.7415  0.4275 -0.0947
 6004TIP3    H239428   3.232   3.591  16.532 -0.7115 -0.0004 -0.4314
 6005TIP3   OH239429   3.804   3.334   5.013  0.0714  0.3950  0.1679
 6005TIP3    H139430   3.774   3.425   5.009 -1.0978  0.0537  0.8035
 6005TIP3    H239431   3.786   3.307   5.103  0.3113 -0.4993 -0.0455
 6006TIP3   OH239432   0.723   5.973   2.221  0.1244 -0.4376  0.7263
 6006TIP3    H139433   0.675   5.931   2.293  0.2813 -1.1305  0.4384
 6006TIP3    H239434   0.655   6.009   2.165 -0.0331 -0.6093  0.8047
 6007TIP3   OH239435   6.593   0.817   0.747 -0.1387  0.3670  0.0909
 6007TIP3    H139436   6.662   0.822   0.681 -0.2010  1.7503  0.1064
 6007TIP3    H239437   6.638   0.834   0.830 -0.0197 -1.5732  0.4857
 6008TIP3   OH239438   6.426   1.668  11.139 -0.0848  0.6650 -0.1360
 6008TIP3    H139439   6.481   1.696  11.212  0.5361  0.3857 -0.4869
 6008TIP3    H239440   6.487   1.651  11.067 -0.4673 -1.0962 -0.0985
 6009TIP3   OH239441   1.691   0.728   1.280 -0.4102  0.0013 -1.0663
 6009TIP3    H139442   1.626   0.799   1.287 -0.2988 -0.0627  1.5359
 6009TIP3    H239443   1.772   0.766   1.315 -0.8150 -1.8343  2.2665
 6010TIP3   OH239444   3.850   5.273  16.453 -0.3290  0.5352  0.3661
 6010TIP3    H139445   3.755   5.262  16.454 -0.4176  1.0507 -0.6507
 6010TIP3    H239446   3.866   5.335  16.382  0.7577  0.5792  0.6307
 6011TIP3   OH239447   2.417   5.707   5.364 -0.1692  0.3290  0.0879
 6011TIP3    H139448   2.444   5.798   5.362 -1.0294  0.5784 -0.7540
 6011TIP3    H239449   2.350   5.699   5.295 -1.0587 -0.6177  1.0096
 6012TIP3   OH239450   2.994   5.001  15.363  0.5421 -0.3377 -0.7134
 6012TIP3    H139451   2.950   5.076  15.401 -1.1765 -0.3175 -2.5938
 6012TIP3    H239452   3.069   5.038  15.317 -1.8466  0.7508 -4.0741
 6013TIP3   OH239453   2.460   0.123  16.121  0.8843 -0.0870  0.1434
 6013TIP3    H139454   2.482   0.033  16.147  0.9516  0.4025  1.8978
 6013TIP3    H239455   2.429   0.164  16.201  1.3229  1.6181 -0.5222
 6014TIP3   OH239456   4.535   2.032   0.141 -0.3234 -0.0312  0.2385
 6014TIP3    H139457   4.512   1.985   0.061 -2.4568  0.7626  0.2988
 6014TIP3    H239458   4.620   2.072   0.123 -1.5334  1.6157 -2.3930
 6015TIP3   OH239459   4.800   0.974   1.521 -0.9079 -0.2940  0.1681
 6015TIP3    H139460   4.849   1.034   1.578 -2.2380 -0.9565  2.0751
 6015TIP3    H239461   4.865   0.909   1.494 -0.0771  0.4681  0.2601
 6016TIP3   OH239462   5.019   2.660   1.709 -0.0426  0.5997 -1.2344
 6016TIP3    H139463   5.114   2.646   1.704  0.0101  0.9816 -1.3100
 6016TIP3    H239464   4.996   2.631   1.797  0.1038  0.2685 -1.3027
 6017TIP3   OH239465   0.005   3.633   4.585  0.0190 -0.5163  0.0716
 6017TIP3    H139466   0.069   3.587   4.639 -1.0335  1.0170  2.8197
 6017TIP3    H239467   0.055   3.701   4.540  0.6902 -0.8633  0.2904
 6018TIP3   OH239468   4.029   4.080  13.573 -0.1394 -0.3430  0.2002
 6018TIP3    H139469   3.964   4.106  13.637 -0.0673  0.9024 -0.2087
 6018TIP3    H239470   3.997   3.995  13.540 -1.1810 -0.0796  0.4935
 6019TIP3   OH239471   5.258   6.149   1.219 -0.3531  0.2467  0.1661
 6019TIP3    H139472   5.244   6.238   1.252  0.2235 -0.0643  1.2932
 6019TIP3    H239473   5.209   6.146   1.137 -1.2094  1.2905  0.6148
 6020TIP3   OH239474   6.200   6.195   1.526  0.2515 -0.0414 -0.1249
 6020TIP3    H139475   6.117   6.175   1.482  1.0831 -0.1221 -1.7277
 6020TIP3    H239476   6.182   6.275   1.576 -0.9963 -0.4989  0.2165
 6021TIP3   OH239477   1.510   1.647   3.772 -0.2990 -0.6165 -0.4752
 6021TIP3    H139478   1.427   1.680   3.806  0.6693  1.3504  0.0862
 6021TIP3    H239479   1.536   1.580   3.834 -0.6752 -0.1002  0.2557
 6022TIP3   OH239480   2.977   4.033   5.518  0.0390 -0.2170 -0.0416
 6022TIP3    H139481   2.967   4.098   5.588 -2.2225 -0.5337  0.0026
 6022TIP3    H239482   3.014   3.956   5.563 -0.5107 -0.1043  0.6239
 6023TIP3   OH239483   4.486   3.485  13.515  0.3310  0.7947 -0.1534
 6023TIP3    H139484   4.392   3.500  13.503  0.3926  0.5268 -1.0122
 6023TIP3    H239485   4.524   3.572  13.516  0.0273  0.9301  0.6825
 6024TIP3   OH239486   0.640   3.750   2.764  0.7149  0.0385 -0.4690
 6024TIP3    H139487   0.572   3.771   2.699  1.7402  0.0196 -1.5774
 6024TIP3    H239488   0.608   3.790   2.845 -0.7950 -0.2755 -0.8656
 6025TIP3   OH239489   4.076   0.942  14.342 -0.2244  0.1572 -0.5879
 6025TIP3    H139490   4.118   0.869  14.296 -0.9119  0.3612 -1.5883
 6025TIP3    H239491   4.080   1.015  14.279 -1.4274  0.3666 -0.4437
 6026TIP3   OH239492   1.222   3.354  16.669 -0.5365  0.8585 -0.1005
 6026TIP3    H139493   1.283   3.406  16.618  1.0775 -0.6986  0.1721
 6026TIP3    H239494   1.261   3.349  16.756 -0.1947 -1.4800 -0.3382
 6027TIP3   OH239495   4.975   6.475   5.025 -0.0311 -0.7576  0.1435
 6027TIP3    H139496   4.946   6.384   5.018 -0.7983 -0.4796 -0.5561
 6027TIP3    H239497   5.035   6.487   4.951 -0.8852 -0.3802 -0.5194
 6028TIP3   OH239498   6.323   3.996   2.222  0.2973  0.3392  0.2227
 6028TIP3    H139499   6.303   4.090   2.225  1.0040  0.5061  0.0562
 6028TIP3    H239500   6.416   3.991   2.242  0.3193 -0.3077 -0.0160
 6029TIP3   OH239501   0.510   6.102  16.726  0.4588 -0.0504 -0.0792
 6029TIP3    H139502   0.555   6.123  16.644 -0.8925  2.3598 -0.3079
 6029TIP3    H239503   0.419   6.087  16.700  0.1064  0.2760  0.9008
 6030TIP3   OH239504   5.786   1.558  15.443  0.0744 -0.1774  0.2239
 6030TIP3    H139505   5.838   1.594  15.514  0.1880 -1.2613  0.7106
 6030TIP3    H239506   5.783   1.628  15.377  0.7153  0.5097  0.9072
 6031TIP3   OH239507   5.426   0.595   4.921 -0.3735  0.0455  0.5739
 6031TIP3    H139508   5.437   0.690   4.927  1.3976 -0.1875  1.5359
 6031TIP3    H239509   5.478   0.560   4.993  0.6710 -1.7632 -0.9857
 6032TIP3   OH239510   5.747   6.346   6.271 -0.8095 -0.3656 -0.2217
 6032TIP3    H139511   5.761   6.377   6.182 -1.3963  1.1167  0.1697
 6032TIP3    H239512   5.721   6.425   6.320  2.0828 -0.5587  1.8665
 6033TIP3   OH239513   1.349   4.521  15.735 -0.0758  0.2719 -0.2480
 6033TIP3    H139514   1.381   4.576  15.806  0.3374  1.0100 -0.9934
 6033TIP3    H239515   1.356   4.432  15.770  1.6203  0.4929  0.0750
 6034TIP3   OH239516   5.190   1.552   1.280  0.1153 -0.5665 -0.3715
 6034TIP3    H139517   5.169   1.630   1.331  1.7857 -0.3970  0.1226
 6034TIP3    H239518   5.159   1.571   1.192  1.5279  1.1786 -0.5596
 6035TIP3   OH239519   6.176   0.984  16.345  0.2707  1.2539 -0.0840
 6035TIP3    H139520   6.183   0.891  16.368  1.1340  0.4475 -3.1230
 6035TIP3    H239521   6.227   1.029  16.412  1.1638 -0.6256  0.5740
 6036TIP3   OH239522   1.743   6.617  16.589  0.3427 -0.1645  0.4755
 6036TIP3    H139523   1.678   6.599  16.521 -0.4388  2.5190  0.4018
 6036TIP3    H239524   1.749   6.535  16.639  1.0669 -2.2997 -2.8331
 6037TIP3   OH239525   1.593   4.030   3.241  0.6201 -0.5586 -0.1477
 6037TIP3    H139526   1.560   4.029   3.151  1.6677 -0.7272 -0.5488
 6037TIP3    H239527   1.666   4.092   3.239 -0.8162  1.2798  1.1576
 6038TIP3   OH239528   2.415   5.591  16.669 -0.4043  0.5119  0.4125
 6038TIP3    H139529   2.331   5.546  16.659  0.2068 -0.2554 -2.1103
 6038TIP3    H239530   2.462   5.539  16.734 -1.3041  0.0390  0.7055
 6039TIP3   OH239531   4.969   2.849   3.827  0.0595  0.0998 -0.5618
 6039TIP3    H139532   5.034   2.811   3.768 -1.1719  0.8255 -2.4468
 6039TIP3    H239533   4.885   2.832   3.785 -0.9614 -0.1233  1.4339
 6040TIP3   OH239534   4.479   6.450  13.240 -0.8994  0.3061 -0.2889
 6040TIP3    H139535   4.569   6.455  13.207 -0.5401 -0.1772  0.5897
 6040TIP3    H239536   4.463   6.356  13.250 -0.3394  0.4320  2.5772
 6041TIP3   OH239537   5.987   4.410  14.242 -0.2817 -0.3819 -0.3837
 6041TIP3    H139538   5.990   4.450  14.156 -0.1031 -1.0939 -0.7144
 6041TIP3    H239539   5.913   4.350  14.239 -0.6044 -0.0227  0.1357
 6042TIP3   OH239540   2.511   6.124   0.405 -0.0536 -0.0432  0.0309
 6042TIP3    H139541   2.550   6.046   0.443 -2.1021 -0.4414  1.5074
 6042TIP3    H239542   2.521   6.191   0.473  0.9223  0.7645 -0.8817
 6043TIP3   OH239543   6.292   3.189  12.678 -0.3513 -0.1074 -0.1806
 6043TIP3    H139544   6.241   3.131  12.622 -0.1694  1.6171 -2.2416
 6043TIP3    H239545   6.381   3.185  12.644  0.0213  0.1096  0.7252
 6044TIP3   OH239546   5.663   6.253  15.964  0.1985  1.0613 -0.6028
 6044TIP3    H139547   5.634   6.164  15.985 -0.0848  0.9309 -1.5170
 6044TIP3    H239548   5.612   6.309  16.022  0.6869  0.6108  0.2908
 6045TIP3   OH239549   5.608   1.955   2.811 -0.0720  0.0474 -0.2262
 6045TIP3    H139550   5.540   1.994   2.757 -0.0061  2.0867  1.0562
 6045TIP3    H239551   5.561   1.925   2.890  0.2697 -0.0575 -0.0604
 6046TIP3   OH239552   0.942   2.500  16.431 -0.1878 -0.3009 -0.4236
 6046TIP3    H139553   0.935   2.405  16.426 -0.2812 -0.3606  0.6499
 6046TIP3    H239554   0.954   2.528  16.340 -0.6911 -1.2913 -0.8081
 6047TIP3   OH239555   2.986   3.265  17.080 -0.1506  0.2650  0.7335
 6047TIP3    H139556   2.902   3.225  17.055 -0.2768 -0.3395  2.0205
 6047TIP3    H239557   3.023   3.204  17.143  0.8176  1.0058  0.9002
 6048TIP3   OH239558   1.202   5.318  11.372 -0.1925  0.3414 -0.0702
 6048TIP3    H139559   1.139   5.266  11.422 -0.3171  3.0561  2.8850
 6048TIP3    H239560   1.153   5.346  11.295 -1.9739  0.7211  1.1443
 6049TIP3   OH239561   0.796   1.180  11.818  0.2967 -0.3060  0.0436
 6049TIP3    H139562   0.835   1.255  11.863 -1.2528  0.3258  0.3942
 6049TIP3    H239563   0.725   1.217  11.766  0.7871 -1.2939 -1.3850
 6050TIP3   OH239564   1.146   2.844   0.316 -0.1074  0.0940  0.0461
 6050TIP3    H139565   1.079   2.793   0.361  0.8894 -0.6499  0.7345
 6050TIP3    H239566   1.199   2.779   0.270 -2.0066  0.9000 -3.6240
 6051TIP3   OH239567   3.592   6.113  14.321 -0.2806 -0.3589  0.2219
 6051TIP3    H139568   3.663   6.077  14.374  0.5165  0.4708 -0.2372
 6051TIP3    H239569   3.633   6.132  14.236 -1.1523 -0.2348 -0.1856
 6052TIP3   OH239570   4.260   4.976   4.866 -0.2217  0.5783  0.0410
 6052TIP3    H139571   4.223   4.982   4.778  1.8575  0.2694 -0.8990
 6052TIP3    H239572   4.189   5.004   4.924 -1.9102 -0.0187 -1.6525
 6053TIP3   OH239573   6.036   2.453   1.672 -0.3181  0.2673  0.1217
 6053TIP3    H139574   6.075   2.539   1.689  0.5070 -0.2412  0.9142
 6053TIP3    H239575   6.023   2.451   1.578  0.8118  0.7936 -0.0631
 6054TIP3   OH239576   3.018   5.651   0.663 -0.1128 -0.4056 -0.8960
 6054TIP3    H139577   2.998   5.732   0.616 -0.3903  0.0920  0.0592
 6054TIP3    H239578   2.939   5.598   0.654 -0.8594  0.4257  0.5182
 6055TIP3   OH239579   3.357   4.963  16.999  0.0314 -0.2521  0.0375
 6055TIP3    H139580   3.300   4.973  17.074  0.9619 -0.7293  0.8323
 6055TIP3    H239581   3.388   5.052  16.980 -0.7795 -0.0261 -0.2564
 6056TIP3   OH239582   6.501   4.318   3.193 -0.1770  0.3154 -0.2137
 6056TIP3    H139583   6.549   4.236   3.204  0.7599  0.6333 -1.6514
 6056TIP3    H239584   6.567   4.387   3.204 -0.6326  0.8191 -0.5647
 6057TIP3   OH239585   5.541   6.566   1.209 -0.2066 -0.1347 -0.2843
 6057TIP3    H139586   5.452   6.570   1.173 -1.0289 -3.1681  1.1279
 6057TIP3    H239587   5.576   6.483   1.177  1.1965 -0.1572  1.1863
 6058TIP3   OH239588   1.237   1.417  10.829  0.4106  0.0985  0.2100
 6058TIP3    H139589   1.161   1.367  10.798  0.6679  0.2878 -0.7888
 6058TIP3    H239590   1.226   1.504  10.790 -0.6672  1.2627  2.9074
 6059TIP3   OH239591   2.899   0.522   0.979 -0.4354 -0.5593 -0.4065
 6059TIP3    H139592   2.987   0.550   0.957  0.0348 -1.3553  0.3761
 6059TIP3    H239593   2.874   0.463   0.907 -1.0214  0.9866 -1.5092
 6060TIP3   OH239594   3.468   2.096  14.013  0.3923  0.2173 -0.7221
 6060TIP3    H139595   3.541   2.114  14.073 -0.4742  1.9916 -0.1217
 6060TIP3    H239596   3.392   2.087  14.071 -0.2481  0.7217 -1.4666
 6061TIP3   OH239597   1.137   2.037  13.924 -0.3033  0.5798 -0.4881
 6061TIP3    H139598   1.160   2.001  14.010  1.3016 -1.0922 -1.5454
 6061TIP3    H239599   1.211   2.013  13.868 -1.6325  1.0288 -2.5174
 6062TIP3   OH239600   4.530   4.981   6.206  0.1575  0.4907  0.3903
 6062TIP3    H139601   4.511   5.072   6.229 -0.5601  0.3697  0.2912
 6062TIP3    H239602   4.524   4.978   6.111  1.6923  0.6668  0.2598
 6063TIP3   OH239603   2.323   3.172  12.712  0.0648 -0.5677  0.0432
 6063TIP3    H139604   2.247   3.177  12.770  0.1699 -0.6757  0.1893
 6063TIP3    H239605   2.385   3.117  12.758 -0.8435 -2.8128 -1.2735
 6064TIP3   OH239606   3.473   4.972   5.882  0.0831 -0.0880 -0.5111
 6064TIP3    H139607   3.460   4.963   5.976 -1.2523 -0.4599 -0.7199
 6064TIP3    H239608   3.557   5.019   5.874 -0.8648  2.0197  0.9043
 6065TIP3   OH239609   3.788   1.715   4.261 -0.1013 -0.1206 -0.0906
 6065TIP3    H139610   3.732   1.792   4.249 -0.4799 -0.4352 -0.3688
 6065TIP3    H239611   3.865   1.733   4.207 -0.9421 -0.6757 -1.5286
 6066TIP3   OH239612   2.096   0.176  13.836 -0.0950 -0.0888  0.9804
 6066TIP3    H139613   2.165   0.111  13.852  2.5295  2.1469 -0.2618
 6066TIP3    H239614   2.089   0.224  13.918  0.0612 -0.1152  1.0095
 6067TIP3   OH239615   1.009   1.171   1.704 -0.5238 -0.2056  0.4832
 6067TIP3    H139616   1.046   1.095   1.749 -1.5447 -1.1574 -0.2382
 6067TIP3    H239617   1.060   1.177   1.623  1.6712  1.8229  1.8634
 6068TIP3   OH239618   6.683   3.091  15.167 -0.3636 -0.2377  0.1023
 6068TIP3    H139619   6.725   3.016  15.125  0.0621 -0.3795  0.7676
 6068TIP3    H239620   6.755   3.151  15.187 -0.7094  0.3966 -0.5095
 6069TIP3   OH239621   2.171   1.248  11.467 -0.5312  0.8327 -0.5756
 6069TIP3    H139622   2.245   1.193  11.493 -1.5196 -0.0625  0.4862
 6069TIP3    H239623   2.202   1.294  11.390  1.7642  1.8709  0.8469
 6070TIP3   OH239624   5.465   6.109  11.463  0.0008 -0.0635 -0.5005
 6070TIP3    H139625   5.523   6.033  11.464  0.7220  0.3752 -2.6137
 6070TIP3    H239626   5.378   6.073  11.451  0.3827 -0.6035 -1.9237
 6071TIP3   OH239627   5.481   3.805   4.433 -0.5103 -0.4546 -0.0976
 6071TIP3    H139628   5.484   3.723   4.483  0.3078  0.0629  0.7509
 6071TIP3    H239629   5.397   3.845   4.457 -0.9125 -1.0436 -0.5183
 6072TIP3   OH239630   3.895   2.729  10.817  0.0209 -0.5753  0.0416
 6072TIP3    H139631   3.872   2.822  10.815  0.9534 -0.3369  0.1373
 6072TIP3    H239632   3.964   2.720  10.752 -0.5622 -1.3541 -0.4907
 6073TIP3   OH239633   6.102   4.841  13.440  0.3053 -0.9720  0.4555
 6073TIP3    H139634   6.170   4.813  13.379  0.0796  0.7893 -0.6771
 6073TIP3    H239635   6.126   4.798  13.523  2.1612 -1.2865 -0.1816
 6074TIP3   OH239636   5.792   1.800  14.073 -0.5946  0.5677 -0.5602
 6074TIP3    H139637   5.837   1.716  14.080 -0.2643  0.8657  2.1141
 6074TIP3    H239638   5.706   1.784  14.112  0.2286  1.8708  2.0471
 6075TIP3   OH239639   2.735   6.602   4.903  0.1557  0.3096 -0.5235
 6075TIP3    H139640   2.806   6.546   4.934 -1.0009 -0.8153  0.2327
 6075TIP3    H239641   2.771   6.691   4.906  1.0862 -0.0782  1.1930
 6076TIP3   OH239642   4.945   2.675   5.267 -0.3826  0.0771  0.1349
 6076TIP3    H139643   5.037   2.699   5.279 -0.5121  0.1708  1.0355
 6076TIP3    H239644   4.931   2.679   5.173  0.3671  0.6858  0.0381
 6077TIP3   OH239645   0.055   5.348   1.202  0.1089  0.5049 -0.0330
 6077TIP3    H139646  -0.011   5.315   1.141  0.2413 -2.3418  1.2207
 6077TIP3    H239647   0.004   5.387   1.273 -0.0883  1.6671 -0.7821
 6078TIP3   OH239648   5.431   6.781   4.943 -0.1565 -0.3626  0.4077
 6078TIP3    H139649   5.338   6.786   4.963 -0.4144  1.3913 -0.9878
 6078TIP3    H239650   5.435   6.760   4.850  0.8733 -1.2224  0.6195
 6079TIP3   OH239651   6.504   3.896   5.170  0.3407 -0.1041 -0.3483
 6079TIP3    H139652   6.451   3.866   5.244  0.9592 -0.8985 -0.2204
 6079TIP3    H239653   6.569   3.955   5.210  0.0992  0.1969 -0.3920
 6080TIP3   OH239654   3.669   0.810   5.532  0.4037 -0.2625  0.2350
 6080TIP3    H139655   3.632   0.846   5.451  0.3055  0.3117  0.5284
 6080TIP3    H239656   3.732   0.744   5.503  0.7558  0.3084 -0.3236
 6081TIP3   OH239657   4.464   2.440  14.067 -0.0730  0.1941 -0.3260
 6081TIP3    H139658   4.474   2.348  14.089 -4.1225 -0.2884  0.3581
 6081TIP3    H239659   4.459   2.442  13.972  1.3615 -0.0449 -0.4253
 6082TIP3   OH239660   2.420   1.928  16.784 -0.4023 -0.0917 -0.2930
 6082TIP3    H139661   2.410   2.005  16.729 -0.3099  0.7229  0.8028
 6082TIP3    H239662   2.449   1.859  16.723  0.7665  1.0443 -1.0808
 6083TIP3   OH239663   1.684   2.218  15.998  0.2370  0.2952 -0.1807
 6083TIP3    H139664   1.611   2.280  15.992 -1.1629 -1.1945  0.6442
 6083TIP3    H239665   1.728   2.241  16.080  0.7159  1.1845 -0.6687
 6084TIP3   OH239666   5.466   5.671   6.133 -0.0424 -0.2883 -0.1926
 6084TIP3    H139667   5.542   5.642   6.184  0.0552 -0.3052 -0.3463
 6084TIP3    H239668   5.404   5.704   6.198 -0.7400 -2.1265  0.1269
 6085TIP3   OH239669   4.445   5.045   0.167 -0.5061  0.3504  0.2810
 6085TIP3    H139670   4.447   4.957   0.127  0.7434  0.4072  0.1747
 6085TIP3    H239671   4.419   5.029   0.258  0.5588 -0.2466  0.4992
 6086TIP3   OH239672   2.519   6.215   1.840  0.0354  0.1914 -0.3134
 6086TIP3    H139673   2.473   6.182   1.917  1.6132 -0.2861  0.4630
 6086TIP3    H239674   2.449   6.243   1.781 -1.2343 -0.2913  0.8979
 6087TIP3   OH239675   3.827   2.459  13.627  0.2821  0.2313  0.4484
 6087TIP3    H139676   3.733   2.464  13.614 -0.0416 -0.0564  2.3919
 6087TIP3    H239677   3.855   2.550  13.635 -0.0745  0.2806  1.2561
 6088TIP3   OH239678   4.571   6.379  13.967 -0.0922  0.0528  0.9051
 6088TIP3    H139679   4.476   6.389  13.972 -0.2442 -0.1800 -0.8207
 6088TIP3    H239680   4.584   6.302  13.912  1.1123 -0.5146  1.9399
 6089TIP3   OH239681   3.366   1.953  13.129 -0.0349 -0.7264  0.6814
 6089TIP3    H139682   3.383   1.953  13.034 -0.8554  1.9534  0.4710
 6089TIP3    H239683   3.313   1.875  13.143  0.4273 -1.4026 -0.9793
 6090TIP3   OH239684   0.574   3.702   2.445 -0.2739 -0.5387  0.2006
 6090TIP3    H139685   0.502   3.765   2.436  0.1602 -0.0472  0.0962
 6090TIP3    H239686   0.609   3.692   2.356 -0.6476 -1.3093  0.1311
 6091TIP3   OH239687   0.443   2.585   3.674  0.2480  0.1526 -0.0818
 6091TIP3    H139688   0.404   2.510   3.630  0.6351 -0.3448  0.4108
 6091TIP3    H239689   0.369   2.629   3.716 -0.1455  0.7175 -1.3332
 6092TIP3   OH239690   4.811   0.983  16.242  0.9869  0.5455  0.6353
 6092TIP3    H139691   4.754   1.027  16.179  0.4949 -1.2397 -0.2296
 6092TIP3    H239692   4.816   0.893  16.211 -0.3581 -0.7889  3.8153
 6093TIP3   OH239693   0.175   1.966   0.362 -0.1583 -0.0954  0.0504
 6093TIP3    H139694   0.109   2.017   0.314 -0.3224 -0.2006  0.1645
 6093TIP3    H239695   0.223   1.919   0.294  0.5404  0.8415 -0.1325
 6094TIP3   OH239696   3.692   0.252   4.455 -0.1887  0.1824  0.0258
 6094TIP3    H139697   3.608   0.290   4.478  0.3941  1.5847 -0.0448
 6094TIP3    H239698   3.749   0.274   4.528  0.6783  1.2777 -0.9293
 6095TIP3   OH239699   1.045   3.408  14.230  0.2536  0.2768  0.4782
 6095TIP3    H139700   1.053   3.447  14.143 -0.2064  0.4904  0.5253
 6095TIP3    H239701   1.097   3.328  14.226  1.5797  1.0991  0.5047
 6096TIP3   OH239702   1.485   0.851   2.132 -0.5302  0.2500  0.1289
 6096TIP3    H139703   1.407   0.842   2.077  0.3134 -0.7932 -0.9491
 6096TIP3    H239704   1.479   0.777   2.193 -0.0497 -0.2361 -0.4042
 6097TIP3   OH239705   5.711   0.475   5.491 -0.3259 -0.2230  0.1336
 6097TIP3    H139706   5.793   0.499   5.535  0.2387 -1.5928 -0.1451
 6097TIP3    H239707   5.644   0.523   5.539  0.3472 -1.1520  2.0697
 6098TIP3   OH239708   0.439   1.263  11.224  0.7023  0.6265 -0.1671
 6098TIP3    H139709   0.441   1.210  11.304  0.6544  1.4299  0.3816
 6098TIP3    H239710   0.355   1.309  11.228  0.7788  0.8047 -0.5881
 6099TIP3   OH239711   4.005   0.933   6.080  0.0804  0.6234 -0.1584
 6099TIP3    H139712   3.959   0.988   6.016  0.9054 -0.9825 -2.2348
 6099TIP3    H239713   4.062   0.993   6.128  0.5148  1.6969 -1.9487
 6100TIP3   OH239714   1.124   6.737   1.114  0.1104  0.1467 -0.0820
 6100TIP3    H139715   1.051   6.697   1.066 -2.7470  1.4757  2.8411
 6100TIP3    H239716   1.139   6.821   1.070  0.0903 -0.2274 -0.8267
 6101TIP3   OH239717   6.411   6.277   3.566  0.0578  0.0060  0.3049
 6101TIP3    H139718   6.427   6.222   3.644  1.0886 -0.0712  0.0552
 6101TIP3    H239719   6.447   6.363   3.590  0.8768 -0.1628 -0.2641
 6102TIP3   OH239720   2.902   3.164   2.652  0.1073  0.1490  0.2339
 6102TIP3    H139721   2.862   3.174   2.738  2.3177 -0.5505  1.4330
 6102TIP3    H239722   2.884   3.073   2.627 -2.1790  0.8705 -1.0088
 6103TIP3   OH239723   3.136   5.305  11.532 -0.0526 -0.3821 -0.1076
 6103TIP3    H139724   3.071   5.369  11.503 -0.5039 -0.7806  0.0192
 6103TIP3    H239725   3.104   5.274  11.616  0.2183 -0.6975 -0.1172
 6104TIP3   OH239726   1.486   2.648   4.335 -0.6475  0.7358  0.1682
 6104TIP3    H139727   1.395   2.622   4.347 -1.0874 -0.1725 -3.7368
 6104TIP3    H239728   1.486   2.742   4.353 -2.2371  0.6614  0.7138
 6105TIP3   OH239729   6.521   4.951  12.916 -0.1031  0.2294  0.2661
 6105TIP3    H139730   6.506   4.860  12.891  0.9765  0.0009  0.4230
 6105TIP3    H239731   6.503   5.000  12.836  1.0867 -0.2965 -0.3491
 6106TIP3   OH239732   0.157   6.261  14.499  0.6700 -0.1073  0.6589
 6106TIP3    H139733   0.186   6.307  14.578  0.6419 -1.2773  1.3674
 6106TIP3    H239734   0.183   6.170  14.513  0.4552 -0.3770 -0.5884
 6107TIP3   OH239735   1.181   4.183  11.227  0.3869  0.6032 -0.0189
 6107TIP3    H139736   1.257   4.148  11.274 -0.8880  0.0331  1.7546
 6107TIP3    H239737   1.218   4.244  11.164  2.5560 -1.9950 -1.5004
 6108TIP3   OH239738   4.133   2.747   1.028 -0.3944  0.6343  0.6299
 6108TIP3    H139739   4.211   2.760   0.973 -0.2742  0.5176  0.7743
 6108TIP3    H239740   4.129   2.653   1.041 -0.2878  0.6817  1.0211
 6109TIP3   OH239741   5.593   5.421  11.713  0.1693  0.1167 -0.3496
 6109TIP3    H139742   5.553   5.447  11.630  1.3801  0.7368 -0.7586
 6109TIP3    H239743   5.687   5.416  11.694  0.4011 -0.3617  0.8245
 6110TIP3   OH239744   2.626   0.145   0.588 -0.2814  0.2789 -0.5177
 6110TIP3    H139745   2.632   0.072   0.650 -0.1958  1.2143  0.5970
 6110TIP3    H239746   2.597   0.104   0.506 -0.6033 -0.9447  0.1824
 6111TIP3   OH239747   5.762   2.943  12.526  0.4331  0.3141 -0.3731
 6111TIP3    H139748   5.751   3.037  12.515  0.9220  0.1988 -2.1448
 6111TIP3    H239749   5.847   2.924  12.485 -0.0899 -1.0241 -0.8894
 6112TIP3   OH239750   5.545   0.559  16.488  0.5733  0.0349  0.2435
 6112TIP3    H139751   5.500   0.580  16.406  0.0631  0.7065  0.6822
 6112TIP3    H239752   5.638   0.554  16.464  0.3439 -0.7259 -0.5509
 6113TIP3   OH239753   3.858   3.563   5.624 -0.2895 -0.3284  0.4196
 6113TIP3    H139754   3.951   3.588   5.626 -0.1590 -0.6668 -0.7282
 6113TIP3    H239755   3.838   3.541   5.715  1.0422 -1.2567  0.5227
 6114TIP3   OH239756   0.549   6.768  11.395 -0.2182  0.1510 -0.0581
 6114TIP3    H139757   0.555   6.785  11.301  0.2999  1.2392  0.1630
 6114TIP3    H239758   0.565   6.853  11.436 -0.2962 -0.3431  1.0204
 6115TIP3   OH239759   5.370   3.358   3.504 -0.0506 -0.1583  0.2898
 6115TIP3    H139760   5.457   3.336   3.470 -0.1648 -0.6428  0.2924
 6115TIP3    H239761   5.348   3.285   3.563 -1.0102 -0.7521 -0.7450
 6116TIP3   OH239762   3.963   6.707   1.665  0.1920 -0.6569 -0.6143
 6116TIP3    H139763   3.887   6.651   1.683 -1.1896  1.6894  1.5100
 6116TIP3    H239764   3.936   6.760   1.590  1.2823 -2.2570 -2.2511
 6117TIP3   OH239765   5.309   1.757  12.430 -0.5367  0.8567  0.5611
 6117TIP3    H139766   5.278   1.812  12.358  0.3869 -2.5269 -2.7162
 6117TIP3    H239767   5.232   1.743  12.485 -2.0347  1.3580 -1.3059
 6118TIP3   OH239768   3.971   2.483  11.713  0.5082  0.7167 -0.8004
 6118TIP3    H139769   4.016   2.566  11.697 -0.4949  1.3522 -0.3962
 6118TIP3    H239770   3.966   2.442  11.627  0.1720  1.5217 -1.1779
 6119TIP3   OH239771   4.735   5.617   2.645 -0.4915  0.5907  0.4076
 6119TIP3    H139772   4.650   5.621   2.602  0.4162  0.2728 -1.5377
 6119TIP3    H239773   4.767   5.707   2.644 -0.1967  0.4839 -0.2005
 6120TIP3   OH239774   3.348   5.779  15.278 -0.1153 -0.2787  0.0010
 6120TIP3    H139775   3.259   5.773  15.245 -0.7335 -1.5657  1.7505
 6120TIP3    H239776   3.380   5.689  15.278  1.0349  0.1156 -0.1798
 6121TIP3   OH239777   1.405   2.789  16.475  0.5706  0.0587  0.1978
 6121TIP3    H139778   1.473   2.729  16.506  0.2861 -0.3889 -0.0268
 6121TIP3    H239779   1.381   2.756  16.388  2.3057  2.0796 -1.1374
 6122TIP3   OH239780   3.439   2.193   2.413  0.0048  0.2289  0.0740
 6122TIP3    H139781   3.507   2.189   2.346  0.1238  0.3425  0.1895
 6122TIP3    H239782   3.481   2.161   2.493  0.2641  1.4009  0.4292
 6123TIP3   OH239783   0.952   1.397   5.551  0.1856 -0.0445 -0.3459
 6123TIP3    H139784   0.928   1.396   5.458  1.1715 -0.5291 -0.6165
 6123TIP3    H239785   0.884   1.346   5.595 -0.2415  0.1168 -0.8230
 6124TIP3   OH239786   5.527   2.604   4.828  0.3013  0.4029 -0.4175
 6124TIP3    H139787   5.463   2.551   4.876  2.0578 -0.3903  1.1704
 6124TIP3    H239788   5.568   2.543   4.767  0.7000  0.5061 -0.2531
 6125TIP3   OH239789   0.050   0.817  13.861 -0.0600  0.0733 -0.5437
 6125TIP3    H139790  -0.037   0.818  13.821 -1.2852  2.5236  1.8694
 6125TIP3    H239791   0.092   0.896  13.828  1.1284 -0.8209 -1.2722
 6126TIP3   OH239792   6.026   5.943  11.266 -0.2190 -0.4011 -0.0993
 6126TIP3    H139793   6.055   5.905  11.183  2.1605  0.5452  0.2207
 6126TIP3    H239794   6.016   5.868  11.324  1.0430 -0.8571 -0.4350
 6127TIP3   OH239795   2.602   3.901   5.802 -0.1292 -0.1567  0.1894
 6127TIP3    H139796   2.559   3.948   5.730 -1.8189 -0.9834  0.6147
 6127TIP3    H239797   2.667   3.845   5.759 -0.8097 -0.3132 -0.6459
 6128TIP3   OH239798   3.250   3.187  13.017  0.4087 -0.2366  0.1602
 6128TIP3    H139799   3.162   3.162  13.045 -0.2735 -0.4567 -1.9640
 6128TIP3    H239800   3.276   3.256  13.078 -1.5682  0.3968  0.3728
 6129TIP3   OH239801   1.604   6.589   3.183  0.0347  0.3150 -0.0948
 6129TIP3    H139802   1.594   6.622   3.094  1.8061  0.6325 -0.2050
 6129TIP3    H239803   1.577   6.497   3.178  0.2128  0.3033 -0.9735
 6130TIP3   OH239804   3.799   1.390  12.692  0.3292 -0.1599 -0.5322
 6130TIP3    H139805   3.885   1.380  12.733 -0.5027 -1.1173  1.1202
 6130TIP3    H239806   3.816   1.436  12.610  2.4241 -0.4783 -0.3340
 6131TIP3   OH239807   3.067   6.437  13.556 -0.3207 -0.4838 -0.0031
 6131TIP3    H139808   3.005   6.379  13.512 -1.6014 -0.3248  1.4804
 6131TIP3    H239809   3.049   6.524  13.520 -0.2304 -0.6010 -0.3316
 6132TIP3   OH239810   2.254   1.668   0.216 -0.1684  0.1258  0.0692
 6132TIP3    H139811   2.303   1.735   0.264 -2.6267 -0.0270  3.0861
 6132TIP3    H239812   2.167   1.669   0.255 -0.6692 -4.0854 -0.4666
 6133TIP3   OH239813   3.031   6.535  16.380 -0.5904 -0.4178 -0.5255
 6133TIP3    H139814   2.960   6.540  16.444  0.6423  1.1975  0.7989
 6133TIP3    H239815   2.989   6.500  16.301 -2.2078 -2.3114  1.0357
 6134TIP3   OH239816   0.126   2.624   3.049 -0.2645  0.0210 -0.0337
 6134TIP3    H139817   0.186   2.688   3.086  0.6508 -1.3813  1.0283
 6134TIP3    H239818   0.169   2.539   3.063 -1.2096 -0.8158 -1.7905
 6135TIP3   OH239819   3.358   6.736   0.854  0.7633 -0.2570  0.0096
 6135TIP3    H139820   3.449   6.753   0.879  1.2373 -2.5119  0.1022
 6135TIP3    H239821   3.318   6.703   0.935  0.3320 -0.8273 -0.4353
 6136TIP3   OH239822   1.252   6.090  16.148 -0.1023  0.0677 -0.4356
 6136TIP3    H139823   1.244   6.185  16.144  0.6345  0.1073 -1.7593
 6136TIP3    H239824   1.301   6.073  16.228  0.1586  0.8406 -0.4259
 6137TIP3   OH239825   2.884   3.633   3.941 -0.0699 -0.0491  0.0061
 6137TIP3    H139826   2.824   3.616   3.868 -0.3385 -0.2327  0.2633
 6137TIP3    H239827   2.840   3.700   3.993 -0.0608 -0.1981  0.2063
 6138TIP3   OH239828   2.010   0.235   1.715 -0.3486 -0.1098  0.0734
 6138TIP3    H139829   2.067   0.247   1.791  0.9554  1.9908 -1.1471
 6138TIP3    H239830   1.923   0.260   1.746  0.5053  2.8312  0.4539
 6139TIP3   OH239831   4.434   4.444   2.935 -0.0132 -0.3369 -0.6430
 6139TIP3    H139832   4.513   4.406   2.897 -0.6994 -1.6752 -0.7837
 6139TIP3    H239833   4.396   4.374   2.988 -0.5071  0.6505  0.3647
 6140TIP3   OH239834   3.266   5.158  12.124 -0.7645 -0.1229  0.0291
 6140TIP3    H139835   3.261   5.111  12.207 -2.7264 -0.3474 -0.1580
 6140TIP3    H239836   3.352   5.200  12.125 -1.2401  1.0048  2.7990
 6141TIP3   OH239837   1.037   2.960  12.601 -0.4944 -0.0425 -0.1999
 6141TIP3    H139838   1.077   2.876  12.623 -0.6416 -0.2042 -0.5369
 6141TIP3    H239839   1.110   3.023  12.603 -0.3977 -0.1676  0.1137
 6142TIP3   OH239840   4.810   1.054  15.636 -0.2213 -0.4828  0.1746
 6142TIP3    H139841   4.725   1.085  15.605  0.4383  1.8391  0.5355
 6142TIP3    H239842   4.789   0.974  15.685 -2.2438  0.1674  0.4849
 6143TIP3   OH239843   4.348   5.369   3.491  0.2460  0.0832 -0.4996
 6143TIP3    H139844   4.398   5.376   3.573  0.2824  1.4619 -0.6202
 6143TIP3    H239845   4.324   5.277   3.486 -1.4668  0.2719  2.0868
 6144TIP3   OH239846   2.665   2.941   0.184 -0.3573 -0.1170 -0.2290
 6144TIP3    H139847   2.666   3.016   0.124 -0.2295  0.2795  0.2645
 6144TIP3    H239848   2.748   2.948   0.232 -0.2455 -0.7005 -0.3342
 6145TIP3   OH239849   0.713   3.050   5.796 -0.2155 -0.0511  0.1959
 6145TIP3    H139850   0.654   3.103   5.850  0.5691 -0.3776  1.4137
 6145TIP3    H239851   0.708   2.963   5.834  2.3107  0.2711  1.4354
 6146TIP3   OH239852   1.876   5.675  16.648 -0.4992  0.0906  0.5915
 6146TIP3    H139853   1.872   5.748  16.709  0.8808 -0.7220  1.7387
 6146TIP3    H239854   1.955   5.691  16.596  0.1986 -0.8585  1.3011
 6147TIP3   OH239855   0.477   3.659   4.770  0.7720  0.0191 -0.1846
 6147TIP3    H139856   0.571   3.652   4.754  0.8374  0.7203 -0.1542
 6147TIP3    H239857   0.466   3.746   4.809 -0.0240  0.4557 -1.3154
 6148TIP3   OH239858   6.561   3.289  16.012 -0.6791  0.3828  0.1745
 6148TIP3    H139859   6.626   3.240  15.961 -0.8911  0.7211 -0.4334
 6148TIP3    H239860   6.570   3.255  16.101 -1.8482 -1.8642 -0.4901
 6149TIP3   OH239861   3.816   3.237   5.275 -0.0221 -0.5357 -0.2494
 6149TIP3    H139862   3.807   3.331   5.293 -0.4235 -0.7802  0.8833
 6149TIP3    H239863   3.837   3.198   5.360 -1.4507 -1.6720 -0.3862
 6150TIP3   OH239864   4.731   1.981   6.287  0.3066  0.8269 -0.4328
 6150TIP3    H139865   4.693   2.010   6.370  3.1421  1.1569  0.8910
 6150TIP3    H239866   4.720   1.886   6.287 -2.9149  1.0948 -1.5079
 6151TIP3   OH239867   5.596   2.910  12.261 -0.1934 -0.2899  0.1763
 6151TIP3    H139868   5.529   2.878  12.201  0.2743 -1.3990  0.2224
 6151TIP3    H239869   5.600   3.004  12.245 -0.1150 -0.5543 -1.5010
 6152TIP3   OH239870   6.667   1.188   4.652 -0.4415 -0.4008  0.3136
 6152TIP3    H139871   6.683   1.135   4.730  1.5506  1.2133  1.1025
 6152TIP3    H239872   6.719   1.146   4.583 -0.5716 -0.6674  0.3779
 6153TIP3   OH239873   5.766   6.356  13.424 -0.1238 -0.6541 -0.8221
 6153TIP3    H139874   5.836   6.368  13.488 -0.7815  0.6969 -0.3015
 6153TIP3    H239875   5.796   6.403  13.346  0.1140 -1.2014 -1.0649
 6154TIP3   OH239876   0.059   6.597  11.559  0.2334 -0.5531 -0.6153
 6154TIP3    H139877   0.022   6.658  11.622 -1.1295 -1.3574 -0.6101
 6154TIP3    H239878   0.006   6.518  11.567 -0.3795 -0.5100 -3.1472
 6155TIP3   OH239879   5.170   0.880   4.108 -0.0155  0.5166 -0.0732
 6155TIP3    H139880   5.233   0.862   4.178  0.7404  0.0488 -0.8593
 6155TIP3    H239881   5.191   0.816   4.040 -1.6727  0.0130 -0.1526
 6156TIP3   OH239882   5.579   4.008  16.131 -0.6051 -0.1602 -0.2612
 6156TIP3    H139883   5.496   4.054  16.133 -0.9444 -0.6405 -1.7631
 6156TIP3    H239884   5.614   4.024  16.043  0.4501 -0.7195  0.0295
 6157TIP3   OH239885   0.937   1.313  14.206  0.3867  0.0572  0.4672
 6157TIP3    H139886   0.890   1.384  14.162  1.2258  0.1454 -0.3207
 6157TIP3    H239887   0.896   1.307  14.292 -1.6707 -0.4900 -0.5082
 6158TIP3   OH239888   6.614   2.319   2.699  0.4027  1.1516  0.3575
 6158TIP3    H139889   6.618   2.240   2.753 -0.0944  1.9910  1.6686
 6158TIP3    H239890   6.702   2.328   2.664 -0.2357 -1.6799 -2.4088
 6159TIP3   OH239891   2.129   4.878  13.318  0.3438 -0.1640 -0.0241
 6159TIP3    H139892   2.080   4.921  13.389 -1.0417 -2.6025  0.6239
 6159TIP3    H239893   2.171   4.803  13.360  1.1613 -0.5350 -1.4353
 6160TIP3   OH239894   6.237   1.264   6.154 -0.0007  0.0224 -0.7200
 6160TIP3    H139895   6.208   1.319   6.226  0.8920 -1.3092  0.7369
 6160TIP3    H239896   6.311   1.215   6.190  0.2153 -0.9887 -2.4235
 6161TIP3   OH239897   5.645   2.215  15.848  0.0904  0.4105  0.3617
 6161TIP3    H139898   5.638   2.309  15.833 -0.0954  0.5484  1.2366
 6161TIP3    H239899   5.735   2.202  15.878 -0.0254  0.3863  0.7059
 6162TIP3   OH239900   5.600   0.684   5.318  0.4481 -0.1731 -0.0395
 6162TIP3    H139901   5.526   0.732   5.355  0.1342 -0.1706 -0.6591
 6162TIP3    H239902   5.673   0.706   5.375 -0.3453 -1.4531  1.5664
 6163TIP3   OH239903   6.176   6.306   0.515 -0.4145 -0.0379 -0.7488
 6163TIP3    H139904   6.095   6.356   0.506 -0.9562 -0.8092 -0.3047
 6163TIP3    H239905   6.181   6.286   0.608 -1.4253 -2.7250 -1.1788
 6164TIP3   OH239906   6.203   3.169   5.641 -0.1328 -0.2611  0.0202
 6164TIP3    H139907   6.151   3.246   5.665 -1.3550 -0.5176 -1.6193
 6164TIP3    H239908   6.153   3.095   5.677  1.8192 -0.3413  2.9785
 6165TIP3   OH239909   4.931   2.468   1.503  0.0758  0.2208  0.0580
 6165TIP3    H139910   4.967   2.542   1.453  0.0701  0.2001  0.0233
 6165TIP3    H239911   4.961   2.483   1.593 -0.2551  0.4795  0.1272
 6166TIP3   OH239912   1.130   5.195   4.069  0.0407 -0.4179 -0.4369
 6166TIP3    H139913   1.133   5.240   4.153 -1.7715 -0.7374 -0.1652
 6166TIP3    H239914   1.108   5.105   4.091  0.7045 -0.7811 -1.1910
 6167TIP3   OH239915   1.407   5.321  16.546  0.0503  0.6658  0.1538
 6167TIP3    H139916   1.474   5.256  16.525 -1.0888 -0.7713  0.8463
 6167TIP3    H239917   1.422   5.342  16.638  1.2591  2.4569 -0.3965
 6168TIP3   OH239918   6.153   4.794  15.885 -0.2035  0.3079 -0.2417
 6168TIP3    H139919   6.119   4.749  15.962  0.0545 -1.8641 -1.3101
 6168TIP3    H239920   6.233   4.835  15.915 -0.4832  0.1106  0.8210
 6169TIP3   OH239921   1.499   1.340   4.925  0.3314  0.5681  0.1678
 6169TIP3    H139922   1.503   1.418   4.869  2.5662 -0.5127 -1.2989
 6169TIP3    H239923   1.438   1.365   4.995 -2.1699  2.2136 -2.3612
 6170TIP3   OH239924   5.118   3.227   3.308  0.4096  0.3757 -0.2345
 6170TIP3    H139925   5.207   3.195   3.295  0.9783  1.5120  0.6198
 6170TIP3    H239926   5.085   3.247   3.220  1.1253  0.2848 -0.5230
 6171TIP3   OH239927   5.397   1.045  16.103  0.0154  0.3560  0.8594
 6171TIP3    H139928   5.378   1.037  16.009  1.2738  0.7586  0.5570
 6171TIP3    H239929   5.313   1.025  16.145 -0.4333 -0.4034 -0.3203
 6172TIP3   OH239930   6.384   0.476   3.291 -0.2579  0.1953  0.2220
 6172TIP3    H139931   6.332   0.460   3.370 -1.5517 -0.4826 -0.7361
 6172TIP3    H239932   6.362   0.565   3.265 -0.1188  0.2820  0.3910
 6173TIP3   OH239933   5.803   0.371  11.916  0.5339  0.9381  0.0449
 6173TIP3    H139934   5.738   0.326  11.970  0.0899 -0.0830 -1.2862
 6173TIP3    H239935   5.775   0.355  11.826  0.9796  3.0180 -0.5085
 6174TIP3   OH239936   3.295   1.209   1.341 -0.0535 -0.1430 -0.1409
 6174TIP3    H139937   3.371   1.155   1.360  0.0901  0.5460  1.4449
 6174TIP3    H239938   3.223   1.167   1.389 -0.2394  0.2971 -0.0277
 6175TIP3   OH239939   4.826   3.637   2.999  0.3446  0.0164 -0.2632
 6175TIP3    H139940   4.862   3.676   3.079 -0.2798  0.0352  0.0076
 6175TIP3    H239941   4.836   3.542   3.012  0.3042  0.0220 -0.1903
 6176TIP3   OH239942   5.689   2.189   2.131 -0.0989 -0.3258  0.4583
 6176TIP3    H139943   5.739   2.254   2.081 -0.6127 -0.0195  0.3368
 6176TIP3    H239944   5.712   2.205   2.222  0.2703 -0.3969  0.3774
 6177TIP3   OH239945   4.499   0.271   0.454  0.2538  0.2766 -0.0378
 6177TIP3    H139946   4.539   0.190   0.487  0.2804  0.7397  1.1155
 6177TIP3    H239947   4.477   0.320   0.533 -1.1970  0.7115 -0.6922
 6178TIP3   OH239948   5.437   0.698   1.381  0.4714 -0.3777  0.1063
 6178TIP3    H139949   5.519   0.716   1.334  0.0276  0.9530 -0.2077
 6178TIP3    H239950   5.377   0.665   1.314  0.3425 -0.0528  0.0589
 6179TIP3   OH239951   2.214   1.489   2.636  0.1255  0.1607 -0.1020
 6179TIP3    H139952   2.204   1.482   2.541 -2.7073  1.4966 -0.0114
 6179TIP3    H239953   2.152   1.425   2.671  1.0535 -0.2295  0.8631
 6180TIP3   OH239954   4.094   1.446   0.389 -0.1794  0.1002  0.4366
 6180TIP3    H139955   4.086   1.525   0.335 -1.1487  0.4219  1.0394
 6180TIP3    H239956   4.046   1.379   0.340  0.4441 -0.0661  0.0406
 6181TIP3   OH239957   3.064   5.662   0.289 -0.2378  0.1012  0.0799
 6181TIP3    H139958   2.991   5.692   0.235 -0.4639 -0.0990  0.2772
 6181TIP3    H239959   3.025   5.605   0.355  0.0168  0.4970  0.5776
 6182TIP3   OH239960   0.986   3.354  12.885 -0.2131  0.3381 -0.3849
 6182TIP3    H139961   0.919   3.342  12.817  0.5816  1.4619 -1.4035
 6182TIP3    H239962   1.010   3.265  12.911 -1.1077 -0.0966 -0.9902
 6183TIP3   OH239963   6.367   4.677  14.528  0.3611  0.7248 -0.8356
 6183TIP3    H139964   6.357   4.611  14.597  1.1769 -0.1426 -1.5142
 6183TIP3    H239965   6.311   4.750  14.556  0.3115  0.2070  0.4987
 6184TIP3   OH239966   5.874   2.556   4.773  0.0937 -0.5204  0.5044
 6184TIP3    H139967   5.892   2.650   4.774 -0.5726 -0.2938 -1.6835
 6184TIP3    H239968   5.817   2.541   4.848 -0.5072  1.0179  0.3956
 6185TIP3   OH239969   3.948   3.037   2.908  0.2019  0.3445  0.0475
 6185TIP3    H139970   3.929   2.976   2.836  0.5943  0.8549 -0.4968
 6185TIP3    H239971   3.973   3.118   2.864 -2.3949  1.6175  0.6990
 6186TIP3   OH239972   0.294   1.151  12.850 -0.4351  0.4303  0.0551
 6186TIP3    H139973   0.233   1.188  12.915 -0.4679  0.5754 -0.0590
 6186TIP3    H239974   0.343   1.085  12.899  1.8904  2.8156  1.1293
 6187TIP3   OH239975   3.087   0.720   4.996 -0.4045  0.3577  0.4398
 6187TIP3    H139976   3.007   0.670   4.980  0.6598 -1.4074  0.3236
 6187TIP3    H239977   3.063   0.785   5.061 -1.9370 -0.0939  0.3525
 6188TIP3   OH239978   6.313   6.291   4.390  0.1721 -0.3433  0.6884
 6188TIP3    H139979   6.240   6.235   4.417  0.1812 -1.4824 -1.3820
 6188TIP3    H239980   6.381   6.230   4.362  1.7741  0.7109  2.1178
 6189TIP3   OH239981   2.508   5.502  16.110  0.1868 -0.5353 -0.1406
 6189TIP3    H139982   2.499   5.482  16.203 -0.5423 -1.2009 -0.3377
 6189TIP3    H239983   2.529   5.595  16.107 -2.3429  0.1541  0.6397
 6190TIP3   OH239984   4.693   0.689  11.333 -0.0493 -0.7288 -0.1422
 6190TIP3    H139985   4.717   0.597  11.341 -0.4612 -0.8157  0.0960
 6190TIP3    H239986   4.624   0.702  11.398 -0.3979 -0.3947 -0.5692
 6191TIP3   OH239987   4.629   0.424   4.464 -0.1140  0.5761  0.2679
 6191TIP3    H139988   4.595   0.335   4.456 -1.6272  1.1111  0.5717
 6191TIP3    H239989   4.626   0.443   4.557  0.1790  0.9600  0.2016
 6192TIP3   OH239990   4.060   2.344   2.337 -0.0235 -0.2845 -0.2394
 6192TIP3    H139991   3.980   2.305   2.301  0.2999  0.8008 -2.2920
 6192TIP3    H239992   4.028   2.408   2.402 -0.8788  0.4663 -1.3605
 6193TIP3   OH239993   2.439   5.479   3.208 -0.7245  0.1136  0.0603
 6193TIP3    H139994   2.352   5.442   3.191 -0.0266 -0.7174 -2.0658
 6193TIP3    H239995   2.444   5.556   3.152 -0.0451  0.0845  0.0697
 6194TIP3   OH239996   6.284   6.618   0.672  0.4223 -0.1987 -0.3549
 6194TIP3    H139997   6.195   6.608   0.638 -0.3047 -0.8305  1.6227
 6194TIP3    H239998   6.289   6.557   0.746  1.8423  1.2409  0.8077
 6195TIP3   OH239999   1.875   6.241   0.448 -0.9240 -0.6300 -0.2847
 6195TIP3    H140000   1.841   6.226   0.536 -1.2607 -1.2685 -0.5157
 6195TIP3    H240001   1.829   6.177   0.393  1.2172 -2.0583 -0.4863
 6196TIP3   OH240002   1.828   0.617   0.654  0.0140 -0.3641  0.7696
 6196TIP3    H140003   1.789   0.678   0.715  0.0950 -0.7395  1.2013
 6196TIP3    H240004   1.903   0.663   0.617  0.3835 -0.3836  1.4761
 6197TIP3   OH240005   6.311   4.819   4.578  0.0800 -0.0490 -0.4669
 6197TIP3    H140006   6.297   4.853   4.489  0.7584  0.3671 -0.4250
 6197TIP3    H240007   6.225   4.822   4.618  0.2361  2.5819 -0.1577
 6198TIP3   OH240008   0.468   4.844  11.965 -0.1991 -0.4439  1.2124
 6198TIP3    H140009   0.563   4.838  11.955 -0.2557  1.1691 -1.2054
 6198TIP3    H240010   0.452   4.934  11.995 -1.0150  0.0456 -0.5581
 6199TIP3   OH240011   2.071   4.036  14.724  0.2595  0.0621  0.1612
 6199TIP3    H140012   2.111   4.103  14.669  0.6814  0.3098  0.7679
 6199TIP3    H240013   2.106   3.953  14.691 -1.4735 -0.0261 -1.6354
 6200TIP3   OH240014   6.478   5.268  16.499 -0.0900  0.0720  0.2007
 6200TIP3    H140015   6.391   5.279  16.460  0.1313 -1.7935 -0.9507
 6200TIP3    H240016   6.473   5.183  16.544  1.5095 -0.7820 -1.1183
 6201TIP3   OH240017   2.016   1.496  11.520 -0.0206 -0.0214 -0.1008
 6201TIP3    H140018   2.051   1.410  11.497 -1.2213 -1.0092  1.5538
 6201TIP3    H240019   1.979   1.530  11.438  0.4348 -1.0888 -0.7669
 6202TIP3   OH240020   2.842   2.254  14.387 -0.0328 -0.3118 -0.1410
 6202TIP3    H140021   2.881   2.340  14.402 -1.3063  0.2102  0.3300
 6202TIP3    H240022   2.831   2.248  14.292 -2.3911  1.2291 -0.0579
 6203TIP3   OH240023   1.934   3.477   0.475 -0.4155 -0.8214 -0.0486
 6203TIP3    H140024   1.927   3.383   0.458 -0.5006 -0.6576 -0.9737
 6203TIP3    H240025   1.850   3.500   0.515 -0.3640 -1.1479  0.2575
 6204TIP3   OH240026   5.687   1.937   2.029  0.4185 -0.2737 -0.3535
 6204TIP3    H140027   5.689   1.951   1.935 -3.2370 -0.4869 -0.6261
 6204TIP3    H240028   5.697   2.025   2.066  0.4120  0.0065 -1.0073
 6205TIP3   OH240029   0.771   0.954   2.467 -0.0334  0.3272  0.2918
 6205TIP3    H140030   0.758   0.996   2.381  0.7170 -0.2204 -0.1015
 6205TIP3    H240031   0.807   0.868   2.446  0.3727  0.2781  1.1669
 6206TIP3   OH240032   4.940   4.551   3.691 -0.2771 -0.1601 -0.4354
 6206TIP3    H140033   4.999   4.599   3.633 -0.1813 -0.1849 -0.3580
 6206TIP3    H240034   4.979   4.559   3.778  0.4922 -1.5175 -0.6148
 6207TIP3   OH240035   0.370   0.467   1.812 -0.2076 -0.4788  0.2345
 6207TIP3    H140036   0.393   0.501   1.899  0.2796  1.2063 -0.5071
 6207TIP3    H240037   0.439   0.500   1.755 -0.4524 -1.6678 -0.7970
 6208TIP3   OH240038   1.065   6.364  15.556  0.6914  0.4351 -0.7814
 6208TIP3    H140039   1.136   6.310  15.520  0.1581 -0.2171 -0.8931
 6208TIP3    H240040   1.105   6.413  15.627  1.1562 -0.2709 -0.5462
 6209TIP3   OH240041   3.282   0.217  15.801  0.2100  0.2498  0.3421
 6209TIP3    H140042   3.238   0.154  15.743  0.5727  2.5760 -2.7782
 6209TIP3    H240043   3.216   0.284  15.817  1.1698  1.3935 -0.3776
 6210TIP3   OH240044   1.896   1.512  16.742 -0.1003  0.6848 -0.0987
 6210TIP3    H140045   1.990   1.527  16.738  0.2133 -1.0787  0.1502
 6210TIP3    H240046   1.867   1.521  16.651  0.4536  0.3766 -0.3110
 6211TIP3   OH240047   2.538   4.123   6.386 -0.0150  0.2773  0.0358
 6211TIP3    H140048   2.583   4.038   6.380 -1.7768 -0.6457 -0.6840
 6211TIP3    H240049   2.455   4.103   6.429 -0.7925  1.5106 -0.8507
 6212TIP3   OH240050   4.989   5.128   2.352  0.6087  0.5816 -0.3691
 6212TIP3    H140051   5.019   5.212   2.388  2.0414 -0.7460  1.8246
 6212TIP3    H240052   4.896   5.142   2.334  0.6146  2.4232  0.7023
 6213TIP3   OH240053   4.129   2.335  16.776  0.2280 -0.9031  0.2059
 6213TIP3    H140054   4.142   2.429  16.758  0.1949 -0.8911  0.2458
 6213TIP3    H240055   4.058   2.309  16.717 -0.3459 -0.7076  0.7997
 6214TIP3   OH240056   2.866   1.808  15.263  0.5991  0.2118  0.0874
 6214TIP3    H140057   2.835   1.761  15.340 -0.0266 -1.2526 -1.0093
 6214TIP3    H240058   2.848   1.749  15.190  2.5019  0.9329 -1.0391
 6215TIP3   OH240059   2.025   3.123   2.545  0.3997 -0.4637 -0.4290
 6215TIP3    H140060   2.013   3.113   2.639 -0.0082  4.5081  0.2924
 6215TIP3    H240061   1.956   3.069   2.506 -0.6445 -1.1475  2.1572
 6216TIP3   OH240062   6.392   4.448  15.183 -0.1846  0.0368  0.2966
 6216TIP3    H140063   6.356   4.461  15.271 -2.1474  0.6386 -0.5349
 6216TIP3    H240064   6.351   4.368  15.152  1.8327 -1.1470  0.5089
 6217TIP3   OH240065   5.591   4.976   5.807  0.5221 -0.0421 -1.0326
 6217TIP3    H140066   5.562   4.925   5.883  1.1157  0.2305 -0.6086
 6217TIP3    H240067   5.528   4.956   5.739 -1.5291  1.6408  0.2459
 6218TIP3   OH240068   0.169   4.679  15.578 -0.0163  0.6695 -0.4131
 6218TIP3    H140069   0.251   4.633  15.597 -1.2837 -2.5735 -2.0092
 6218TIP3    H240070   0.191   4.740  15.507  1.6132  2.3328  1.4031
 6219TIP3   OH240071   2.126   1.876  17.068  0.0926 -0.4990 -0.6278
 6219TIP3    H140072   2.136   1.783  17.051 -0.6030 -0.4292 -1.5016
 6219TIP3    H240073   2.116   1.882  17.163 -0.7982 -1.4135 -0.6486
 6220TIP3   OH240074   2.344   4.957  14.523 -0.0670  0.2507  0.2696
 6220TIP3    H140075   2.341   5.027  14.458  1.1742  0.6148  0.5717
 6220TIP3    H240076   2.260   4.913  14.514 -0.6807  1.4639 -0.2735
 6221TIP3   OH240077   4.297   0.587  17.082  0.5209  0.1488  0.4056
 6221TIP3    H140078   4.281   0.670  17.126 -1.2215  1.7432 -2.8725
 6221TIP3    H240079   4.392   0.586  17.066  0.8578  0.4918  2.1919
 6222TIP3   OH240080   0.858   3.726   0.418  0.5871  0.2680  0.2654
 6222TIP3    H140081   0.933   3.671   0.395  0.2794 -0.4413  0.9239
 6222TIP3    H240082   0.810   3.737   0.336  1.8901  1.5063 -0.3782
 6223TIP3   OH240083   4.359   0.302   1.978 -0.3461  0.2805  0.8886
 6223TIP3    H140084   4.367   0.211   1.948 -0.1869  0.5976 -0.0683
 6223TIP3    H240085   4.265   0.317   1.985 -0.4925  0.8252 -1.5191
 6224TIP3   OH240086   0.035   3.169   4.359  0.1762  0.4957 -0.1076
 6224TIP3    H140087  -0.051   3.199   4.390 -0.1401 -0.1919 -0.2999
 6224TIP3    H240088   0.087   3.249   4.350 -0.5578  0.9506 -0.3312
 6225TIP3   OH240089   4.049   5.950  11.573  0.2372 -0.1367  0.4581
 6225TIP3    H140090   3.972   5.940  11.518  1.0257 -1.0735 -0.4909
 6225TIP3    H240091   4.097   5.868  11.565  1.1673  0.2903  1.3100
 6226TIP3   OH240092   0.980   0.781  11.273  0.3605  0.4708  0.2748
 6226TIP3    H140093   1.028   0.710  11.315  2.3774  1.2912 -0.5277
 6226TIP3    H240094   0.937   0.740  11.198 -0.4255 -0.3160  1.1282
 6227TIP3   OH240095   6.109   2.439  12.530 -0.4927  0.0438  0.1953
 6227TIP3    H140096   6.145   2.353  12.553 -1.0866  0.3435  2.4485
 6227TIP3    H240097   6.182   2.485  12.487  0.1600 -1.1876 -0.0519
 6228TIP3   OH240098   5.019   1.066   0.980 -0.5300 -0.4298 -0.0710
 6228TIP3    H140099   5.017   1.128   1.052  1.9450 -0.3949  0.0439
 6228TIP3    H240100   5.023   1.120   0.901 -0.6977 -0.4498 -0.0929
 6229TIP3   OH240101   3.196   5.710  13.575 -0.3203 -0.2272 -0.0134
 6229TIP3    H140102   3.288   5.728  13.592 -0.4449 -1.0534  1.7413
 6229TIP3    H240103   3.192   5.689  13.482  0.7242  2.8692 -0.8542
 6230TIP3   OH240104   1.211   0.100   4.901 -0.0675 -0.1882  0.3067
 6230TIP3    H140105   1.251   0.083   4.816  1.7254 -0.0150  1.0618
 6230TIP3    H240106   1.194   0.194   4.901 -0.9584 -0.3365 -0.1950
 6231TIP3   OH240107   2.084   5.153  14.214  0.1922 -0.4188  0.1457
 6231TIP3    H140108   2.072   5.234  14.163 -0.6501 -0.5763  0.0677
 6231TIP3    H240109   2.169   5.163  14.255  0.0910  0.5253  0.1586
 6232TIP3   OH240110   4.189   5.496  12.238  0.5336 -0.3146  0.3107
 6232TIP3    H140111   4.178   5.470  12.330 -0.3588  0.5729  0.4760
 6232TIP3    H240112   4.127   5.440  12.190  2.2932 -2.0778 -0.0257
 6233TIP3   OH240113   2.338   1.210  16.594 -0.4205 -0.2405  0.5159
 6233TIP3    H140114   2.318   1.206  16.687  0.7910  0.8713  0.8483
 6233TIP3    H240115   2.386   1.292  16.582 -3.0482  1.1688 -1.6032
 6234TIP3   OH240116   1.168   2.235   1.803  0.4355  0.5804 -0.0306
 6234TIP3    H140117   1.096   2.208   1.860 -0.7314 -0.9597 -2.1026
 6234TIP3    H240118   1.232   2.163   1.809  0.7031  0.8150 -0.0302
 6235TIP3   OH240119   2.061   2.045  12.343  0.1150  0.1443  0.0238
 6235TIP3    H140120   2.127   2.047  12.412  0.3524  0.3496 -0.2083
 6235TIP3    H240121   2.079   1.964  12.295  0.6929  0.5915 -0.5199
 6236TIP3   OH240122   2.360   0.991  11.281 -0.5229 -0.6205  0.2617
 6236TIP3    H140123   2.370   1.028  11.368  1.1832 -1.4798  0.4774
 6236TIP3    H240124   2.291   0.926  11.289  0.0489 -1.1345  1.1485
 6237TIP3   OH240125   0.406   3.842   2.682 -0.2066  0.6087  0.3544
 6237TIP3    H140126   0.409   3.878   2.593 -3.2412  1.0222  0.3260
 6237TIP3    H240127   0.315   3.854   2.710 -0.0903 -2.2444  2.3871
 6238TIP3   OH240128   4.212   0.589   2.065  0.1833  0.4098  0.2027
 6238TIP3    H140129   4.217   0.582   1.969  1.0243  0.3676  0.2457
 6238TIP3    H240130   4.128   0.633   2.081  0.0314  0.4116 -0.5509
 6239TIP3   OH240131   0.372   3.710  16.115  0.5550  0.0835  0.2662
 6239TIP3    H140132   0.353   3.627  16.159  3.6261 -0.5260  0.6157
 6239TIP3    H240133   0.302   3.719  16.051 -0.2062 -2.4580  0.6190
 6240TIP3   OH240134   5.845   2.992   1.587  0.0463 -0.3274  0.5087
 6240TIP3    H140135   5.917   3.029   1.535 -0.3488  0.0320  0.2199
 6240TIP3    H240136   5.766   3.016   1.540 -0.1856 -2.7963 -0.5073
 6241TIP3   OH240137   5.036   6.405   3.339  0.2558 -0.1038 -0.2273
 6241TIP3    H140138   5.075   6.480   3.294  1.7043  0.1665  1.3913
 6241TIP3    H240139   5.056   6.419   3.431 -1.6170 -1.2374  0.4071
 6242TIP3   OH240140   5.005   1.546  15.984  0.0742 -0.0214 -0.8804
 6242TIP3    H140141   5.050   1.517  16.063 -2.3189  0.2848  0.7212
 6242TIP3    H240142   5.074   1.553  15.917  2.0596 -1.0280  0.9460
 6243TIP3   OH240143   3.539   1.742  14.030 -0.4120  0.0363 -0.2432
 6243TIP3    H140144   3.555   1.832  14.059  0.8584  0.1319 -1.1408
 6243TIP3    H240145   3.530   1.750  13.935  1.2620 -0.9485 -0.5221
 6244TIP3   OH240146   0.012   1.634  11.262  0.5252  0.1129  0.4191
 6244TIP3    H140147   0.009   1.622  11.357  1.6795  0.4604  0.5181
 6244TIP3    H240148  -0.031   1.718  11.246 -0.8735 -0.5668  0.4821
 6245TIP3   OH240149   0.838   5.390  13.633 -0.4526 -0.1814 -0.2860
 6245TIP3    H140150   0.782   5.316  13.656  2.2363 -2.9519 -1.9758
 6245TIP3    H240151   0.793   5.431  13.559 -1.5076 -0.6712  0.0511
 6246TIP3   OH240152   3.071   6.441   2.787 -0.5978 -0.3534 -0.3088
 6246TIP3    H140153   3.087   6.351   2.758  1.9093  0.1392 -0.6614
 6246TIP3    H240154   3.120   6.495   2.726 -0.9180  1.1805  0.7475
 6247TIP3   OH240155   3.394   3.597   5.114  0.0097 -0.2733 -0.4212
 6247TIP3    H140156   3.324   3.587   5.050  0.6649 -2.1439 -0.9229
 6247TIP3    H240157   3.355   3.647   5.185 -1.6082 -0.6178 -1.0274
 6248TIP3   OH240158   4.568   6.572  11.196  0.1793 -0.2017  0.6863
 6248TIP3    H140159   4.650   6.603  11.158  1.4156 -1.4689  2.2376
 6248TIP3    H240160   4.512   6.554  11.119  0.9067  1.6978 -0.3563
 6249TIP3   OH240161   4.465   0.600   4.968  0.7026 -0.6899 -0.6182
 6249TIP3    H140162   4.391   0.573   5.023  1.2003 -2.5180 -0.7574
 6249TIP3    H240163   4.538   0.546   5.000  2.2245  1.6436  0.0694
 6250TIP3   OH240164   2.282   3.630  11.376 -0.6336 -0.5274  0.1923
 6250TIP3    H140165   2.271   3.544  11.417 -0.2646 -1.2771 -1.2236
 6250TIP3    H240166   2.344   3.676  11.433  0.8311 -1.9859 -0.1600
 6251TIP3   OH240167   4.924   5.831  13.781  0.4990 -0.0445 -0.3755
 6251TIP3    H140168   4.920   5.814  13.687 -0.1994 -0.3813 -0.2875
 6251TIP3    H240169   5.016   5.852  13.797  0.6968 -0.3528 -1.0688
 6252TIP3   OH240170   6.190   3.361  13.979  0.0947 -0.5322  0.0244
 6252TIP3    H140171   6.281   3.380  13.954 -0.5937  2.0672 -0.7966
 6252TIP3    H240172   6.197   3.305  14.057  2.3752 -0.4757 -0.0857
 6253TIP3   OH240173   4.492   3.424   1.982 -0.1655 -0.5750  0.0840
 6253TIP3    H140174   4.544   3.491   1.936 -0.2752  0.0163  0.8019
 6253TIP3    H240175   4.553   3.351   1.995  0.4805  0.0784  0.8436
 6254TIP3   OH240176   4.191   5.712  15.797  0.0187 -0.0202  0.6758
 6254TIP3    H140177   4.117   5.671  15.751 -0.7539 -0.5737  2.3118
 6254TIP3    H240178   4.149   5.770  15.861  1.0758  1.5951 -0.0594
 6255TIP3   OH240179   4.660   0.905   5.873 -0.3646  0.0800 -0.2275
 6255TIP3    H140180   4.707   0.980   5.837 -1.0035  0.2626 -0.7024
 6255TIP3    H240181   4.706   0.829   5.837 -0.2614  0.2510 -0.4596
 6256TIP3   OH240182   1.611   5.700   0.632  0.4123 -0.1166 -0.1016
 6256TIP3    H140183   1.556   5.636   0.677  1.4309  0.5588  2.2024
 6256TIP3    H240184   1.691   5.653   0.610  0.9161  0.1593  1.0590
 6257TIP3   OH240185   5.571   2.477  14.435  0.0790  0.0954 -0.0382
 6257TIP3    H140186   5.590   2.570  14.421  1.9159 -0.4857 -1.9691
 6257TIP3    H240187   5.494   2.460  14.380  0.9865  0.0729 -1.3472
 6258TIP3   OH240188   3.718   4.768  16.182 -0.7009 -0.0400  0.0385
 6258TIP3    H140189   3.704   4.760  16.276  1.0271 -1.6140  0.2211
 6258TIP3    H240190   3.805   4.807  16.173 -0.9331  0.3038 -0.9140
 6259TIP3   OH240191   2.540   1.451  12.030 -0.0052 -0.2538  1.1966
 6259TIP3    H140192   2.461   1.483  11.986 -0.0328 -1.5290  0.2500
 6259TIP3    H240193   2.509   1.419  12.115  0.0017  1.9834  2.0897
 6260TIP3   OH240194   6.188   0.498  14.234 -0.2447 -0.4776  0.1007
 6260TIP3    H140195   6.122   0.515  14.166 -0.4449  1.0947  0.6365
 6260TIP3    H240196   6.270   0.528  14.195 -0.3892  0.6002  0.5922
 6261TIP3   OH240197   0.629   5.219  14.078  0.0461 -0.8950  0.0575
 6261TIP3    H140198   0.578   5.163  14.019  4.1067 -4.3195 -0.6540
 6261TIP3    H240199   0.719   5.189  14.068  1.7947  2.1612  3.9469
 6262TIP3   OH240200   6.129   5.527  14.967 -0.2114 -0.0232 -0.5204
 6262TIP3    H140201   6.112   5.604  15.020 -0.5176  0.8507 -1.8544
 6262TIP3    H240202   6.126   5.454  15.030  0.6248  1.0651  0.8622
 6263TIP3   OH240203   6.034   1.177  15.804 -0.4044 -0.3062  0.1949
 6263TIP3    H140204   6.046   1.223  15.721 -1.8265 -0.9329 -0.3767
 6263TIP3    H240205   5.972   1.231  15.852 -2.0980 -1.5677 -0.4840
 6264TIP3   OH240206   0.165   1.458  15.000  0.4686  0.1475  0.9644
 6264TIP3    H140207   0.176   1.550  14.978 -0.4299  0.0170 -0.0975
 6264TIP3    H240208   0.252   1.430  15.029  1.4223  0.7064 -1.1209
 6265TIP3   OH240209   4.300   3.817  12.039  0.0006 -0.2653 -0.1336
 6265TIP3    H140210   4.308   3.727  12.009 -1.4866 -0.0702 -1.2649
 6265TIP3    H240211   4.308   3.870  11.960  2.1583  0.7223  0.6800
 6266TIP3   OH240212   3.720   3.867   5.996  0.1544 -0.5837  0.4349
 6266TIP3    H140213   3.808   3.853   5.962  0.6272  0.6042  1.1132
 6266TIP3    H240214   3.693   3.951   5.958 -1.2977 -1.6322 -0.9683
 6267TIP3   OH240215   4.348   6.454   3.859 -0.3635  0.3499  0.3795
 6267TIP3    H140216   4.333   6.527   3.799 -1.1029 -0.1633 -0.0857
 6267TIP3    H240217   4.438   6.466   3.890  0.1727  0.4570 -1.0932
 6268TIP3   OH240218   0.929   5.362  15.988  0.1316 -0.6261 -0.1614
 6268TIP3    H140219   0.913   5.352  16.082  1.5698  0.1001  0.1936
 6268TIP3    H240220   0.932   5.456  15.974  1.5408 -0.7176 -0.6140
 6269TIP3   OH240221   1.956   0.715   4.256 -0.6167 -0.1842 -0.0882
 6269TIP3    H140222   1.864   0.689   4.250 -0.3980 -1.7269  2.2179
 6269TIP3    H240223   1.996   0.652   4.315  1.6418  1.2850  0.1000
 6270TIP3   OH240224   5.775   5.445  10.884 -0.6285  0.3012  0.3498
 6270TIP3    H140225   5.780   5.358  10.844 -2.5161 -0.3291  1.3429
 6270TIP3    H240226   5.749   5.503  10.813 -3.1302 -0.6666  0.3683
 6271TIP3   OH240227   5.762   4.054   2.114  0.0538 -0.0925 -0.3442
 6271TIP3    H140228   5.698   4.056   2.044  0.6659 -1.1390 -0.9470
 6271TIP3    H240229   5.741   3.976   2.165  0.7555 -0.3653 -0.4609
 6272TIP3   OH240230   5.888   0.211  17.121  0.2485  0.1525  0.4372
 6272TIP3    H140231   5.820   0.278  17.117  0.4699  0.3082 -1.3486
 6272TIP3    H240232   5.874   0.157  17.043  2.0858  0.1325  0.0672
 6273TIP3   OH240233   5.968   2.814   4.813  0.5058 -0.3237 -0.1394
 6273TIP3    H140234   6.034   2.821   4.743 -0.4059  0.1344 -0.9706
 6273TIP3    H240235   5.989   2.886   4.872 -0.9352  1.6273 -1.8862
 6274TIP3   OH240236   4.681   6.308   2.777  0.6002 -0.5052 -0.0208
 6274TIP3    H140237   4.594   6.277   2.753 -0.0773  1.2114  0.0543
 6274TIP3    H240238   4.740   6.269   2.713 -0.5587  0.2486 -1.6099
 6275TIP3   OH240239   0.622   5.517  15.755  0.0621  0.2047  0.2195
 6275TIP3    H140240   0.705   5.536  15.799 -0.2542 -1.2278  1.4921
 6275TIP3    H240241   0.625   5.570  15.675  2.3590 -0.0720  0.0510
 6276TIP3   OH240242   6.039   5.462   0.405 -0.0579 -0.1593 -0.1542
 6276TIP3    H140243   6.081   5.547   0.407 -2.8590  1.3421  1.4700
 6276TIP3    H240244   5.945   5.481   0.412 -0.9021 -3.3374 -0.9295
 6277TIP3   OH240245   3.541   6.666   2.594 -0.4274  0.0195 -0.4116
 6277TIP3    H140246   3.537   6.698   2.684 -1.3697 -1.5869  0.1480
 6277TIP3    H240247   3.635   6.667   2.572 -0.2733  1.3871  0.1955
 6278TIP3   OH240248   1.133   0.814   5.816 -0.7575  0.2929 -0.0322
 6278TIP3    H140249   1.074   0.847   5.884 -0.0051 -0.7007  1.1560
 6278TIP3    H240250   1.097   0.729   5.792 -0.6369  0.3403 -0.3798
 6279TIP3   OH240251   1.292   1.418   5.073 -0.6102  0.0475  0.0305
 6279TIP3    H140252   1.238   1.354   5.119 -0.4981  0.2996  0.5219
 6279TIP3    H240253   1.290   1.496   5.129  0.4118  0.0039  0.1575
 6280TIP3   OH240254   2.592   3.326   5.637  0.0555 -0.1869 -0.5906
 6280TIP3    H140255   2.556   3.329   5.548 -3.3113 -1.0564  0.6071
 6280TIP3    H240256   2.625   3.237   5.646 -1.2519 -0.6809 -0.4450
 6281TIP3   OH240257   4.755   1.452   5.141  0.1996 -0.8398  0.1686
 6281TIP3    H140258   4.694   1.523   5.159  0.9491 -0.5508  1.7720
 6281TIP3    H240259   4.842   1.491   5.150  0.6256 -1.7376  0.1404
 6282TIP3   OH240260   1.002   4.982   4.211 -0.3724 -0.0300 -0.1683
 6282TIP3    H140261   1.015   4.916   4.279  1.7131  0.3093 -0.1859
 6282TIP3    H240262   0.932   5.039   4.246 -0.7091 -0.9962  0.7798
 6283TIP3   OH240263   0.609   2.636  11.110 -0.3593 -0.1269 -0.6947
 6283TIP3    H140264   0.521   2.654  11.142  0.0885 -1.2418  1.3000
 6283TIP3    H240265   0.595   2.597  11.023 -1.6751  1.7263 -1.3685
 6284TIP3   OH240266   2.612   2.191  13.089 -0.2770  0.3027  0.1618
 6284TIP3    H140267   2.624   2.267  13.032  0.7691  0.3773  0.4635
 6284TIP3    H240268   2.645   2.118  13.037  0.5512  0.3505  0.6059
 6285TIP3   OH240269   3.724   4.096  11.814 -0.5703  0.0218 -0.1480
 6285TIP3    H140270   3.811   4.109  11.851 -1.1969 -0.9297  1.7907
 6285TIP3    H240271   3.737   4.102  11.719  1.6440 -0.3914  0.0742
 6286TIP3   OH240272   2.390   6.434  16.630  0.1594 -0.1159  0.2457
 6286TIP3    H140273   2.355   6.398  16.549 -0.7229 -1.5458  1.2217
 6286TIP3    H240274   2.474   6.388  16.642 -0.4483 -1.0982  0.9195
 6287TIP3   OH240275   0.405   2.835  11.137 -0.2632 -0.4287 -0.5277
 6287TIP3    H140276   0.331   2.783  11.170 -0.3153  0.5049  0.9277
 6287TIP3    H240277   0.394   2.835  11.042 -2.5059  0.2014 -0.3221
 6288TIP3   OH240278   0.182   0.765   1.080  1.1392 -0.3299 -0.2269
 6288TIP3    H140279   0.265   0.719   1.070  2.0156  1.4893 -2.1635
 6288TIP3    H240280   0.183   0.831   1.010 -1.0704  1.0352  0.9289
 6289TIP3   OH240281   5.325   6.369  11.952  0.7682  0.5446  0.0716
 6289TIP3    H140282   5.289   6.286  11.921  2.1238 -0.8992  2.1325
 6289TIP3    H240283   5.288   6.380  12.040  0.3180  2.3407 -0.3059
 6290TIP3   OH240284   1.886   4.674   4.070 -0.4152  0.3429 -0.1246
 6290TIP3    H140285   1.948   4.614   4.111  0.8298  0.0668 -2.3056
 6290TIP3    H240286   1.802   4.652   4.110  0.6014 -0.3671  1.7276
 6291TIP3   OH240287   5.985   5.690  15.271  0.0302 -0.0332 -0.3297
 6291TIP3    H140288   6.004   5.779  15.301 -1.2409  0.1421 -0.0216
 6291TIP3    H240289   5.898   5.695  15.232  0.3700 -0.9287 -1.2493
 6292TIP3   OH240290   1.802   4.255  16.574  0.6678  0.4752  0.2906
 6292TIP3    H140291   1.847   4.227  16.494 -1.4870  1.7548 -1.4620
 6292TIP3    H240292   1.815   4.350  16.577 -2.1430  0.9613 -0.5275
 6293TIP3   OH240293   5.050   1.873   5.841 -0.0281 -0.3509 -0.0935
 6293TIP3    H140294   5.087   1.873   5.929 -1.6742  0.5053  0.6349
 6293TIP3    H240295   5.094   1.946   5.796 -0.9616  0.8154  0.8364
 6294TIP3   OH240296   5.988   6.127  16.106 -0.3922  0.4370  0.4986
 6294TIP3    H140297   6.082   6.111  16.109 -0.3190  0.5858 -0.6229
 6294TIP3    H240298   5.973   6.195  16.172 -0.0453 -0.9891  2.1105
 6295TIP3   OH240299   6.474   0.210  11.722  0.0473 -0.1615  0.2729
 6295TIP3    H140300   6.535   0.268  11.677  0.0578  0.6776  1.3032
 6295TIP3    H240301   6.391   0.220  11.674  0.3818 -0.2809 -0.3287
 6296TIP3   OH240302   5.648   0.827  15.323 -0.4856  0.0094  0.4692
 6296TIP3    H140303   5.588   0.902  15.324  0.0664  0.4537  0.8784
 6296TIP3    H240304   5.732   0.865  15.299 -0.1570 -0.4489  0.8983
 6297TIP3   OH240305   6.704   6.190  13.029 -0.1379 -0.5706 -0.0767
 6297TIP3    H140306   6.780   6.208  13.085 -2.0144 -1.2273  2.9397
 6297TIP3    H240307   6.675   6.276  12.999  0.0984 -0.0333  1.1761
 6298TIP3   OH240308   5.381   5.989   2.059 -0.3962 -0.4220 -0.1177
 6298TIP3    H140309   5.299   5.981   2.009  0.1358 -1.2467 -0.8862
 6298TIP3    H240310   5.420   6.071   2.028 -0.0492 -0.9512 -1.1002
 6299TIP3   OH240311   3.793   4.382   2.861 -0.4810  0.1990 -0.7383
 6299TIP3    H140312   3.791   4.310   2.798 -1.9748  0.0341 -0.5403
 6299TIP3    H240313   3.880   4.377   2.901 -0.3676 -1.1414 -1.1167
 6300TIP3   OH240314   4.318   4.248   1.410 -0.0412  0.3663  1.1677
 6300TIP3    H140315   4.306   4.276   1.501 -0.6876 -1.3658  1.6657
 6300TIP3    H240316   4.381   4.177   1.416 -0.4522 -0.0783  0.3244
 6301TIP3   OH240317   0.986   4.452   2.901 -0.2899 -0.7333 -0.5402
 6301TIP3    H140318   1.011   4.472   2.811 -0.6016 -1.3167 -0.7618
 6301TIP3    H240319   1.023   4.366   2.919 -0.6124 -0.8214 -0.2687
 6302TIP3   OH240320   5.219   6.410  15.501 -0.6216 -0.3518 -0.2694
 6302TIP3    H140321   5.142   6.362  15.533 -0.3860 -0.4942  0.0974
 6302TIP3    H240322   5.293   6.361  15.537 -0.3672 -0.0475 -0.3813
 6303TIP3   OH240323   1.848   0.591   5.219  0.7630 -0.2568 -0.4631
 6303TIP3    H140324   1.773   0.625   5.267  1.4991 -2.5191  2.5605
 6303TIP3    H240325   1.914   0.660   5.225 -0.6767  1.4194 -2.4776
 6304TIP3   OH240326   1.451   4.912   5.351  0.7619  0.0776  0.2053
 6304TIP3    H140327   1.477   4.832   5.395  1.1020  0.9109  1.5691
 6304TIP3    H240328   1.474   4.982   5.412 -2.1658  1.0465  0.3528
 6305TIP3   OH240329   2.171   2.857  12.838  0.5912  0.4860  0.3041
 6305TIP3    H140330   2.117   2.927  12.874  0.9480  1.1525 -0.4362
 6305TIP3    H240331   2.138   2.844  12.749  2.3442  1.7080 -0.5901
 6306TIP3   OH240332   1.447   0.981  10.584 -0.8231 -0.0601  0.2962
 6306TIP3    H140333   1.443   1.024  10.499 -1.3133 -0.2292  0.2310
 6306TIP3    H240334   1.372   0.921  10.585  0.0549 -1.1953  0.2368
 6307TIP3   OH240335   5.714   2.553   5.242 -0.4811 -0.1498 -0.5574
 6307TIP3    H140336   5.723   2.648   5.243 -2.2436  0.0472  1.1549
 6307TIP3    H240337   5.742   2.525   5.329 -0.5592 -1.1560 -0.8401
 6308TIP3   OH240338   5.732   2.273   4.269 -0.0034  0.3701 -0.5142
 6308TIP3    H140339   5.731   2.287   4.174  0.1618 -4.6959 -1.5854
 6308TIP3    H240340   5.825   2.271   4.292  0.1008 -1.1351 -0.9329
 6309TIP3   OH240341   1.323   6.036   2.645 -0.6590 -0.6802 -0.3611
 6309TIP3    H140342   1.268   6.051   2.568  0.2101  0.5491 -0.7561
 6309TIP3    H240343   1.390   5.975   2.615 -0.8958 -0.9743 -0.2988
 6310TIP3   OH240344   0.008   0.227   3.843 -0.0524  0.2234 -0.1124
 6310TIP3    H140345   0.064   0.152   3.823 -1.1945 -0.3654 -1.2352
 6310TIP3    H240346   0.030   0.293   3.778  0.1966  0.4620  0.2106
 6311TIP3   OH240347   1.710   4.857  13.508 -0.6318 -0.0405  0.1033
 6311TIP3    H140348   1.725   4.766  13.484 -0.5173  0.5006 -2.0886
 6311TIP3    H240349   1.784   4.905  13.469 -1.8759  1.2387 -0.7786
 6312TIP3   OH240350   2.014   2.293   0.571 -0.2510  0.3009 -0.5981
 6312TIP3    H140351   1.993   2.386   0.577  2.5335  1.2193 -2.7036
 6312TIP3    H240352   1.974   2.264   0.489  2.4548  0.9228 -2.2781
 6313TIP3   OH240353   6.431   6.089   0.890  0.0683 -0.2403 -0.4903
 6313TIP3    H140354   6.433   6.108   0.796 -1.2061 -1.7343 -0.8644
 6313TIP3    H240355   6.510   6.131   0.924  0.5029  0.4474 -2.1983
 6314TIP3   OH240356   2.995   5.289  15.948  0.0901 -0.7131 -0.0173
 6314TIP3    H140357   2.952   5.239  15.878 -0.9290 -0.4462  0.4043
 6314TIP3    H240358   2.924   5.324  16.000  0.8307 -0.4208  0.8300
 6315TIP3   OH240359   4.746   5.301   1.406 -0.4856 -0.0070  0.4206
 6315TIP3    H140360   4.730   5.378   1.460 -0.7319  0.5088 -0.3706
 6315TIP3    H240361   4.798   5.333   1.332 -0.7446 -0.5566 -0.0112
 6316TIP3   OH240362   5.804   4.643  16.220 -0.2975 -0.0126 -0.2984
 6316TIP3    H140363   5.789   4.549  16.228  0.4829 -0.4101 -2.7109
 6316TIP3    H240364   5.737   4.682  16.276 -0.4055 -1.9752  1.0621
 6317TIP3   OH240365   5.297   1.863  16.326 -0.6347  0.5730  0.0347
 6317TIP3    H140366   5.387   1.884  16.350 -0.5167  0.2066 -0.0851
 6317TIP3    H240367   5.274   1.789  16.382 -0.0877 -0.8198 -1.5140
 6318TIP3   OH240368   1.989   1.021  14.906 -0.1016  0.2862 -0.1010
 6318TIP3    H140369   2.038   1.079  14.848 -0.2744  2.3581  1.7251
 6318TIP3    H240370   2.049   1.002  14.978 -1.2957  1.2958  1.2027
 6319TIP3   OH240371   5.473   1.116  12.250  0.8013 -0.5751 -0.4766
 6319TIP3    H140372   5.408   1.060  12.206 -0.4992  0.7650 -0.3578
 6319TIP3    H240373   5.504   1.175  12.182  1.2777 -0.6565 -0.3321
 6320TIP3   OH240374   2.102   0.661  14.033 -0.1890 -0.0042  0.6923
 6320TIP3    H140375   2.012   0.685  14.058 -0.4938 -1.0360  0.6034
 6320TIP3    H240376   2.118   0.710  13.952 -0.3782  0.7897  1.1157
 6321TIP3   OH240377   2.949   1.151  12.157  0.2828 -0.0192  0.3862
 6321TIP3    H140378   3.003   1.186  12.087 -1.3238  0.7749 -0.5291
 6321TIP3    H240379   2.932   1.060  12.131  0.6586 -0.0824  0.3600
 6322TIP3   OH240380   2.511   6.632   2.882 -0.0445  0.0925  0.1695
 6322TIP3    H140381   2.571   6.627   2.956  0.5002 -0.6055 -0.3101
 6322TIP3    H240382   2.513   6.724   2.855 -1.8418  0.8590  2.2973
 6323TIP3   OH240383   4.946   5.938   1.330  0.4152 -0.0788  0.6183
 6323TIP3    H140384   5.005   5.907   1.261  2.1102  0.6184  1.6764
 6323TIP3    H240385   4.966   6.031   1.339  0.0325 -0.0976  1.8362
 6324TIP3   OH240386   0.027   4.192  16.791  0.6139 -0.3543 -0.3744
 6324TIP3    H140387  -0.005   4.274  16.754  1.3981  1.0376  1.8123
 6324TIP3    H240388   0.115   4.182  16.755  1.1650  0.6990  0.6171
 6325TIP3   OH240389   2.391   4.929  13.622  0.1495  0.0000 -0.5340
 6325TIP3    H140390   2.458   4.923  13.555  0.5089 -2.1826 -0.0367
 6325TIP3    H240391   2.429   4.886  13.698 -0.8303  1.0804  0.6208
 6326TIP3   OH240392   5.884   5.337  15.697 -0.0369 -0.2365 -0.4840
 6326TIP3    H140393   5.835   5.303  15.622  1.5229 -2.7219 -0.4786
 6326TIP3    H240394   5.969   5.362  15.661 -0.3216  1.5266 -0.0283
 6327TIP3   OH240395   2.509   5.928   1.287 -0.0929 -0.0894  0.1951
 6327TIP3    H140396   2.545   5.992   1.226 -0.4360 -0.3897 -0.3232
 6327TIP3    H240397   2.484   5.853   1.233  0.2200 -0.6329  0.7800
 6328TIP3   OH240398   2.681   4.784  14.950  0.2509  0.3437 -0.0137
 6328TIP3    H140399   2.695   4.830  15.033  0.8812  1.3149 -0.6270
 6328TIP3    H240400   2.608   4.830  14.909 -0.4263 -0.4858  0.2289
 6329TIP3   OH240401   3.352   3.033  11.004  0.1892 -0.3920  0.2627
 6329TIP3    H140402   3.309   3.083  10.935 -0.2941 -0.5261  0.4638
 6329TIP3    H240403   3.445   3.041  10.985  0.0236 -1.6527 -1.2843
 6330TIP3   OH240404   5.124   1.495   0.809  0.5667  0.1316  0.3739
 6330TIP3    H140405   5.107   1.550   0.732 -2.5626 -1.3455 -0.1475
 6330TIP3    H240406   5.125   1.557   0.882 -1.2866  1.1215 -0.3682
 6331TIP3   OH240407   1.830   6.331   6.598  0.7077 -0.4816  0.2107
 6331TIP3    H140408   1.789   6.245   6.606 -1.0048  0.3243  0.6939
 6331TIP3    H240409   1.865   6.349   6.685  0.5136 -0.4378  0.2809
 6332TIP3   OH240410   5.872   0.369   4.025  0.2223  0.0168 -0.1348
 6332TIP3    H140411   5.821   0.442   3.990 -1.7803 -0.7000  1.1135
 6332TIP3    H240412   5.917   0.333   3.948  0.6346  2.0224 -0.9079
 6333TIP3   OH240413   5.207   0.451  14.389  0.3184 -0.1256  0.4601
 6333TIP3    H140414   5.255   0.381  14.345  0.7500  0.9092 -0.8018
 6333TIP3    H240415   5.148   0.485  14.322  1.7619  2.2149  0.2735
 6334TIP3   OH240416   4.182   4.438  11.337  0.1531 -0.2830 -0.3098
 6334TIP3    H140417   4.234   4.439  11.256  1.2159  1.5731  0.3371
 6334TIP3    H240418   4.198   4.524  11.377 -0.3580 -1.1382  1.8749
 6335TIP3   OH240419   2.214   1.696   5.298  0.0721 -0.0712 -0.1605
 6335TIP3    H140420   2.126   1.670   5.324  0.4448  0.8949  2.4727
 6335TIP3    H240421   2.203   1.785   5.264 -0.1220 -0.4711 -1.1715
 6336TIP3   OH240422   5.702   1.719  10.581 -0.1583 -0.3761 -0.0870
 6336TIP3    H140423   5.773   1.756  10.634 -1.3996  0.5686  1.0019
 6336TIP3    H240424   5.659   1.656  10.638 -1.5669  0.7113  0.1320
 6337TIP3   OH240425   3.805   4.338   3.187  0.2153 -0.2337 -0.0520
 6337TIP3    H140426   3.755   4.257   3.185 -0.0511 -0.0610 -1.9889
 6337TIP3    H240427   3.837   4.350   3.098  1.4182  1.0855  0.5035
 6338TIP3   OH240428   4.679   5.714   5.036 -0.3680 -0.3235 -0.0874
 6338TIP3    H140429   4.709   5.768   4.963  1.5878  0.2021  1.0279
 6338TIP3    H240430   4.635   5.776   5.095  1.1241 -0.0460  0.7855
 6339TIP3   OH240431   3.274   2.752   1.711 -0.0599  0.4389  0.6942
 6339TIP3    H140432   3.204   2.694   1.741 -0.3058  0.0794 -0.5334
 6339TIP3    H240433   3.298   2.719   1.624  0.3179  1.7135  0.2890
 6340TIP3   OH240434   1.825   1.051   3.172  0.2935  0.1864  0.0149
 6340TIP3    H140435   1.840   1.021   3.082  0.4577  0.3384 -0.0098
 6340TIP3    H240436   1.872   0.987   3.226 -1.3496 -0.9934  0.1156
 6341TIP3   OH240437   0.968   4.843   1.929  0.0451  0.2056  0.4830
 6341TIP3    H140438   1.012   4.879   1.852 -0.0343 -0.1933  0.2465
 6341TIP3    H240439   1.012   4.759   1.945 -0.9474 -0.4448 -0.0661
 6342TIP3   OH240440   2.411   6.470   5.930  0.1212 -0.4112  0.5977
 6342TIP3    H140441   2.364   6.410   5.987  0.3318  0.0907  1.3278
 6342TIP3    H240442   2.464   6.413   5.874  0.0446 -0.9174  1.0262
 6343TIP3   OH240443   5.676   1.212  12.676  0.0649  0.2917 -0.0812
 6343TIP3    H140444   5.658   1.280  12.741  0.2036 -0.1128  0.3916
 6343TIP3    H240445   5.605   1.221  12.612  0.3968  1.2380 -0.3344
 6344TIP3   OH240446   5.374   1.377   4.661 -0.1021 -0.0328  0.8000
 6344TIP3    H140447   5.433   1.315   4.617 -0.3038 -0.1646  0.7138
 6344TIP3    H240448   5.408   1.384   4.750 -0.6338 -1.0075  1.0948
 6345TIP3   OH240449   4.017   6.457   5.699  0.1676 -0.5780  0.3068
 6345TIP3    H140450   3.956   6.410   5.757  2.2503 -1.7097  1.7468
 6345TIP3    H240451   4.071   6.508   5.759  0.2975  0.8288 -0.9736
 6346TIP3   OH240452   1.569   6.057   5.567  0.0731  0.1596  0.2086
 6346TIP3    H140453   1.538   6.132   5.517 -0.9597  0.2308  0.9271
 6346TIP3    H240454   1.555   5.982   5.508 -0.1325  0.3708 -0.0172
 6347TIP3   OH240455   6.244   1.472  13.439  0.1117  0.4298  0.6935
 6347TIP3    H140456   6.158   1.456  13.478 -0.1048  2.8012  1.3850
 6347TIP3    H240457   6.304   1.475  13.514  0.5826  0.0342  0.3378
 6348TIP3   OH240458   6.248   0.674  13.805  0.2778  0.2038  0.1008
 6348TIP3    H140459   6.312   0.684  13.876  0.8348 -0.5227 -0.2746
 6348TIP3    H240460   6.302   0.670  13.726 -0.1799 -0.9897 -0.1706
 6349TIP3   OH240461   0.488   5.594   3.293 -0.0495  0.1180 -0.6332
 6349TIP3    H140462   0.474   5.621   3.202  0.5443  0.2020 -0.7081
 6349TIP3    H240463   0.506   5.675   3.340  1.0841 -0.0577 -0.7310
 6350TIP3   OH240464   3.200   4.101  12.555  0.0145  0.0818  0.6076
 6350TIP3    H140465   3.274   4.085  12.497  0.6506  0.3765  1.3232
 6350TIP3    H240466   3.214   4.041  12.628 -0.3075  0.3287  0.8746
 6351TIP3   OH240467   2.242   3.205   1.601  0.1701  0.5838 -0.4950
 6351TIP3    H140468   2.229   3.116   1.634 -0.8952  0.8465 -0.1531
 6351TIP3    H240469   2.302   3.245   1.664  0.4461  0.1821 -0.5036
 6352TIP3   OH240470   0.005   3.008  14.610 -0.0988 -0.2107  0.4384
 6352TIP3    H140471  -0.020   2.952  14.683 -0.7451 -0.2070  0.2269
 6352TIP3    H240472  -0.038   3.092  14.628 -0.5418 -0.3101 -0.1060
 6353TIP3   OH240473   4.312   2.430  11.664 -0.5625  0.5659 -0.2245
 6353TIP3    H140474   4.266   2.509  11.691 -0.6935  0.8789 -1.2822
 6353TIP3    H240475   4.282   2.416  11.573  0.2140 -0.1280 -0.3799
 6354TIP3   OH240476   2.382   2.373   5.725 -0.1423  0.2953 -0.3851
 6354TIP3    H140477   2.382   2.341   5.635  0.2188  1.4471 -0.8230
 6354TIP3    H240478   2.474   2.398   5.741 -0.4336  1.2531 -0.1430
 6355TIP3   OH240479   2.132   2.557   2.159 -0.2452 -0.3459 -0.1948
 6355TIP3    H140480   2.125   2.638   2.109 -0.8407 -0.2983 -0.0415
 6355TIP3    H240481   2.064   2.500   2.123 -0.9782 -0.1598  0.8253
 6356TIP3   OH240482   1.881   4.645  14.305  0.3745 -0.3237  0.2556
 6356TIP3    H140483   1.914   4.671  14.391  0.5220 -1.3951  0.5410
 6356TIP3    H240484   1.877   4.549  14.309 -2.1627 -0.2922  0.0108
 6357TIP3   OH240485   2.813   4.873  14.190 -0.4489  0.0419  0.3037
 6357TIP3    H140486   2.888   4.861  14.248 -0.1522  0.2667 -0.0284
 6357TIP3    H240487   2.842   4.937  14.125 -0.3038 -1.1803 -0.8854
 6358TIP3   OH240488   0.264   0.457   1.139  0.6367  0.1841  0.0905
 6358TIP3    H140489   0.282   0.431   1.230  1.1720 -0.5353 -0.2180
 6358TIP3    H240490   0.302   0.387   1.086  0.8266  0.8853 -0.7120
 6359TIP3   OH240491   3.469   3.076  14.004 -0.1743 -0.2584  0.4165
 6359TIP3    H140492   3.437   3.047  13.918  0.5311  0.6372 -0.1693
 6359TIP3    H240493   3.422   3.157  14.022 -0.4407 -0.5281  0.9661
 6360TIP3   OH240494   5.249   2.265   5.527 -0.3227 -0.2159  0.0706
 6360TIP3    H140495   5.298   2.183   5.514 -0.2428 -0.5768  2.2407
 6360TIP3    H240496   5.183   2.242   5.592 -0.9386  1.2197 -0.0310
 6361TIP3   OH240497   2.711   1.462   5.158 -0.0794 -0.1495 -0.0790
 6361TIP3    H140498   2.623   1.491   5.181 -0.3953  0.5853 -2.0724
 6361TIP3    H240499   2.714   1.466   5.063  2.5466  1.1782 -0.0179
 6362TIP3   OH240500   2.006   1.443  13.874 -0.0810  0.0223 -0.1309
 6362TIP3    H140501   2.068   1.434  13.801 -0.1304 -0.6135 -0.0969
 6362TIP3    H240502   1.951   1.517  13.849  1.6468  1.6177  0.5445
 6363TIP3   OH240503   5.516   3.262   4.330  0.3611  1.1335  0.1164
 6363TIP3    H140504   5.444   3.317   4.301 -1.0992 -0.4154  0.6418
 6363TIP3    H240505   5.551   3.224   4.249 -0.3522  0.7890 -0.0342
 6364TIP3   OH240506   1.941   4.716  12.970 -0.0981 -0.4669  0.4692
 6364TIP3    H140507   1.851   4.693  12.996 -1.1960 -0.3469 -2.7410
 6364TIP3    H240508   1.985   4.631  12.962 -0.0683 -0.5618  1.5353
 6365TIP3   OH240509   4.372   6.313   0.181 -0.4045  0.0746 -0.1898
 6365TIP3    H140510   4.361   6.345   0.092 -2.5165  0.2032  0.0698
 6365TIP3    H240511   4.423   6.233   0.172 -1.0524 -0.2066 -1.5904
 6366TIP3   OH240512   2.834   5.294   1.229 -0.8488  0.4181  0.0636
 6366TIP3    H140513   2.780   5.222   1.196 -1.8297  1.1217  0.0642
 6366TIP3    H240514   2.922   5.258   1.235 -1.1088 -0.4570 -0.9969
 6367TIP3   OH240515   2.191   5.107  15.232  0.4021  0.2506 -0.4578
 6367TIP3    H140516   2.101   5.080  15.251  1.0607 -0.9606  1.1713
 6367TIP3    H240517   2.193   5.201  15.253 -0.0523 -0.0972  1.3187
 6368TIP3   OH240518   5.938   2.874  17.074  0.0319  0.9820 -0.3142
 6368TIP3    H140519   5.867   2.904  17.017 -1.6608 -0.1968  1.0986
 6368TIP3    H240520   5.951   2.946  17.136 -2.7016 -0.2502  1.8640
 6369TIP3   OH240521   4.675   4.078   4.408 -0.7415  0.0856  0.4426
 6369TIP3    H140522   4.740   4.033   4.353  0.6385  2.6109 -0.1427
 6369TIP3    H240523   4.592   4.066   4.362 -0.1582 -0.5418 -0.4788
 6370TIP3   OH240524   5.829   1.334  16.361 -0.4656  0.6066 -0.3375
 6370TIP3    H140525   5.821   1.251  16.313  0.0740 -1.3968  2.7286
 6370TIP3    H240526   5.919   1.362  16.346 -0.8136  1.0143 -1.8521
 6371TIP3   OH240527   2.156   3.468   1.412  0.2214  0.1020  0.2510
 6371TIP3    H140528   2.106   3.394   1.447  0.4860  0.0053  0.4292
 6371TIP3    H240529   2.096   3.542   1.416 -0.1171 -0.1497 -0.1296
 6372TIP3   OH240530   2.261   5.847   3.168 -0.2243 -0.7753  0.7015
 6372TIP3    H140531   2.198   5.816   3.104  0.3700 -0.5472 -0.0092
 6372TIP3    H240532   2.347   5.826   3.129  0.1531  0.0655  1.0569
 6373TIP3   OH240533   4.850   3.697   5.443 -0.4840  0.0347  0.1264
 6373TIP3    H140534   4.818   3.734   5.361  1.5957  1.5281 -0.1009
 6373TIP3    H240535   4.793   3.734   5.510 -0.8502  0.5690 -0.4706
 6374TIP3   OH240536   6.184   2.210   2.921  0.2127  0.3152  0.4031
 6374TIP3    H140537   6.264   2.257   2.895  0.0716 -0.1229 -0.9347
 6374TIP3    H240538   6.195   2.123   2.882 -0.4299 -0.1161  1.1577
 6375TIP3   OH240539   5.953   1.552   0.017 -0.4206  0.5921  0.0340
 6375TIP3    H140540   5.876   1.556  -0.040 -0.6233 -1.6703  0.0536
 6375TIP3    H240541   6.026   1.532  -0.042 -0.3945 -0.3304  0.3521
 6376TIP3   OH240542   0.176   5.537   3.559  0.0335  0.4154  0.4853
 6376TIP3    H140543   0.142   5.475   3.623  0.1384  0.2724  0.4025
 6376TIP3    H240544   0.217   5.606   3.612 -1.0392  0.9859  0.6153
 6377TIP3   OH240545   0.516   0.178  11.823  0.3106 -0.4261 -0.3286
 6377TIP3    H140546   0.558   0.159  11.907  1.6491 -0.6737 -1.0324
 6377TIP3    H240547   0.513   0.094  11.778 -0.7981 -0.3716 -0.3628
 6378TIP3   OH240548   2.347   0.704   2.301 -1.2039 -0.0695 -0.5027
 6378TIP3    H140549   2.336   0.715   2.206 -2.7302  0.0737 -0.3265
 6378TIP3    H240550   2.423   0.759   2.322 -0.5368 -0.4868 -1.7044
 6379TIP3   OH240551   2.039   3.735  16.249 -0.4023  0.3479 -0.5302
 6379TIP3    H140552   1.966   3.740  16.311 -1.6419 -0.7529 -1.8360
 6379TIP3    H240553   2.101   3.801  16.280 -0.6274 -0.6206  2.3056
 6380TIP3   OH240554   4.888   0.723  12.481 -0.5903  0.3420 -0.2299
 6380TIP3    H140555   4.850   0.780  12.415 -0.7372 -0.2343 -0.6521
 6380TIP3    H240556   4.981   0.745  12.481 -0.6924  0.7686 -0.2009
 6381TIP3   OH240557   0.886   3.725  10.240  0.3832  0.5152  0.9722
 6381TIP3    H140558   0.934   3.726  10.323 -0.8302  0.5313  1.7007
 6381TIP3    H240559   0.867   3.817  10.223  3.9969  1.0280 -1.4251
 6382TIP3   OH240560   2.421   1.452  13.049 -0.4579  0.2906  0.0252
 6382TIP3    H140561   2.474   1.499  13.114  1.5053 -1.1719 -0.4044
 6382TIP3    H240562   2.428   1.506  12.970 -0.2089  0.4932  0.1814
 6383TIP3   OH240563   2.524   6.342   3.862  0.6368 -0.4102 -0.3864
 6383TIP3    H140564   2.577   6.301   3.794 -0.3495  0.7289 -1.9092
 6383TIP3    H240565   2.437   6.350   3.824 -0.1007 -0.2052  1.2269
 6384TIP3   OH240566   4.826   6.122  14.436  0.4429  0.3331 -0.0090
 6384TIP3    H140567   4.878   6.193  14.397  2.4454 -1.1436 -0.1629
 6384TIP3    H240568   4.861   6.042  14.398 -1.8381 -0.8014  0.0747
 6385TIP3   OH240569   6.539   1.808  15.983 -0.0931  1.0150  0.1552
 6385TIP3    H140570   6.482   1.744  15.940  0.3050  1.2148 -0.7023
 6385TIP3    H240571   6.625   1.766  15.986 -0.2683  0.7222  1.4281
 6386TIP3   OH240572   4.050   3.120  12.186  0.1109  0.0860  0.1897
 6386TIP3    H140573   4.100   3.054  12.234 -1.0456 -0.5542  0.5630
 6386TIP3    H240574   3.962   3.081  12.176 -0.2977  1.1321 -0.5060
 6387TIP3   OH240575   4.189   2.185   1.879  0.0414  0.2831 -0.4064
 6387TIP3    H140576   4.181   2.280   1.870  0.1479  0.3614  0.2680
 6387TIP3    H240577   4.131   2.163   1.953 -0.4278 -0.2508 -0.9237
 6388TIP3   OH240578   2.519   5.710   6.218 -0.0174  0.2588  0.1569
 6388TIP3    H140579   2.517   5.798   6.257  0.1338  0.1540  0.3973
 6388TIP3    H240580   2.583   5.718   6.147  2.5363 -0.5058  2.2254
 6389TIP3   OH240581   6.734   1.503   4.297 -0.4201  0.3396  0.1360
 6389TIP3    H140582   6.782   1.420   4.294 -1.0983 -0.1181  1.1486
 6389TIP3    H240583   6.795   1.567   4.261  0.6024 -0.3844  0.5156
 6390TIP3   OH240584   0.118   6.169  12.764  0.2840 -0.0266 -0.1148
 6390TIP3    H140585   0.045   6.175  12.826  0.8261  0.8489  0.4638
 6390TIP3    H240586   0.115   6.252  12.716  1.3568  0.3526  0.4473
 6391TIP3   OH240587   0.466   3.034  15.635  0.2472 -0.0171 -0.1401
 6391TIP3    H140588   0.543   3.067  15.589 -1.3714  1.5773 -1.9017
 6391TIP3    H240589   0.415   2.988  15.568 -0.3400 -1.0501  0.9838
 6392TIP3   OH240590   3.436   0.658  10.284  0.2985  0.3284 -0.4960
 6392TIP3    H140591   3.397   0.587  10.233 -0.8100  0.5479  0.0001
 6392TIP3    H240592   3.363   0.692  10.337  1.4748 -0.1745  1.5632
 6393TIP3   OH240593   0.314   0.225   4.853 -0.6065 -0.8296  0.5649
 6393TIP3    H140594   0.330   0.171   4.930 -0.3444  0.2396  1.2910
 6393TIP3    H240595   0.384   0.290   4.854 -1.0668 -0.2988 -0.1185
 6394TIP3   OH240596   6.093   5.296   0.200 -0.0376 -0.3971 -0.4858
 6394TIP3    H140597   6.083   5.360   0.270  0.5732 -1.0337  0.1922
 6394TIP3    H240598   6.145   5.342   0.134 -0.3772  0.1089 -0.4041
 6395TIP3   OH240599   4.999   6.632  11.420 -0.0234 -0.1040  0.2110
 6395TIP3    H140600   5.079   6.680  11.442 -0.9311  1.3104  0.5748
 6395TIP3    H240601   4.960   6.609  11.504 -0.4142 -0.0370  0.0520
 6396TIP3   OH240602   2.955   2.683   1.265 -0.0309 -0.3481  0.3250
 6396TIP3    H140603   2.893   2.617   1.297 -1.4509  0.5796 -0.3891
 6396TIP3    H240604   2.902   2.741   1.210  1.3292  0.9431  0.3087
 6397TIP3   OH240605   1.692   5.165   0.660 -0.1615  0.1600  0.0094
 6397TIP3    H140606   1.764   5.169   0.723  0.6297  0.1972 -0.8702
 6397TIP3    H240607   1.733   5.138   0.578 -1.1960 -0.0670 -0.4564
 6398TIP3   OH240608   2.655   1.019  16.433 -0.3539  0.0822 -0.6610
 6398TIP3    H140609   2.696   1.103  16.413  1.5848 -0.2014  1.7065
 6398TIP3    H240610   2.635   1.022  16.526 -1.6096 -1.5541 -0.8152
 6399TIP3   OH240611   3.555   4.963   5.452 -0.2749  0.7705 -0.3967
 6399TIP3    H140612   3.644   4.957   5.487  0.0394 -0.6627 -1.3684
 6399TIP3    H240613   3.531   5.055   5.463  1.5734  1.3257 -0.7423
 6400TIP3   OH240614   4.451   3.978   1.774 -0.2733  0.0662 -0.3691
 6400TIP3    H140615   4.484   4.007   1.689  1.4322 -0.5970  0.0099
 6400TIP3    H240616   4.464   3.883   1.773 -1.4066 -0.1130  0.1691
 6401TIP3   OH240617   1.674   6.707  10.691 -0.0137  0.6944 -0.3416
 6401TIP3    H140618   1.749   6.765  10.677 -2.4289  4.1082 -0.3897
 6401TIP3    H240619   1.641   6.688  10.604  1.3580 -1.8238 -0.3999
 6402TIP3   OH240620   0.262   3.203  15.959 -0.1961 -0.0059  0.2159
 6402TIP3    H140621   0.191   3.145  15.929  1.4521 -1.2959 -1.4113
 6402TIP3    H240622   0.230   3.291  15.940 -1.6722 -0.4973  0.2450
 6403TIP3   OH240623   2.961   4.117  14.726 -0.3902  0.9034 -0.2286
 6403TIP3    H140624   2.943   4.211  14.723 -1.5245  0.7406  0.6437
 6403TIP3    H240625   2.905   4.080  14.658  2.3238  1.1136 -2.7603
 6404TIP3   OH240626   2.884   2.930  15.127  0.2182  0.4867  0.0805
 6404TIP3    H140627   2.862   3.008  15.076  1.5038  0.9013  0.1325
 6404TIP3    H240628   2.954   2.958  15.185  0.4261 -0.6066  0.3813
 6405TIP3   OH240629   3.891   2.839   2.726  0.2470  0.1709  0.8105
 6405TIP3    H140630   3.830   2.770   2.754  1.0261 -1.3724 -1.0829
 6405TIP3    H240631   3.862   2.862   2.638  2.1278 -0.3233  0.0149
 6406TIP3   OH240632   6.745   5.246  13.964 -0.7640  0.9137 -0.3603
 6406TIP3    H140633   6.762   5.301  14.041 -1.3952  1.8766 -0.8941
 6406TIP3    H240634   6.832   5.217  13.936 -0.4643  1.1978  0.2470
 6407TIP3   OH240635   0.715   3.644  16.652 -0.0319 -0.0315  0.4646
 6407TIP3    H140636   0.769   3.721  16.668  0.9909 -1.0671  2.3862
 6407TIP3    H240637   0.712   3.598  16.736 -2.2207 -1.1046 -0.1139
 6408TIP3   OH240638   3.720   2.984   3.653 -0.1610 -0.2137  0.4021
 6408TIP3    H140639   3.791   2.919   3.653 -0.5776 -0.6805 -0.1306
 6408TIP3    H240640   3.718   3.017   3.563 -1.5489 -1.2679 -0.0039
 6409TIP3   OH240641   0.241   3.488  12.836  0.3284 -0.0997 -0.1838
 6409TIP3    H140642   0.247   3.404  12.790 -0.6169 -0.6030  0.5699
 6409TIP3    H240643   0.147   3.510  12.834  0.3816  0.2709  0.7623
 6410TIP3   OH240644   2.460   4.251  17.121  0.3444 -0.3876  0.4646
 6410TIP3    H140645   2.474   4.214  17.033 -0.2158  0.6370 -0.0683
 6410TIP3    H240646   2.548   4.277  17.149  0.3734  0.3921 -0.3074
 6411TIP3   OH240647   4.591   4.690   1.765  0.2512  0.6172 -0.0754
 6411TIP3    H140648   4.598   4.746   1.843 -1.0140 -0.4460  0.8485
 6411TIP3    H240649   4.586   4.751   1.692  2.1964  1.6402  0.5786
 6412TIP3   OH240650   0.320   4.514  13.267  0.1557 -0.1916 -0.5576
 6412TIP3    H140651   0.404   4.469  13.252 -0.2311 -1.0954 -0.0700
 6412TIP3    H240652   0.336   4.603  13.237  1.4519 -0.2193 -0.0369
 6413TIP3   OH240653   1.071   1.810  16.637  0.2651  0.0087  0.3234
 6413TIP3    H140654   1.069   1.777  16.547  0.9112  1.9205 -0.4517
 6413TIP3    H240655   0.979   1.814  16.664 -0.1846  1.8744 -1.2607
 6414TIP3   OH240656   5.250   2.861  14.837 -0.1978  0.3714  0.1376
 6414TIP3    H140657   5.191   2.791  14.807 -0.8897  0.4659  1.2012
 6414TIP3    H240658   5.280   2.831  14.923  0.5305  0.7930  0.0323
 6415TIP3   OH240659   6.723   4.652  15.728 -0.0058 -0.2786  1.0864
 6415TIP3    H140660   6.815   4.675  15.715  0.0521 -0.0858  1.8025
 6415TIP3    H240661   6.704   4.678  15.818  0.0035 -2.9068  1.9247
 6416TIP3   OH240662   2.200   3.861  11.589 -0.3325  0.5299 -0.3756
 6416TIP3    H140663   2.177   3.888  11.678 -0.1118  0.8705 -0.4207
 6416TIP3    H240664   2.240   3.775  11.600  1.5686  1.4126  0.0966
 6417TIP3   OH240665   0.459   1.238  12.126  0.4999 -0.3026  0.3493
 6417TIP3    H140666   0.471   1.266  12.036 -0.4588  0.2559  0.3761
 6417TIP3    H240667   0.379   1.186  12.124  0.6305 -0.5240  0.8240
 6418TIP3   OH240668   4.971   3.531  15.056 -0.1506 -0.4933 -0.2662
 6418TIP3    H140669   4.883   3.568  15.043  0.1539  0.5777  0.6077
 6418TIP3    H240670   4.992   3.552  15.147  1.5036  0.3517 -0.8133
 6419TIP3   OH240671   3.542   5.219   3.413 -0.0831  0.2895 -0.5452
 6419TIP3    H140672   3.466   5.245   3.362 -0.3394 -1.2937 -1.0082
 6419TIP3    H240673   3.601   5.178   3.350  0.9709  1.0867 -0.1081
 6420TIP3   OH240674   4.273   5.403  10.624  0.0461  0.3361 -0.7079
 6420TIP3    H140675   4.339   5.357  10.677 -1.1970  0.6917  1.2688
 6420TIP3    H240676   4.242   5.337  10.562  0.1323 -0.7547  0.3636
 6421TIP3   OH240677   6.517   0.628  15.740 -0.1420  0.3122  0.0418
 6421TIP3    H140678   6.520   0.674  15.656 -1.2756  0.3655  0.0160
 6421TIP3    H240679   6.509   0.698  15.804  2.5691  0.4143  0.4032
 6422TIP3   OH240680   1.478   4.010  11.886  0.2397  0.2997 -0.5610
 6422TIP3    H140681   1.414   4.056  11.832  0.4051 -1.4204 -2.3158
 6422TIP3    H240682   1.425   3.959  11.947 -0.0184  0.2878 -0.7907
 6423TIP3   OH240683   3.437   2.158   1.568  0.3728 -0.1218 -0.4707
 6423TIP3    H140684   3.429   2.134   1.660 -0.6644 -2.6050 -1.1099
 6423TIP3    H240685   3.376   2.231   1.556  0.5019  0.2054  0.8097
 6424TIP3   OH240686   3.781   2.089  12.871 -0.5110  0.0689 -0.0908
 6424TIP3    H140687   3.692   2.052  12.866 -0.3942 -0.1332 -0.7686
 6424TIP3    H240688   3.775   2.157  12.938 -1.0205 -0.3790  0.3295
 6425TIP3   OH240689   6.655   6.051   4.616  0.0438 -0.9533 -0.0629
 6425TIP3    H140690   6.575   6.066   4.666  0.8808 -0.3561  1.1445
 6425TIP3    H240691   6.687   5.966   4.646 -0.1582 -1.2161 -0.5828
 6426TIP3   OH240692   2.207   0.665   0.254  0.2548  0.0646 -0.1444
 6426TIP3    H140693   2.149   0.643   0.180 -0.1167 -0.4151  0.2806
 6426TIP3    H240694   2.294   0.668   0.215  0.0595 -0.1337 -0.6167
 6427TIP3   OH240695   2.958   5.805  12.551 -0.1566  0.4639 -0.6395
 6427TIP3    H140696   3.043   5.827  12.512  0.8051  0.3522  1.2751
 6427TIP3    H240697   2.980   5.752  12.628 -2.0164 -0.1721 -0.4973
 6428TIP3   OH240698   1.919   1.961   1.087 -0.7292  0.4727  0.2990
 6428TIP3    H140699   1.999   2.003   1.054 -0.5518  0.3565  0.5735
 6428TIP3    H240700   1.848   2.015   1.053 -0.5014  1.0940  0.7758
 6429TIP3   OH240701   0.245   5.677   4.029 -0.0506 -0.3997 -0.0219
 6429TIP3    H140702   0.259   5.670   4.123 -0.9626  1.4495  0.3040
 6429TIP3    H240703   0.212   5.766   4.017 -2.0279 -1.2887 -1.8151
 6430TIP3   OH240704   0.113   4.893   5.755  0.6964  0.1472  0.2582
 6430TIP3    H140705   0.184   4.957   5.742 -0.2536  1.0651 -0.5991
 6430TIP3    H240706   0.057   4.905   5.679  0.3629 -1.5752  0.2041
 6431TIP3   OH240707   0.842   0.799   1.569  0.6639 -0.0755  0.6200
 6431TIP3    H140708   0.914   0.849   1.531  0.2922  0.1017  0.1475
 6431TIP3    H240709   0.852   0.710   1.534  1.0748 -0.2397  1.1289
 6432TIP3   OH240710   0.605   2.834   0.116 -0.0087  0.1576  0.2256
 6432TIP3    H140711   0.617   2.884   0.034  1.5271 -1.4186 -0.5638
 6432TIP3    H240712   0.693   2.811   0.143 -0.6197 -1.2929  1.0893
 6433TIP3   OH240713   3.489   6.146  15.260 -0.2504 -0.5184 -0.2003
 6433TIP3    H140714   3.468   6.054  15.278  0.9629 -0.8420 -0.3619
 6433TIP3    H240715   3.584   6.151  15.270  0.1715 -0.0404 -3.4562
 6434TIP3   OH240716   0.689   4.498  15.401  0.4659  0.6806 -0.0849
 6434TIP3    H140717   0.660   4.420  15.354 -0.0980 -0.4147  1.9951
 6434TIP3    H240718   0.769   4.472  15.446 -0.3502  0.8899  1.5775
 6435TIP3   OH240719   0.491   4.815   5.844  0.1436 -0.6058  0.0346
 6435TIP3    H140720   0.436   4.773   5.911  0.0147 -0.8063 -0.1947
 6435TIP3    H240721   0.471   4.767   5.764  2.0963 -2.0224  0.2944
 6436TIP3   OH240722   2.174   3.238  16.963  0.1491 -0.1720 -0.0361
 6436TIP3    H140723   2.189   3.308  16.900 -0.2360 -0.5298 -0.5315
 6436TIP3    H240724   2.104   3.272  17.020  0.2270 -0.0060 -0.0396
 6437TIP3   OH240725   6.004   0.796   1.973 -0.2977 -0.5987  0.9502
 6437TIP3    H140726   5.942   0.757   2.034 -1.5351  0.3190  0.3298
 6437TIP3    H240727   6.039   0.722   1.923 -2.7815 -0.9824 -0.3972
 6438TIP3   OH240728   2.106   1.663   3.466  0.1812  0.0432 -0.0201
 6438TIP3    H140729   2.068   1.717   3.396  0.6028  0.4334  0.0402
 6438TIP3    H240730   2.145   1.589   3.420  2.7738  1.5833 -0.5500
 6439TIP3   OH240731   0.785   2.246  16.025  0.1529  0.0283 -0.3024
 6439TIP3    H140732   0.696   2.248  16.060 -0.5113  1.1493 -1.9489
 6439TIP3    H240733   0.825   2.328  16.055  1.3263 -1.2628  1.9621
 6440TIP3   OH240734   4.612   4.394   2.426  0.3641 -0.0026 -0.0303
 6440TIP3    H140735   4.597   4.300   2.438  1.0134 -0.3203 -1.4336
 6440TIP3    H240736   4.641   4.425   2.512 -0.9946 -0.8296  0.7574
 6441TIP3   OH240737   2.760   1.508   4.856  0.1047 -0.3312  0.3245
 6441TIP3    H140738   2.684   1.565   4.844  0.2207  0.3603  2.4804
 6441TIP3    H240739   2.737   1.427   4.811 -2.7467 -0.8437  2.4215
 6442TIP3   OH240740   6.200   0.140   0.205  0.2038 -0.3777  0.4195
 6442TIP3    H140741   6.117   0.113   0.166  0.4691 -1.5522  0.6493
 6442TIP3    H240742   6.223   0.069   0.265  0.6632  0.6002  1.4479
 6443TIP3   OH240743   6.371   6.413   3.271  0.2433  0.6096 -0.6267
 6443TIP3    H140744   6.379   6.386   3.362  1.4716 -1.2377 -1.2230
 6443TIP3    H240745   6.277   6.427   3.258  0.0076  0.4814  0.8059
 6444TIP3   OH240746   5.848   0.299   3.537 -0.4833 -0.4459  0.3306
 6444TIP3    H140747   5.900   0.339   3.467  2.6441 -2.0494  1.5752
 6444TIP3    H240748   5.804   0.225   3.494  0.4307 -0.6907 -0.2081
 6445TIP3   OH240749   1.160   6.629   2.250 -0.1284  0.0249  0.0382
 6445TIP3    H140750   1.184   6.565   2.317  1.5177  0.0727 -0.4515
 6445TIP3    H240751   1.065   6.630   2.250 -0.2063  0.4269  2.7690
 6446TIP3   OH240752   6.514   5.568  10.858 -0.3901 -0.0072 -0.6155
 6446TIP3    H140753   6.548   5.658  10.858 -0.2217 -0.0706 -0.6515
 6446TIP3    H240754   6.431   5.574  10.906  0.3698 -0.1251  0.7447
 6447TIP3   OH240755   1.540   5.815   5.381  0.0419  0.1108 -0.9537
 6447TIP3    H140756   1.520   5.722   5.395  1.2550  0.2523  2.6832
 6447TIP3    H240757   1.454   5.857   5.372 -0.8082 -0.9130  1.5076
 6448TIP3   OH240758   2.366   6.040  16.246  0.2753 -0.5419 -0.0280
 6448TIP3    H140759   2.318   6.122  16.259  1.8689  0.9791 -2.8411
 6448TIP3    H240760   2.303   5.981  16.205 -0.2390  0.0827 -0.1418
 6449TIP3   OH240761   1.844   4.127   1.750 -0.0730 -0.7472  0.5663
 6449TIP3    H140762   1.801   4.176   1.681  1.8706 -2.2482 -1.8612
 6449TIP3    H240763   1.934   4.158   1.750 -0.1595 -0.2383  3.0392
 6450TIP3   OH240764   0.111   1.287   2.071  0.6477 -0.1529  0.1725
 6450TIP3    H140765   0.022   1.285   2.105  0.5517  0.6447 -0.0246
 6450TIP3    H240766   0.166   1.262   2.145  0.1225 -3.0930 -0.2853
 6451TIP3   OH240767   3.299   0.868  17.163  0.1465  0.1309  0.2933
 6451TIP3    H140768   3.330   0.828  17.081  0.8413 -0.1798  0.6922
 6451TIP3    H240769   3.236   0.805  17.198 -0.4251  0.4376 -0.1853
 6452TIP3   OH240770   0.780   6.753  16.698 -0.7746  0.1997 -0.2498
 6452TIP3    H140771   0.861   6.745  16.749 -0.6641  2.2027 -0.0349
 6452TIP3    H240772   0.803   6.717  16.612  1.1999  2.9334 -1.0093
 6453TIP3   OH240773   1.018   0.789   2.533 -0.1662 -0.3213  0.1331
 6453TIP3    H140774   1.077   0.853   2.574 -2.1511  2.0355 -0.4191
 6453TIP3    H240775   0.991   0.732   2.605  0.1437  0.7113  1.1111
 6454TIP3   OH240776   3.306   4.628  15.530  0.0137 -0.7709  0.2809
 6454TIP3    H140777   3.224   4.600  15.488 -1.2973 -0.5640  2.5226
 6454TIP3    H240778   3.327   4.712  15.489 -1.0204 -0.7167 -0.1654
 6455TIP3   OH240779   3.129   5.275  16.409 -0.4853 -0.1010 -0.2986
 6455TIP3    H140780   3.189   5.307  16.476 -1.8475  0.6981  0.6012
 6455TIP3    H240781   3.152   5.183  16.397  0.0035 -0.1780  1.0533
 6456TIP3   OH240782   1.549   4.159   6.271 -0.0279 -0.5523  0.0785
 6456TIP3    H140783   1.507   4.084   6.313 -2.4139  0.3746 -0.4867
 6456TIP3    H240784   1.554   4.135   6.179 -1.6573  0.2762 -0.2632
 6457TIP3   OH240785   3.852   0.187  11.375 -0.1427 -0.2394 -0.3158
 6457TIP3    H140786   3.934   0.209  11.331  0.0667 -0.0572  0.1655
 6457TIP3    H240787   3.817   0.113  11.325  1.0873 -1.3380  0.4077
 6458TIP3   OH240788   5.387   2.152   4.208  0.2146  0.0011  0.5181
 6458TIP3    H140789   5.434   2.072   4.231 -0.4899 -0.6891 -0.3615
 6458TIP3    H240790   5.364   2.141   4.116 -0.4517  0.9452  0.5540
 6459TIP3   OH240791   0.013   1.591  11.542  0.4395 -0.2600 -0.1359
 6459TIP3    H140792  -0.064   1.635  11.579 -1.2257 -1.2883 -2.1878
 6459TIP3    H240793   0.088   1.643  11.574 -1.1967  1.8810  0.4462
 6460TIP3   OH240794   6.475   4.181   4.566 -0.1562 -0.2376  0.8629
 6460TIP3    H140795   6.450   4.238   4.638  0.6602  0.3034  0.7239
 6460TIP3    H240796   6.550   4.223   4.526 -0.4675 -0.6394 -0.1861
 6461TIP3   OH240797   0.124   0.973   6.680  0.3180 -0.1134 -0.1949
 6461TIP3    H140798   0.186   1.035   6.719  0.4298 -1.0614  1.1811
 6461TIP3    H240799   0.169   0.888   6.684  0.7076 -0.1666 -3.2460
 6462TIP3   OH240800   0.729   3.058  11.699  0.1011 -0.5717 -0.2887
 6462TIP3    H140801   0.769   3.141  11.726 -2.1892  0.1535  1.2041
 6462TIP3    H240802   0.694   3.075  11.612  1.1210 -0.5586 -0.7142
 6463TIP3   OH240803   1.739   4.288  10.508 -0.4327 -0.1348 -0.5826
 6463TIP3    H140804   1.677   4.223  10.540  0.6906 -0.5342  0.8907
 6463TIP3    H240805   1.783   4.246  10.435 -2.0219  0.2458 -1.8180
 6464TIP3   OH240806   0.752   0.140   1.350  0.3607 -0.1654 -0.1086
 6464TIP3    H140807   0.722   0.157   1.260 -1.3641  0.2338  0.5022
 6464TIP3    H240808   0.806   0.062   1.342 -0.2396 -0.4864 -1.4310
 6465TIP3   OH240809   0.491   4.966   0.598 -0.0505  0.0842 -0.1489
 6465TIP3    H140810   0.489   4.902   0.527  1.4415 -0.4636  0.2571
 6465TIP3    H240811   0.541   5.040   0.562  0.2412  0.0283  0.1328
 6466TIP3   OH240812   1.039   4.618  13.070  0.4726 -0.3289  0.4766
 6466TIP3    H140813   1.015   4.634  12.978  2.3902 -1.2437 -0.2365
 6466TIP3    H240814   0.961   4.642  13.119 -0.3298  0.9924 -1.3179
 6467TIP3   OH240815   1.910   3.290   2.769 -0.0830  0.1633 -0.5408
 6467TIP3    H140816   1.882   3.361   2.827  2.0330  1.8904 -1.4521
 6467TIP3    H240817   1.896   3.325   2.681  2.2365  0.0583 -1.0114
 6468TIP3   OH240818   1.161   4.235  14.458  0.4215  0.5481  0.5637
 6468TIP3    H140819   1.211   4.154  14.446 -0.6110  0.0926 -1.0345
 6468TIP3    H240820   1.221   4.304  14.430  0.6118  0.1303 -0.0838
 6469TIP3   OH240821   1.684   4.766   1.647  0.1072 -0.2038 -0.2189
 6469TIP3    H140822   1.615   4.733   1.703  0.5081 -0.5830  0.0560
 6469TIP3    H240823   1.658   4.856   1.627 -0.4243 -0.3225 -0.0626
 6470TIP3   OH240824   6.007   1.393  15.153  0.0165 -0.9717 -0.0758
 6470TIP3    H140825   5.972   1.381  15.065 -1.5508 -0.1011  0.3949
 6470TIP3    H240826   5.930   1.409  15.207  1.1126  0.7242  1.0684
 6471TIP3   OH240827   3.450   0.010  10.612  0.3384  0.1883 -0.8308
 6471TIP3    H140828   3.454   0.034  10.520 -1.9288 -0.1899 -1.0889
 6471TIP3    H240829   3.372  -0.045  10.619  0.3279  0.3968  1.3508
 6472TIP3   OH240830   2.942   3.657   0.759  0.5106 -0.1769  0.2974
 6472TIP3    H140831   2.891   3.577   0.772  2.4532 -1.8309 -1.4710
 6472TIP3    H240832   3.010   3.653   0.827 -0.9995  1.5184  2.0239
 6473TIP3   OH240833   0.650   2.445  15.042 -0.2255 -0.4303  0.0129
 6473TIP3    H140834   0.664   2.451  15.137 -0.6841 -0.3392  0.0775
 6473TIP3    H240835   0.702   2.516  15.005 -0.3064 -0.2618  0.2238
 6474TIP3   OH240836   1.041   5.372  11.170 -0.5732 -0.4587 -0.8577
 6474TIP3    H140837   1.078   5.411  11.091 -1.4624 -0.4703 -1.2912
 6474TIP3    H240838   0.947   5.368  11.154 -0.7065 -1.0170 -0.0396
 6475TIP3   OH240839   0.077   3.416  17.163 -0.0209 -0.5275  0.2257
 6475TIP3    H140840   0.100   3.452  17.249 -1.9618  2.7175 -0.4379
 6475TIP3    H240841  -0.019   3.410  17.165 -0.0819 -0.6989 -1.5920
 6476TIP3   OH240842   0.328   5.639   6.021  0.1948 -0.2924 -0.2487
 6476TIP3    H140843   0.262   5.691   6.066  0.7358 -0.7219  1.1025
 6476TIP3    H240844   0.301   5.548   6.034  1.1872 -0.4848  0.5691
 6477TIP3   OH240845   6.671   5.699  15.557 -0.5493 -0.4859  0.5203
 6477TIP3    H140846   6.724   5.669  15.483  0.6218  0.6642  0.8584
 6477TIP3    H240847   6.587   5.723  15.518  0.5757  1.6462 -0.7605
 6478TIP3   OH240848   3.032   2.537   3.209 -0.1223  0.3328 -0.2718
 6478TIP3    H140849   3.070   2.571   3.289 -0.9312  1.1722 -0.2242
 6478TIP3    H240850   2.956   2.487   3.238 -0.3397  0.5261 -0.4977
 6479TIP3   OH240851   6.440   5.008   2.908  0.5091 -0.0350 -0.3770
 6479TIP3    H140852   6.392   4.931   2.877  0.3409 -0.0552 -0.0740
 6479TIP3    H240853   6.446   4.996   3.003  2.2240 -0.6598 -0.5429
 6480TIP3   OH240854   1.372   2.896  11.429 -0.1836  0.0525 -0.1215
 6480TIP3    H140855   1.336   2.892  11.518 -0.6932 -2.8277 -0.3441
 6480TIP3    H240856   1.295   2.902  11.372  0.0165 -0.1452 -0.4181
 6481TIP3   OH240857   3.219   2.738   1.041 -0.4805 -0.4168  0.8420
 6481TIP3    H140858   3.280   2.803   1.073 -0.6383 -0.0299  0.3737
 6481TIP3    H240859   3.274   2.664   1.014 -0.0649  0.4853 -0.9303
 6482TIP3   OH240860   5.547   1.216  14.699 -0.3167  0.1292 -0.0438
 6482TIP3    H140861   5.536   1.273  14.776 -0.5831 -2.3136  1.8489
 6482TIP3    H240862   5.625   1.164  14.719 -0.9090 -1.1858 -1.0139
 6483TIP3   OH240863   3.830   3.174  12.847 -0.1815 -0.4491  0.6106
 6483TIP3    H140864   3.897   3.183  12.779  1.6671 -2.7588  1.9604
 6483TIP3    H240865   3.876   3.196  12.929 -1.7775  0.2684  1.3584
 6484TIP3   OH240866   3.527   4.262   1.516 -0.5762  0.2470 -0.3804
 6484TIP3    H140867   3.515   4.357   1.506 -4.1138  0.0438  0.6669
 6484TIP3    H240868   3.439   4.226   1.510  0.2632 -2.6668  2.1858
 6485TIP3   OH240869   0.099   2.376  10.791 -0.3682  0.5570 -0.2383
 6485TIP3    H140870   0.035   2.346  10.855  0.4170  0.2810  0.4270
 6485TIP3    H240871   0.158   2.434  10.840  1.3173 -1.0637 -0.2575
 6486TIP3   OH240872   1.391   1.767  12.266  0.4114 -0.8879 -0.3041
 6486TIP3    H140873   1.466   1.776  12.207  0.0253  0.1037 -0.6577
 6486TIP3    H240874   1.421   1.805  12.348  0.4875 -1.0133 -0.2740
 6487TIP3   OH240875   6.711   6.038  14.818 -0.8022  0.8997 -0.6778
 6487TIP3    H140876   6.709   6.065  14.909  0.9938 -3.1861  0.8183
 6487TIP3    H240877   6.796   6.069  14.785 -1.3576  2.1801 -0.9877
 6488TIP3   OH240878   1.525   1.191   2.775  0.3298  0.4055 -0.9341
 6488TIP3    H140879   1.592   1.234   2.721 -1.0048  0.9464 -2.2414
 6488TIP3    H240880   1.444   1.236   2.753 -0.6179 -0.7770 -0.0289
 6489TIP3   OH240881   1.663   6.791   5.447 -0.2437  0.4243  0.2397
 6489TIP3    H140882   1.569   6.785   5.462 -0.4076 -0.5116 -0.9849
 6489TIP3    H240883   1.689   6.874   5.486 -1.7770  1.2054 -0.3468
 6490TIP3   OH240884   5.782   6.539   0.697  0.0557 -0.5458  0.1973
 6490TIP3    H140885   5.734   6.572   0.622  0.7246 -2.3893 -1.1287
 6490TIP3    H240886   5.716   6.495   0.750 -0.3711  0.5041  0.5544
 6491TIP3   OH240887   0.531   1.077  11.832 -0.0215  0.1505 -0.6667
 6491TIP3    H140888   0.507   1.158  11.787 -0.8451 -0.6007 -1.6064
 6491TIP3    H240889   0.606   1.043  11.783  0.7282  0.6310  0.1012
 6492TIP3   OH240890   1.075   4.439   4.265 -0.6125  0.0584 -0.2479
 6492TIP3    H140891   1.007   4.507   4.257  0.9853  1.4884 -3.4702
 6492TIP3    H240892   1.110   4.430   4.176  3.2189 -0.7763  1.1701
 6493TIP3   OH240893   2.449   4.661   2.878 -0.3036 -0.4509 -0.0444
 6493TIP3    H140894   2.466   4.603   2.953 -0.3320 -0.8807 -0.3684
 6493TIP3    H240895   2.492   4.743   2.902 -1.1231 -0.2644  0.8635
 6494TIP3   OH240896   2.491   1.599   5.839  0.2274  0.8938  0.1698
 6494TIP3    H140897   2.578   1.630   5.863  0.5855  0.1501 -0.1406
 6494TIP3    H240898   2.466   1.539   5.909  0.4580  0.2191 -0.3127
 6495TIP3   OH240899   1.565   4.913  17.178 -0.2453 -0.6910 -0.3325
 6495TIP3    H140900   1.635   4.952  17.124 -1.1068  0.7574 -0.4505
 6495TIP3    H240901   1.557   4.972  17.253 -1.0595 -1.0665 -0.1170
 6496TIP3   OH240902   4.789   5.276  11.705 -0.0271  0.3375 -0.0020
 6496TIP3    H140903   4.883   5.266  11.717 -0.1934  0.2374  1.3759
 6496TIP3    H240904   4.756   5.301  11.791 -1.4727 -1.3880  0.0091
 6497TIP3   OH240905   2.812   1.102  15.066 -0.0576  0.3529 -0.3203
 6497TIP3    H140906   2.881   1.037  15.078  0.4657  0.7735 -0.9833
 6497TIP3    H240907   2.797   1.137  15.154  0.1012 -0.2002 -0.0627
 6498TIP3   OH240908   5.272   2.329  14.303  0.3473 -0.0239  0.1897
 6498TIP3    H140909   5.242   2.369  14.221  0.2747 -0.7139 -0.1250
 6498TIP3    H240910   5.329   2.258  14.275  0.9169  0.2050  0.7579
 6499TIP3   OH240911   1.895   0.812  14.762 -0.2360  0.1103  0.2535
 6499TIP3    H140912   1.890   0.885  14.823 -2.2028 -0.5748  0.9904
 6499TIP3    H240913   1.895   0.734  14.817 -0.9235 -0.4877 -0.5606
 6500TIP3   OH240914   1.219   3.715   4.686 -0.0159 -0.0174  0.4489
 6500TIP3    H140915   1.261   3.789   4.643 -1.2063  0.3450 -0.1210
 6500TIP3    H240916   1.290   3.670   4.731  1.0830  0.2308 -0.9796
 6501TIP3   OH240917   3.043   2.996  14.621 -0.0507 -0.4255  0.5843
 6501TIP3    H140918   3.013   2.994  14.711 -1.8237 -0.8682  0.0148
 6501TIP3    H240919   3.080   3.084  14.609 -0.8291  0.0178  1.4120
 6502TIP3   OH240920   6.584   0.105   6.293  0.0831  0.1321  0.4339
 6502TIP3    H140921   6.590   0.196   6.323  1.6251  0.0832  0.3219
 6502TIP3    H240922   6.657   0.060   6.335  1.3017 -0.3291 -1.9667
 6503TIP3   OH240923   5.692   5.413   2.047  0.6486  0.5545  0.1113
 6503TIP3    H140924   5.650   5.395   1.963  1.0507  0.0492  0.0155
 6503TIP3    H240925   5.732   5.499   2.036 -0.1170  0.9267  0.1145
 6504TIP3   OH240926   2.537   2.327   5.473  0.0203 -0.0563  0.1243
 6504TIP3    H140927   2.572   2.275   5.401 -0.4021  0.3240 -0.3676
 6504TIP3    H240928   2.603   2.321   5.542 -0.7066 -2.5400  0.6955
 6505TIP3   OH240929   5.968   2.591   0.806  0.0584 -0.2165 -0.0448
 6505TIP3    H140930   5.994   2.567   0.717 -0.1607 -0.1263 -0.1319
 6505TIP3    H240931   6.042   2.642   0.839 -0.6666  1.4334 -0.8609
 6506TIP3   OH240932   6.200   5.796   6.418  0.3627 -0.4361 -0.3945
 6506TIP3    H140933   6.279   5.759   6.456 -0.1249 -0.3854  0.7080
 6506TIP3    H240934   6.164   5.726   6.363  0.3828 -0.9952  0.2856
 6507TIP3   OH240935   1.084   4.354   1.310 -0.1714  0.4344  0.2523
 6507TIP3    H140936   1.065   4.337   1.217  0.1641 -0.6496  0.3624
 6507TIP3    H240937   0.998   4.369   1.349 -0.3043  1.0564 -0.2583
 6508TIP3   OH240938   5.162   4.621   6.010 -0.5052 -0.4441  0.1033
 6508TIP3    H140939   5.081   4.607   6.058 -0.4757  0.1508  0.3317
 6508TIP3    H240940   5.200   4.700   6.049  1.2059 -1.8201  1.3874
 6509TIP3   OH240941   0.124   3.035   0.492  0.3561 -0.0921 -0.3770
 6509TIP3    H140942   0.156   3.009   0.405 -0.5404 -0.0291 -0.7326
 6509TIP3    H240943   0.031   3.052   0.479  0.4677  1.1460  0.3303
 6510TIP3   OH240944   3.401   1.629   5.777 -0.5837  0.2155 -0.8310
 6510TIP3    H140945   3.497   1.624   5.777 -0.6192 -1.1485 -2.1977
 6510TIP3    H240946   3.374   1.582   5.856 -0.1435  0.5785 -0.4559
 6511TIP3   OH240947   6.682   1.248   1.495 -0.2356 -0.5981 -0.1845
 6511TIP3    H140948   6.777   1.252   1.501 -0.0367 -3.6219  0.3846
 6511TIP3    H240949   6.656   1.334   1.462  2.6901  0.2226 -0.6303
 6512TIP3   OH240950   0.503   4.826  14.628 -0.0881 -0.7420 -0.0674
 6512TIP3    H140951   0.522   4.817  14.721  1.8926  0.0402 -0.3534
 6512TIP3    H240952   0.580   4.790  14.584 -0.6163 -0.3159 -1.3921
 6513TIP3   OH240953   2.247   1.409   1.712 -0.2372 -0.0599 -0.3792
 6513TIP3    H140954   2.270   1.402   1.619  1.4560  0.3193 -0.0182
 6513TIP3    H240955   2.246   1.318   1.743 -0.2775 -0.1556 -0.6594
 6514TIP3   OH240956   1.379   0.414  11.663  0.1810 -0.4698 -0.2484
 6514TIP3    H140957   1.336   0.451  11.585  0.0839 -1.2189 -0.5585
 6514TIP3    H240958   1.324   0.443  11.736 -0.0399 -0.2209 -0.5083
 6515TIP3   OH240959   4.634   3.857  16.381 -0.0764 -0.3190  0.1219
 6515TIP3    H140960   4.562   3.899  16.427 -0.5831  0.0365 -0.9696
 6515TIP3    H240961   4.696   3.833  16.451  0.2529  2.2131  0.8352
 6516TIP3   OH240962   3.627   4.608   0.454  0.4905  0.3746  0.3259
 6516TIP3    H140963   3.572   4.627   0.379  1.9385 -1.4744 -1.3201
 6516TIP3    H240964   3.676   4.689   0.469  1.2861  0.3548 -1.7847
 6517TIP3   OH240965   1.829   3.357   2.203  0.2098  0.1381  0.5735
 6517TIP3    H140966   1.771   3.413   2.151  0.2464 -0.0197  0.3621
 6517TIP3    H240967   1.770   3.290   2.238  0.4291 -0.6706 -0.5349
 6518TIP3   OH240968   3.548   5.441  12.451 -0.0516 -0.2857  0.3374
 6518TIP3    H140969   3.599   5.364  12.477 -0.7496 -0.4141  1.3652
 6518TIP3    H240970   3.532   5.488  12.533  1.5409  1.7211 -0.4104
 6519TIP3   OH240971   4.305   1.938   4.683  0.2129 -0.2677  0.4671
 6519TIP3    H140972   4.223   1.968   4.720  0.4342 -0.1436  0.8683
 6519TIP3    H240973   4.295   1.843   4.676  0.4534 -0.3955  1.6008
 6520TIP3   OH240974   3.550   0.568  13.218 -0.0660  0.0065 -0.3569
 6520TIP3    H140975   3.479   0.509  13.243 -1.3919  1.3585 -0.7384
 6520TIP3    H240976   3.629   0.526  13.251 -1.2216 -0.6299  1.8151
 6521TIP3   OH240977   4.667   1.099  13.443 -0.1913  0.5999 -0.6508
 6521TIP3    H140978   4.729   1.170  13.428  0.3647  0.2790  0.0485
 6521TIP3    H240979   4.690   1.033  13.379  0.9187  0.0325  0.2917
 6522TIP3   OH240980   5.586   5.139   0.949 -0.6092 -0.7830 -0.2931
 6522TIP3    H140981   5.617   5.217   0.904  0.1616 -0.5384  0.6133
 6522TIP3    H240982   5.657   5.075   0.937 -0.3692 -0.7010  0.5644
 6523TIP3   OH240983   3.245   5.632   4.804 -0.2036  0.1724  0.9428
 6523TIP3    H140984   3.184   5.572   4.847 -0.4558 -1.6736 -1.7437
 6523TIP3    H240985   3.202   5.656   4.722  1.7000  0.6096  0.0141
 6524TIP3   OH240986   6.295   1.143  15.860 -0.0109  0.0342  0.3126
 6524TIP3    H140987   6.315   1.108  15.773 -0.8511  0.6672 -0.1519
 6524TIP3    H240988   6.201   1.160  15.858  0.2148  1.4926  0.8086
 6525TIP3   OH240989   4.641   2.569   4.259 -0.2854  0.0596 -0.2850
 6525TIP3    H140990   4.703   2.526   4.317 -1.5600  0.4464  1.4245
 6525TIP3    H240991   4.638   2.660   4.288  0.9153  0.9293 -2.6165
 6526TIP3   OH240992   4.155   0.669  14.256 -0.0509  0.1969  0.4032
 6526TIP3    H140993   4.208   0.603  14.213 -1.2239 -0.5207  0.0059
 6526TIP3    H240994   4.178   0.663  14.349  1.9445  1.2406  0.0232
 6527TIP3   OH240995   0.471   4.173  16.153  0.3316 -0.6673 -0.0217
 6527TIP3    H140996   0.424   4.090  16.165 -0.4451 -0.3496 -0.7576
 6527TIP3    H240997   0.409   4.229  16.105  1.7520 -0.5506 -1.8336
 6528TIP3   OH240998   4.581   6.677   5.114 -0.1155  0.3768  0.4185
 6528TIP3    H140999   4.576   6.664   5.209 -0.8400 -3.2081  0.0502
 6528TIP3    H241000   4.491   6.684   5.085 -0.0060 -0.4193 -0.1545
 6529TIP3   OH241001   1.831   4.320  11.705 -0.4754 -0.7268 -0.4014
 6529TIP3    H141002   1.771   4.316  11.630  0.7804 -0.2941 -1.4557
 6529TIP3    H241003   1.844   4.413  11.720  1.9457 -0.7364 -1.8976
 6530TIP3   OH241004   0.411   6.409  12.981  0.5341 -0.0509 -0.0232
 6530TIP3    H141005   0.499   6.407  12.942  0.4083  0.6853 -0.3480
 6530TIP3    H241006   0.406   6.327  13.031  0.5775 -1.1997 -1.8129
 6531TIP3   OH241007   1.775   1.419  14.395  0.7866 -0.0671 -0.4022
 6531TIP3    H141008   1.713   1.473  14.444  1.3330  1.2683 -1.1359
 6531TIP3    H241009   1.800   1.349  14.456  0.1217  0.5494  0.5984
 6532TIP3   OH241010   1.064   4.070   5.068  0.2685 -0.3306  0.0561
 6532TIP3    H141011   1.085   4.135   5.135 -0.6674 -0.9196  0.9412
 6532TIP3    H241012   0.991   4.109   5.020  2.3707  1.1638 -2.2314
 6533TIP3   OH241013   1.423   1.755  11.858 -0.5555 -0.1250  0.1998
 6533TIP3    H141014   1.422   1.766  11.763 -2.5597 -0.3904  0.1576
 6533TIP3    H241015   1.482   1.680  11.872 -1.3518 -1.0100 -0.9664
 6534TIP3   OH241016   6.440   1.415   4.999 -0.1644 -1.0868  0.0290
 6534TIP3    H141017   6.486   1.489   5.037  1.0234 -1.8527  0.1242
 6534TIP3    H241018   6.348   1.430   5.022  0.2733 -0.5193  1.4941
 6535TIP3   OH241019   1.676   2.101   1.053  0.0793  0.0159  0.3544
 6535TIP3    H141020   1.659   2.095   1.148  1.2687 -1.9575  0.4854
 6535TIP3    H241021   1.634   2.023   1.016  1.4003 -0.3419 -0.4440
 6536TIP3   OH241022   3.315   3.813  14.353  0.2903 -0.4596  0.1042
 6536TIP3    H141023   3.261   3.757  14.298  1.8761 -1.0098 -0.9513
 6536TIP3    H241024   3.321   3.766  14.436 -1.4651 -0.0020  0.5366
 6537TIP3   OH241025   2.606   0.258   2.409 -0.1661  0.0600  0.1477
 6537TIP3    H141026   2.561   0.342   2.408 -0.2004  0.0770  1.2355
 6537TIP3    H241027   2.651   0.253   2.325 -0.4310  1.0167 -0.0615
 6538TIP3   OH241028   1.632   6.525   0.360  0.1657  0.1240  0.5658
 6538TIP3    H141029   1.622   6.610   0.316 -0.7163 -0.4527 -0.4253
 6538TIP3    H241030   1.726   6.515   0.374  0.2062  1.6575  1.5352
 6539TIP3   OH241031   4.953   3.692  15.668 -0.1294  0.1339 -0.2009
 6539TIP3    H141032   4.885   3.758  15.679  0.1721  0.3879  0.1774
 6539TIP3    H241033   4.910   3.609  15.685 -0.4278  0.2633 -0.3225
 6540TIP3   OH241034   1.529   2.989   3.940  0.5672  0.2700 -0.3279
 6540TIP3    H141035   1.614   2.946   3.937  0.4181  0.0236 -1.3442
 6540TIP3    H241036   1.544   3.076   3.902  0.6373  0.7498  0.7386
 6541TIP3   OH241037   3.910   1.883   1.964  0.3318  0.6238 -0.2816
 6541TIP3    H141038   3.989   1.893   2.017  1.4779 -0.4804 -1.6753
 6541TIP3    H241039   3.892   1.971   1.931 -0.4517  1.3397  1.9339
 6542TIP3   OH241040   5.304   2.353  17.074 -0.3734  0.6387  0.1808
 6542TIP3    H141041   5.379   2.305  17.109 -1.2179 -0.4826  0.5308
 6542TIP3    H241042   5.299   2.433  17.125 -0.6795 -0.2774  1.6388
 6543TIP3   OH241043   3.212   6.272   4.174  0.1456  0.4784  0.1709
 6543TIP3    H141044   3.178   6.275   4.264 -1.4758  0.1055 -0.4042
 6543TIP3    H241045   3.134   6.267   4.119  1.1435 -0.5728 -1.2074
 6544TIP3   OH241046   5.733   1.640   0.912  0.0159 -0.7232 -0.0842
 6544TIP3    H141047   5.705   1.656   1.002  0.4261  1.3359 -0.2684
 6544TIP3    H241048   5.818   1.597   0.921  0.8562  0.9417  0.6031
 6545TIP3   OH241049   0.162   2.726  15.850 -0.0213  0.9827  0.1676
 6545TIP3    H141050   0.163   2.630  15.854 -2.2099  0.7143 -2.3063
 6545TIP3    H241051   0.253   2.751  15.839  0.7784 -0.6510  2.3914
 6546TIP3   OH241052   2.378   4.008   1.870  0.9412  0.2368 -0.4534
 6546TIP3    H141053   2.357   4.019   1.962 -0.0760  1.7609 -0.8302
 6546TIP3    H241054   2.443   3.938   1.868  0.6525 -0.1180  1.3654
 6547TIP3   OH241055   3.778   0.788  16.348  0.1078 -0.2865  0.2502
 6547TIP3    H141056   3.700   0.782  16.292  0.1317 -0.1684  0.2047
 6547TIP3    H241057   3.794   0.882  16.357  1.9207 -0.2703 -2.1061
 6548TIP3   OH241058   3.004   0.002  10.792  0.0925  0.4349 -0.7681
 6548TIP3    H141059   2.948   0.057  10.737 -1.9448  0.3232  1.0625
 6548TIP3    H241060   2.956  -0.081  10.799  0.1969  0.5011  1.2393
 6549TIP3   OH241061   5.623   3.065  17.199  0.2356 -0.0619  0.2763
 6549TIP3    H141062   5.714   3.070  17.168 -0.2493  0.5949 -1.1170
 6549TIP3    H241063   5.616   3.136  17.262  0.3578  0.7318 -0.5783
 6550TIP3   OH241064   3.443   2.924   1.909 -0.0679  0.6563  0.2242
 6550TIP3    H141065   3.508   2.902   1.842 -2.5194  0.3936 -2.2485
 6550TIP3    H241066   3.412   2.839   1.940  0.4815  0.7856  1.1946
 6551TIP3   OH241067   5.640   0.885   4.749  0.1284 -0.7666 -0.2632
 6551TIP3    H141068   5.633   0.789   4.755  2.7197 -1.1024 -1.1470
 6551TIP3    H241069   5.662   0.912   4.838  0.8509 -1.2038 -0.2940
 6552TIP3   OH241070   3.682   6.581   3.364 -0.4088 -0.1480 -0.7633
 6552TIP3    H141071   3.657   6.587   3.272 -0.6958 -2.9450 -0.9547
 6552TIP3    H241072   3.599   6.568   3.411 -0.3096  1.6201 -0.0099
 6553TIP3   OH241073   4.835   0.891  12.228 -0.0718  0.7848  0.3647
 6553TIP3    H141074   4.751   0.877  12.272 -0.0171  0.0492  0.2389
 6553TIP3    H241075   4.854   0.808  12.185  0.6267  1.0101  0.2280
 6554TIP3   OH241076   5.424   2.979  12.502  0.3302 -0.1892 -0.3603
 6554TIP3    H141077   5.332   2.981  12.474 -0.0396 -0.9915  0.7589
 6554TIP3    H241078   5.424   3.019  12.589  0.6962 -2.0588  0.5432
 6555TIP3   OH241079   0.290   3.832   2.150  0.6821  0.0655 -0.0664
 6555TIP3    H141080   0.299   3.737   2.142 -0.1606 -0.0717  0.4655
 6555TIP3    H241081   0.370   3.867   2.110  0.8878 -0.8519 -0.4988
 6556TIP3   OH241082   3.452   3.244   4.461  0.2034 -0.2014 -0.2025
 6556TIP3    H141083   3.493   3.330   4.450  1.6088 -0.9739 -1.3163
 6556TIP3    H241084   3.524   3.187   4.489 -0.4873 -1.2370 -0.5003
 6557TIP3   OH241085   4.500   5.732   1.663  0.0857 -1.2710 -0.1562
 6557TIP3    H141086   4.575   5.676   1.643  1.0378  0.2821 -1.2097
 6557TIP3    H241087   4.527   5.819   1.632 -1.1486 -0.1262  1.8009
 6558TIP3   OH241088   1.229   0.740  15.231 -0.2586  0.1140 -0.2023
 6558TIP3    H141089   1.323   0.723  15.242 -0.0187  1.4903  0.0817
 6558TIP3    H241090   1.190   0.654  15.221  1.0751 -0.4726 -0.6094
 6559TIP3   OH241091   3.582   0.862   2.095 -0.3960 -0.3264 -0.3470
 6559TIP3    H141092   3.515   0.841   2.029  1.2727 -0.0592 -2.2397
 6559TIP3    H241093   3.660   0.881   2.043  0.9044  0.2957  1.7460
 6560TIP3   OH241094   3.033   6.525   4.834  0.2433  0.1186  0.2703
 6560TIP3    H141095   3.012   6.588   4.765  0.8472  2.7614  2.3855
 6560TIP3    H241096   3.127   6.510   4.825  0.7277  1.9984  1.6263
 6561TIP3   OH241097   5.105   5.467   2.094 -0.0969 -0.5216 -0.0022
 6561TIP3    H141098   5.072   5.479   2.005 -0.8649  1.7761  0.5300
 6561TIP3    H241099   5.180   5.525   2.101  0.3971 -1.2144  0.6387
 6562TIP3   OH241100   0.830   4.665  14.768 -0.1634  0.1691  0.0352
 6562TIP3    H141101   0.911   4.615  14.781 -1.1922 -1.5222  0.2673
 6562TIP3    H241102   0.824   4.722  14.846  1.1603  0.8890 -0.3604
 6563TIP3   OH241103   5.539   4.401  14.966  0.2426  0.4555  0.1765
 6563TIP3    H141104   5.541   4.340  15.040  1.8231 -1.1350 -1.0653
 6563TIP3    H241105   5.447   4.405  14.940 -0.2278  0.5209  1.7828
 6564TIP3   OH241106   1.208   5.638  15.899  0.0045 -0.0111 -0.3061
 6564TIP3    H141107   1.234   5.730  15.909  1.7969 -0.6032  0.8612
 6564TIP3    H241108   1.282   5.597  15.856  0.3382 -1.4029  1.4738
 6565TIP3   OH241109   0.050   5.701   5.637 -0.2003 -0.1106  0.0836
 6565TIP3    H141110   0.066   5.719   5.545 -2.2422  1.5000 -0.0330
 6565TIP3    H241111   0.045   5.787   5.678 -1.8945 -0.6763  1.1799
 6566TIP3   OH241112   1.920   4.466   2.830 -0.2701 -0.4969  0.1587
 6566TIP3    H141113   1.997   4.463   2.774 -0.0040 -2.1549  0.5851
 6566TIP3    H241114   1.865   4.534   2.791  1.4516  0.8412 -0.0492
 6567TIP3   OH241115   6.380   2.718  12.826 -0.3410 -0.1822  0.0089
 6567TIP3    H141116   6.360   2.625  12.842 -0.7102  0.0938  1.2419
 6567TIP3    H241117   6.421   2.719  12.739  0.7362 -1.6495  0.4518
 6568TIP3   OH241118   5.858   5.823  15.558 -0.4173  0.3624  0.6023
 6568TIP3    H141119   5.833   5.740  15.516  1.4402  1.5265 -3.2527
 6568TIP3    H241120   5.898   5.796  15.640  0.4285 -2.6775 -0.6407
 6569TIP3   OH241121   0.483   3.505   4.144  0.8072 -0.0323 -0.3154
 6569TIP3    H141122   0.442   3.516   4.058 -0.1721  1.0900  0.2755
 6569TIP3    H241123   0.427   3.442   4.189  1.0856 -0.3014 -0.3424
 6570TIP3   OH241124   0.299   1.506   2.040 -0.0629  0.4646  0.5108
 6570TIP3    H141125   0.262   1.540   2.122  1.3990  0.6214  1.1435
 6570TIP3    H241126   0.318   1.414   2.058 -2.3343 -0.3006 -0.6139
 6571TIP3   OH241127   2.362   1.162   4.157  0.0590 -0.1960  0.3346
 6571TIP3    H141128   2.434   1.203   4.203  1.3260 -0.9439 -0.8985
 6571TIP3    H241129   2.372   1.068   4.174 -1.3579 -0.2329  1.1404
 6572TIP3   OH241130   5.410   3.828   3.899 -0.1498  0.1970  0.4289
 6572TIP3    H141131   5.347   3.816   3.970 -0.6528 -2.1297 -0.3386
 6572TIP3    H241132   5.456   3.744   3.893  0.1724  0.4752 -1.7051
 6573TIP3   OH241133   1.097   4.949  13.291 -0.3341 -0.6287  0.3266
 6573TIP3    H141134   1.056   4.983  13.370 -0.0800 -0.2484  0.2992
 6573TIP3    H241135   1.030   4.894  13.250 -1.8507  2.1130 -1.1733
 6574TIP3   OH241136   0.244   5.989   5.192 -0.0824  0.6002  0.4253
 6574TIP3    H141137   0.194   5.910   5.173  1.6392  0.0004 -2.2301
 6574TIP3    H241138   0.309   5.962   5.257 -0.2398  0.1228  0.3881
 6575TIP3   OH241139   5.123   1.148   2.020 -0.0194 -0.1966 -0.1352
 6575TIP3    H141140   5.105   1.215   1.954 -2.1203 -0.1541  0.4067
 6575TIP3    H241141   5.147   1.070   1.970 -0.1733  0.2248 -0.8763
 6576TIP3   OH241142   1.589   3.641   3.082 -0.2586 -0.8689  0.1790
 6576TIP3    H141143   1.530   3.639   3.157 -1.7517 -0.1459 -0.9223
 6576TIP3    H241144   1.660   3.699   3.109  0.3017 -2.1733  1.7269
 6577TIP3   OH241145   3.871   4.508   1.766 -0.5156 -0.5482  0.2798
 6577TIP3    H141146   3.842   4.588   1.721  0.4250 -0.2468  0.1741
 6577TIP3    H241147   3.881   4.444   1.696  1.1604 -0.0155 -0.0096
 6578TIP3   OH241148   6.768   0.737  15.225  0.1589 -0.4259  0.4679
 6578TIP3    H141149   6.740   0.670  15.162 -0.3516  1.7552 -1.7528
 6578TIP3    H241150   6.856   0.761  15.197  0.0941  0.2863  0.8657
 6579TIP3   OH241151   2.004   2.613  12.769  0.0287  0.3608 -0.3345
 6579TIP3    H141152   2.090   2.592  12.805 -0.9636 -0.2753  1.7964
 6579TIP3    H241153   1.947   2.624  12.845 -1.7581  0.9756 -1.6693
 6580TIP3   OH241154   3.151   2.210  16.727  0.2247 -0.0400 -0.2852
 6580TIP3    H141155   3.162   2.141  16.661  2.1530  0.0561 -0.1010
 6580TIP3    H241156   3.209   2.185  16.799 -0.4129  0.8484  0.5694
 6581TIP3   OH241157   4.337   2.583   5.381 -0.3874  0.3865  0.1456
 6581TIP3    H141158   4.406   2.555   5.442 -0.0926  0.2863 -0.2297
 6581TIP3    H241159   4.381   2.589   5.296 -0.5056  1.7464  0.1675
 6582TIP3   OH241160   2.045   6.601   1.353  1.2291  0.2801 -0.1037
 6582TIP3    H141161   2.051   6.576   1.261 -0.1920  0.4576 -0.2605
 6582TIP3    H241162   2.018   6.521   1.398  0.8514  0.4622 -0.0022
 6583TIP3   OH241163   1.908   2.119   2.440  0.1119  0.3550 -0.0201
 6583TIP3    H141164   1.904   2.214   2.450 -1.8132  0.2291  1.0560
 6583TIP3    H241165   1.944   2.105   2.353  2.3600  2.0004  0.5577
 6584TIP3   OH241166   5.603   5.232  13.918  0.0424 -0.1086  0.7822
 6584TIP3    H141167   5.607   5.327  13.933  0.9714 -0.1835  1.1350
 6584TIP3    H241168   5.657   5.218  13.841  0.7481 -0.4471  1.3236
 6585TIP3   OH241169   1.998   4.732   5.868  0.2049  0.3239  0.0309
 6585TIP3    H141170   2.046   4.667   5.919 -1.8797 -0.9368  0.4963
 6585TIP3    H241171   2.047   4.813   5.881  1.9126 -0.7670  0.8352
 6586TIP3   OH241172   4.204   6.565   3.564  0.1508 -0.5448 -0.2063
 6586TIP3    H141173   4.125   6.563   3.511 -0.3031  0.3092  0.4128
 6586TIP3    H241174   4.274   6.589   3.503 -0.2672 -0.1676 -0.5350
 6587TIP3   OH241175   6.546   0.314   2.018 -0.2970 -0.0705  0.2125
 6587TIP3    H141176   6.528   0.367   1.941  0.6427 -0.7840 -0.5299
 6587TIP3    H241177   6.642   0.312   2.024 -0.3310 -1.0884  0.6236
 6588TIP3   OH241178   3.684   1.925   6.262  0.3371 -0.2866 -0.2067
 6588TIP3    H141179   3.693   1.996   6.326 -0.6483  1.5963 -2.0307
 6588TIP3    H241180   3.591   1.904   6.263  0.3985 -0.5868 -0.6785
 6589TIP3   OH241181   3.782   4.366  14.948  0.0621  0.4462 -0.2672
 6589TIP3    H141182   3.842   4.378  15.021  0.0572 -1.0088  0.0040
 6589TIP3    H241183   3.839   4.358  14.871  0.2086 -0.3922 -0.0822
 6590TIP3   OH241184   3.407   4.624   1.825 -0.7074  0.2017 -0.4634
 6590TIP3    H141185   3.387   4.668   1.908  0.3222 -0.5614  0.2251
 6590TIP3    H241186   3.476   4.562   1.848 -0.4232 -0.0404 -1.9015
 6591TIP3   OH241187   2.750   0.940   1.572  0.8548 -0.3914 -0.1075
 6591TIP3    H141188   2.748   0.994   1.492  0.3621 -0.7676 -0.3559
 6591TIP3    H241189   2.664   0.952   1.611  0.7708 -0.9308 -0.1193
 6592TIP3   OH241190   5.010   6.039   2.503 -0.1343 -0.4463 -0.4021
 6592TIP3    H141191   5.093   6.003   2.536  0.3126 -0.4209 -1.4610
 6592TIP3    H241192   5.007   6.128   2.538  1.1070  0.1359 -1.6798
 6593TIP3   OH241193   6.620   5.603  14.135 -0.0936  0.8392  0.1449
 6593TIP3    H141194   6.564   5.531  14.162  0.5211  0.8722  1.5581
 6593TIP3    H241195   6.708   5.566  14.131 -0.1790  0.6754 -2.4821
 6594TIP3   OH241196   0.111   5.693   0.285  0.1283  0.0813 -0.2055
 6594TIP3    H141197   0.045   5.699   0.215 -1.3879 -2.6702  0.8161
 6594TIP3    H241198   0.067   5.644   0.355  3.1542 -1.6949  0.6510
 6595TIP3   OH241199   1.992   1.313   0.960  0.3146  0.4156 -0.5556
 6595TIP3    H141200   2.007   1.381   0.895 -3.2739  0.5413 -1.4608
 6595TIP3    H241201   1.900   1.324   0.985  0.9775 -0.9125  3.0968
 6596TIP3   OH241202   1.740   2.009  15.805 -0.5506  0.2825 -0.6879
 6596TIP3    H141203   1.730   2.091  15.854  0.5227  1.4018 -2.2622
 6596TIP3    H241204   1.673   2.012  15.737 -0.0766  0.1752 -1.1679
 6597TIP3   OH241205   2.898   2.773  15.571  0.0440  0.1143 -0.4515
 6597TIP3    H141206   2.924   2.844  15.629 -0.0312  0.2937 -0.6368
 6597TIP3    H241207   2.938   2.695  15.609 -1.6066 -0.1097  0.9901
 6598TIP3   OH241208   3.642   4.546   2.069  0.6823  0.3921  0.0036
 6598TIP3    H141209   3.563   4.503   2.100 -0.0887  0.2166 -2.0414
 6598TIP3    H241210   3.714   4.490   2.098 -0.0816 -0.5458  0.1088
 6599TIP3   OH241211   0.711   2.410  12.609 -0.2699 -0.0304  0.0048
 6599TIP3    H141212   0.693   2.327  12.654  2.1740  0.9260  3.1435
 6599TIP3    H241213   0.687   2.477  12.673 -1.9345  1.7922 -2.3425
 6600TIP3   OH241214   2.195   2.666   1.756 -0.9600 -0.5782  0.0540
 6600TIP3    H141215   2.118   2.697   1.804 -1.5057 -0.5820 -0.7966
 6600TIP3    H241216   2.249   2.623   1.822 -0.8956  0.8511  0.9867
 6601TIP3   OH241217   6.363   3.208   4.756  0.3276 -0.7375  0.3445
 6601TIP3    H141218   6.357   3.283   4.697 -2.0869 -0.7079  0.5311
 6601TIP3    H241219   6.387   3.134   4.699 -1.1761 -0.5538 -0.5840
 6602TIP3   OH241220   4.845   2.828   3.228  0.2498  0.6612  0.6469
 6602TIP3    H141221   4.775   2.888   3.202  0.4145  0.7796  0.4751
 6602TIP3    H241222   4.800   2.746   3.249 -0.0364  0.9974  1.3931
 6603TIP3   OH241223   6.179   5.330  16.576 -0.5869  0.0379  0.2833
 6603TIP3    H141224   6.124   5.261  16.613 -0.0887 -0.3247  0.3539
 6603TIP3    H241225   6.151   5.337  16.484 -0.4521 -0.4527  0.2030
 6604TIP3   OH241226   1.170   4.688  17.036 -0.7540 -0.5660  0.1500
 6604TIP3    H141227   1.254   4.662  17.075 -0.8619 -0.4474  0.4596
 6604TIP3    H241228   1.130   4.746  17.100 -1.3525 -1.1049  0.2777
 6605TIP3   OH241229   1.194   6.165   6.367  0.2724  0.0321  0.1496
 6605TIP3    H141230   1.153   6.079   6.359  1.0489 -0.1968 -2.1044
 6605TIP3    H241231   1.121   6.226   6.380 -0.3650 -0.8246  0.6919
 6606TIP3   OH241232   5.521   2.121  13.263  0.4068 -0.0230  0.5379
 6606TIP3    H141233   5.505   2.143  13.171  2.0604  0.3631  0.3047
 6606TIP3    H241234   5.609   2.156  13.281  0.5416 -0.9990  1.9681
 6607TIP3   OH241235   6.244   2.795  16.546  0.1193  0.2565 -0.6943
 6607TIP3    H141236   6.317   2.762  16.493  0.2832  2.2781 -1.8243
 6607TIP3    H241237   6.284   2.856  16.607 -0.6040  1.6049 -1.5188
 6608TIP3   OH241238   4.901   2.947   6.864  0.2078 -0.3607  0.1745
 6608TIP3    H141239   4.900   2.862   6.908 -1.7435 -0.6498 -0.3412
 6608TIP3    H241240   4.820   2.990   6.892  1.2723  1.4661  0.6282
 6609TIP3   OH241241   1.290   0.081   4.014 -0.5760 -0.0203 -0.3988
 6609TIP3    H141242   1.380   0.054   3.998 -0.4736 -0.5680  0.9668
 6609TIP3    H241243   1.249   0.082   3.928  0.5046 -0.6163 -0.9348
 6610TIP3   OH241244   0.878   1.586   1.519  0.5141 -0.1756 -0.4206
 6610TIP3    H141245   0.862   1.667   1.568  0.7652 -1.0695  1.2010
 6610TIP3    H241246   0.847   1.516   1.576 -1.4154 -1.1726 -2.5468
 6611TIP3   OH241247   6.352   5.108   0.591 -0.2870 -0.1758 -0.7862
 6611TIP3    H141248   6.421   5.168   0.562 -0.6463  1.6543  1.6910
 6611TIP3    H241249   6.270   5.153   0.568 -0.6080 -0.7141 -0.7173
 6612TIP3   OH241250   3.057   0.690   1.714  0.7952  0.1540 -0.7096
 6612TIP3    H141251   3.003   0.621   1.674 -0.3434  1.1986 -1.0389
 6612TIP3    H241252   3.141   0.683   1.670  1.6231 -2.6774  1.0386
 6613TIP3   OH241253   4.978   2.219   2.774  0.2176 -0.5230 -0.6166
 6613TIP3    H141254   5.041   2.277   2.819 -0.3085  0.9598 -1.6900
 6613TIP3    H241255   5.030   2.176   2.707  0.7645 -1.8973  0.6238
 6614TIP3   OH241256   1.759   0.238   4.132 -0.1448 -0.0400  0.1898
 6614TIP3    H141257   1.848   0.254   4.165  0.7341 -1.6530 -1.2491
 6614TIP3    H241258   1.702   0.288   4.191  1.8393  2.6965 -0.0249
 6615TIP3   OH241259   2.552   6.483   5.051  0.5881  0.5592  0.5709
 6615TIP3    H141260   2.605   6.536   4.992 -0.7963  0.4343 -0.8472
 6615TIP3    H241261   2.548   6.534   5.132  1.9955  1.0399  0.3704
 6616TIP3   OH241262   0.733   4.850   6.580  0.3887  0.1625  0.1376
 6616TIP3    H141263   0.782   4.778   6.540 -0.3725 -0.3416  0.0857
 6616TIP3    H241264   0.793   4.925   6.577  0.7385 -0.1405 -0.9665
 6617TIP3   OH241265   0.111   0.324   4.289  0.1079  0.4159 -0.2711
 6617TIP3    H141266   0.139   0.266   4.218 -0.2146 -2.9691  2.0883
 6617TIP3    H241267   0.020   0.345   4.268  0.3821  0.4857 -1.4531
 6618TIP3   OH241268   4.470   2.306  15.864 -0.1518  0.2136 -0.5203
 6618TIP3    H141269   4.472   2.348  15.778 -0.2750 -1.2883 -1.2912
 6618TIP3    H241270   4.385   2.263  15.867  0.2396 -0.5339 -0.0432
 6619TIP3   OH241271   0.375   0.040  13.376  0.3921  0.1036 -0.9677
 6619TIP3    H141272   0.408   0.097  13.446 -1.3813  1.7965 -1.4350
 6619TIP3    H241273   0.372   0.096  13.299  1.2989 -1.4506 -2.1805
 6620TIP3   OH241274   2.120   0.257   1.466 -0.4532  0.6303  0.0049
 6620TIP3    H141275   2.192   0.318   1.448 -1.0292  1.5863  0.8053
 6620TIP3    H241276   2.085   0.286   1.550 -0.5952 -0.9885  0.5378
 6621TIP3   OH241277   1.807   5.059  11.085 -0.5931 -0.3545 -0.1996
 6621TIP3    H141278   1.733   5.061  11.145  0.9989  0.5400  1.8433
 6621TIP3    H241279   1.836   5.150  11.078  0.0879 -0.6315 -1.2798
 6622TIP3   OH241280   0.636   2.255  13.974 -0.2718 -0.4097 -0.1231
 6622TIP3    H141281   0.691   2.333  13.969 -1.7016  0.6756  0.4635
 6622TIP3    H241282   0.650   2.211  13.890  1.2532 -0.0419 -0.0987
 6623TIP3   OH241283   5.054   4.568   5.188 -0.0772 -0.1778  0.0843
 6623TIP3    H141284   5.149   4.580   5.196  0.1541 -1.8456  0.0678
 6623TIP3    H241285   5.026   4.541   5.275 -0.7555  1.3870  0.3993
 6624TIP3   OH241286   6.746   0.263  14.002  0.8269  0.3471  0.0168
 6624TIP3    H141287   6.786   0.342  13.965  0.5281  0.0133 -1.0799
 6624TIP3    H241288   6.700   0.294  14.080  1.4086  1.1057  0.0762
 6625TIP3   OH241289   3.526   2.780  15.398  0.2823  0.0252 -0.4945
 6625TIP3    H141290   3.545   2.817  15.485 -0.9105  0.3501 -0.3471
 6625TIP3    H241291   3.481   2.851  15.352  3.5073  0.9702 -2.5171
 6626TIP3   OH241292   5.582   6.221  13.889 -0.4118  0.0534  0.3736
 6626TIP3    H141293   5.570   6.233  13.795 -0.3969  2.2155  0.5935
 6626TIP3    H241294   5.676   6.203  13.899 -0.7986 -2.7823 -0.1684
 6627TIP3   OH241295   6.403   2.315  11.026 -0.1928 -0.1783 -0.5824
 6627TIP3    H141296   6.321   2.287  10.986 -0.0277 -0.4138 -0.7616
 6627TIP3    H241297   6.395   2.410  11.034 -0.8660 -0.3039  0.2804
 6628TIP3   OH241298   6.323   5.955  16.594  0.1266  0.1559 -0.2169
 6628TIP3    H141299   6.248   5.993  16.638 -0.6159 -0.8326 -0.5666
 6628TIP3    H241300   6.310   5.976  16.501 -1.1593 -2.2004 -0.6507
 6629TIP3   OH241301   5.159   2.790  17.000  0.3327 -0.1329 -0.0287
 6629TIP3    H141302   5.114   2.816  17.080  2.9111 -0.9451  1.8365
 6629TIP3    H241303   5.187   2.873  16.961 -0.0494  0.2560  0.5007
 6630TIP3   OH241304   4.149   3.948  12.850 -0.5490 -0.3854  0.2326
 6630TIP3    H141305   4.206   4.001  12.795 -0.4928 -0.7909 -0.1071
 6630TIP3    H241306   4.208   3.905  12.911 -0.3150 -1.7443 -0.8812
 6631TIP3   OH241307   5.403   3.025   5.117 -0.0327  0.6538  0.3298
 6631TIP3    H141308   5.308   3.013   5.120 -0.1468  1.6360  2.0409
 6631TIP3    H241309   5.430   3.028   5.209  1.5105  1.4634 -0.1101
 6632TIP3   OH241310   5.381   6.461   2.392  0.3595 -0.0540  0.0726
 6632TIP3    H141311   5.330   6.385   2.419  0.2158  0.4061  1.1542
 6632TIP3    H241312   5.469   6.427   2.376 -0.4594 -1.0696 -2.9017
 6633TIP3   OH241313   5.911   2.860  13.881  0.2807  0.2412 -0.2916
 6633TIP3    H141314   5.986   2.801  13.882  0.2717  0.2203  0.8570
 6633TIP3    H241315   5.942   2.938  13.834  0.8528  0.0326 -0.2661
 6634TIP3   OH241316   6.469   1.873   2.161 -0.0026 -0.0616 -0.3983
 6634TIP3    H141317   6.396   1.930   2.140 -0.2764  0.3256  1.4563
 6634TIP3    H241318   6.484   1.885   2.255  0.1957 -2.7148 -0.0064
 6635TIP3   OH241319   3.937   0.804  11.962 -0.2497 -0.8666  0.1236
 6635TIP3    H141320   3.898   0.716  11.966 -0.0123 -0.9477  0.7788
 6635TIP3    H241321   4.018   0.792  11.913  0.0912 -1.1353  0.7445
 6636TIP3   OH241322   0.687   2.632  11.772 -0.1636  0.2024  0.0609
 6636TIP3    H141323   0.616   2.574  11.743  0.4956 -0.4591 -0.2571
 6636TIP3    H241324   0.746   2.636  11.697  1.5531 -1.4822  1.2252
 6637TIP3   OH241325   6.448   1.804   1.301 -0.0051 -0.2861  0.8021
 6637TIP3    H141326   6.535   1.842   1.310 -0.1404  0.4156 -0.5720
 6637TIP3    H241327   6.390   1.866   1.346 -0.1030  0.6962 -0.6075
 6638TIP3   OH241328   4.819   0.417   2.902 -0.3680  0.6389 -0.4296
 6638TIP3    H141329   4.852   0.338   2.945  1.2143  1.5976  0.2109
 6638TIP3    H241330   4.819   0.395   2.809  1.0898  0.2158 -0.3601
 6639TIP3   OH241331   6.631   6.575  14.401 -0.1333  0.3840 -0.2858
 6639TIP3    H141332   6.721   6.593  14.428 -0.1904  0.5681 -0.2140
 6639TIP3    H241333   6.629   6.481  14.383  0.1724  0.4484 -0.6639
 6640TIP3   OH241334   2.238   1.869  15.815  0.4285  0.0446  0.0488
 6640TIP3    H141335   2.255   1.912  15.731 -1.6586  0.7834 -0.0657
 6640TIP3    H241336   2.149   1.896  15.838  0.2247 -1.6958  1.5588
 6641TIP3   OH241337   2.263   6.489   2.846  0.0093 -0.2844 -0.1957
 6641TIP3    H141338   2.199   6.534   2.902 -0.8703 -0.3967 -1.0864
 6641TIP3    H241339   2.336   6.551   2.838 -1.1491  0.9969 -1.3547
 6642TIP3   OH241340   3.087   1.973  12.859  0.3129  0.0388 -0.2369
 6642TIP3    H141341   3.153   1.904  12.862  0.0404 -0.1916  0.4782
 6642TIP3    H241342   3.129   2.043  12.808  0.9836 -0.2378 -0.0795
 6643TIP3   OH241343   3.929   0.442   4.320 -0.2601 -0.5379  0.0516
 6643TIP3    H141344   3.901   0.393   4.242 -1.5745  0.2608 -0.0166
 6643TIP3    H241345   3.988   0.509   4.286 -0.5435 -0.4202 -0.2140
 6644TIP3   OH241346   6.065   2.879  14.454 -0.4279 -0.0979 -0.7845
 6644TIP3    H141347   6.144   2.839  14.418 -0.3669  0.1660 -0.9420
 6644TIP3    H241348   5.996   2.854  14.393 -0.7838 -1.7298  0.2164
 6645TIP3   OH241349   0.373   2.232  12.774  0.1697 -0.1985 -0.3646
 6645TIP3    H141350   0.429   2.271  12.707 -1.2289  1.9590 -0.3699
 6645TIP3    H241351   0.354   2.144  12.741 -1.4411  1.1609 -3.4919
 6646TIP3   OH241352   0.036   3.882   5.976 -0.2152 -0.0581  0.3528
 6646TIP3    H141353  -0.021   3.831   5.918 -0.9081 -0.3482  1.2621
 6646TIP3    H241354  -0.015   3.962   5.995  1.0144  1.2081 -1.3718
 6647TIP3   OH241355   1.151   1.558   0.182 -0.1556  0.6655  0.0555
 6647TIP3    H141356   1.208   1.589   0.111 -1.4345  1.0250 -0.8453
 6647TIP3    H241357   1.108   1.481   0.146  1.1390 -0.7841  1.4146
 6648TIP3   OH241358   5.692   4.864  12.958  0.4981  0.2914 -0.3050
 6648TIP3    H141359   5.646   4.862  13.041  1.3599 -0.4956  0.1699
 6648TIP3    H241360   5.623   4.865  12.892 -0.1854  0.4950  0.4030
 6649TIP3   OH241361   3.598   2.066  13.761 -0.0302 -0.1751  0.4080
 6649TIP3    H141362   3.546   2.090  13.838 -0.9444 -0.6797 -0.0283
 6649TIP3    H241363   3.537   2.076  13.688  0.7400  0.0150 -0.2168
 6650TIP3   OH241364   3.106   0.176   4.748 -0.0047  0.4678  0.0596
 6650TIP3    H141365   3.116   0.223   4.665 -0.4094 -0.6843 -0.6762
 6650TIP3    H241366   3.056   0.235   4.803 -1.1802  0.6173 -1.1058
 6651TIP3   OH241367   2.774   3.549   6.194  0.0488 -0.0069  0.7211
 6651TIP3    H141368   2.784   3.579   6.284  0.1300 -1.8815  1.3744
 6651TIP3    H241369   2.854   3.577   6.150  0.3684  0.2337  1.4402
 6652TIP3   OH241370   1.487   5.164  11.554  0.3181  0.0462 -0.5795
 6652TIP3    H141371   1.522   5.141  11.468  2.1016  0.7895 -0.0841
 6652TIP3    H241372   1.402   5.204  11.534  0.7541  0.3437 -2.0107
 6653TIP3   OH241373   2.129   2.132  13.009 -0.1449 -0.3638 -0.8236
 6653TIP3    H141374   2.154   2.153  12.919 -1.5191 -2.0332 -1.6362
 6653TIP3    H241375   2.064   2.062  13.001 -0.2185 -0.6387  1.4796
 6654TIP3   OH241376   1.458   0.125  13.286 -0.0547 -0.4285  0.2097
 6654TIP3    H141377   1.468   0.204  13.340  0.5325 -0.1303 -0.3293
 6654TIP3    H241378   1.523   0.064  13.320 -0.7820 -0.8421  0.8934
 6655TIP3   OH241379   1.755   1.544  16.404 -0.1697  0.5982  0.2889
 6655TIP3    H141380   1.738   1.477  16.471 -1.4101 -0.8558 -1.3899
 6655TIP3    H241381   1.850   1.546  16.398 -0.0866 -1.3212  0.1494
 6656TIP3   OH241382   1.227   3.669   0.867 -0.7218  0.6274 -0.4635
 6656TIP3    H141383   1.258   3.728   0.935 -0.8537  1.2271 -0.9194
 6656TIP3    H241384   1.136   3.696   0.850 -1.2490 -0.5845  0.2843
 6657TIP3   OH241385   0.364   1.819  12.047 -0.2647 -0.0501  0.0503
 6657TIP3    H141386   0.373   1.741  11.992 -0.8441  0.1966 -0.4038
 6657TIP3    H241387   0.400   1.793  12.132 -2.0712 -1.3955  0.4617
 6658TIP3   OH241388   2.373   2.766  12.108  0.3889  0.2560  0.0543
 6658TIP3    H141389   2.414   2.803  12.030  1.4662  0.5444  0.7297
 6658TIP3    H241390   2.410   2.817  12.181 -2.5532  1.8025  0.6307
 6659TIP3   OH241391   4.739   0.815   3.555  0.0578  0.2249  0.1868
 6659TIP3    H141392   4.731   0.806   3.460  2.7745  2.3950 -0.3645
 6659TIP3    H241393   4.735   0.910   3.571  1.2155  0.0142  2.0291
 6660TIP3   OH241394   4.959   6.674  16.092 -0.8163  0.0761  0.4036
 6660TIP3    H141395   5.012   6.718  16.158 -0.0669  1.3445 -0.9638
 6660TIP3    H241396   4.880   6.647  16.138  0.1290 -0.0258  2.0308
 6661TIP3   OH241397   3.754   4.147  11.552 -0.1725 -0.2321  0.6269
 6661TIP3    H141398   3.727   4.238  11.546  1.8279  0.3372 -0.8042
 6661TIP3    H241399   3.741   4.112  11.464  0.4555 -0.8882  0.7838
 6662TIP3   OH241400   3.144   1.002   1.432  0.6870  0.6336 -0.4547
 6662TIP3    H141401   3.067   0.949   1.412  0.5725 -0.1274  1.6544
 6662TIP3    H241402   3.219   0.947   1.406  0.5702 -0.6816  1.7233
 6663TIP3   OH241403   1.245   3.185  14.160  0.4306  0.1122  0.3154
 6663TIP3    H141404   1.231   3.154  14.250 -0.8530 -1.9435 -0.5174
 6663TIP3    H241405   1.328   3.145  14.133  1.8916  2.3794  1.1911
 6664TIP3   OH241406   4.063   5.599  16.499 -0.6110  0.8340  0.2147
 6664TIP3    H141407   4.105   5.680  16.530  1.0869  0.0709  0.0693
 6664TIP3    H241408   4.111   5.577  16.419 -0.7226 -0.5510  0.5098
 6665TIP3   OH241409   4.100   3.864  13.397  0.1150 -0.4545 -0.6445
 6665TIP3    H141410   4.190   3.835  13.411  0.2765 -0.4719 -1.6904
 6665TIP3    H241411   4.106   3.932  13.330 -0.5552  0.1928 -0.0794
 6666TIP3   OH241412   1.917   0.724  15.539  0.4857  0.3217 -0.2089
 6666TIP3    H141413   1.983   0.782  15.501 -0.7564  1.2138 -1.0783
 6666TIP3    H241414   1.967   0.653  15.578  1.9547  0.9523 -0.8837
 6667TIP3   OH241415   3.822   1.439  17.105  0.3165 -0.2412  0.2305
 6667TIP3    H141416   3.727   1.447  17.093  0.3563  0.8178  0.4955
 6667TIP3    H241417   3.859   1.459  17.019  0.3639  1.5187  0.6155
 6668TIP3   OH241418   2.137   6.572  16.692  0.7132 -0.1254  0.3281
 6668TIP3    H141419   2.231   6.575  16.673  0.9495 -0.0807  1.4099
 6668TIP3    H241420   2.117   6.478  16.695  0.2257 -0.1615 -2.0345
 6669TIP3   OH241421   2.986   2.076  14.540  0.1205  0.1078 -0.6240
 6669TIP3    H141422   2.961   2.010  14.476 -0.6128  0.1646 -0.3986
 6669TIP3    H241423   2.930   2.151  14.520 -0.7002 -0.1531  0.5917
 6670TIP3   OH241424   6.512   0.453  12.113 -0.1807 -0.8773 -0.3779
 6670TIP3    H141425   6.426   0.494  12.101 -0.5577 -1.9780 -1.5808
 6670TIP3    H241426   6.555   0.507  12.180 -1.5922  0.0093 -0.1513
 6671TIP3   OH241427   2.624   2.835  12.820 -0.3126  0.3703 -0.5460
 6671TIP3    H141428   2.622   2.742  12.845 -1.7695 -0.0877 -2.1546
 6671TIP3    H241429   2.539   2.869  12.848  0.3952  1.3834  0.4623
 6672TIP3   OH241430   5.925   6.433  15.642  0.2191 -0.3205  0.4133
 6672TIP3    H141431   5.904   6.389  15.559  0.4304 -0.0157  0.1967
 6672TIP3    H241432   5.932   6.362  15.706  1.5424 -0.7032 -0.1293
 6673TIP3   OH241433   6.379   5.628  11.572  0.0490  0.4490 -0.3436
 6673TIP3    H141434   6.371   5.724  11.571  2.1388  0.6702 -0.8102
 6673TIP3    H241435   6.353   5.601  11.484 -1.1982  0.4994 -0.0053
 6674TIP3   OH241436   1.912   6.685   3.190 -0.3568  0.0503  0.0217
 6674TIP3    H141437   1.839   6.649   3.139  0.0759  2.2549 -2.4058
 6674TIP3    H241438   1.884   6.775   3.210  2.1749  1.5302 -2.3845
 6675TIP3   OH241439   2.937   2.576  14.127 -0.1485 -0.2256 -0.4366
 6675TIP3    H141440   2.875   2.630  14.076 -1.3028 -1.1326 -0.0460
 6675TIP3    H241441   2.999   2.543  14.062 -2.3860 -2.4926 -1.6243
 6676TIP3   OH241442   6.459   2.856  16.075 -0.0405  0.0665  0.3203
 6676TIP3    H141443   6.490   2.882  16.162 -2.4280  2.0544  0.6655
 6676TIP3    H241444   6.421   2.769  16.088  1.1644 -0.4177  0.8304
 6677TIP3   OH241445   0.045   2.741  13.239 -0.1596  0.0394 -0.5502
 6677TIP3    H141446   0.126   2.734  13.289  0.0603 -0.3960 -0.9637
 6677TIP3    H241447  -0.014   2.679  13.282  0.8431 -2.3109 -2.3768
 6678TIP3   OH241448   6.535   3.442   4.966 -0.3064  0.4079  0.1447
 6678TIP3    H141449   6.628   3.425   4.947 -0.0601  1.2655  0.5318
 6678TIP3    H241450   6.489   3.411   4.888 -0.1490 -3.8666  1.5095
 6679TIP3   OH241451   3.102   4.624  14.718  0.5144  0.4981 -0.1067
 6679TIP3    H141452   3.177   4.682  14.733  0.7261  0.2138 -0.0451
 6679TIP3    H241453   3.140   4.536  14.719 -0.0001  0.2703  1.1753
 6680TIP3   OH241454   6.421   1.911   4.936  0.2405 -0.2704  0.0017
 6680TIP3    H141455   6.420   1.901   4.841 -0.0410  0.0904 -0.0366
 6680TIP3    H241456   6.336   1.950   4.957  1.4434  2.6186  0.0412
 6681TIP3   OH241457   5.672   4.144   2.737 -0.1296  0.3356  0.5406
 6681TIP3    H141458   5.592   4.102   2.768  0.0198  0.1366  0.6571
 6681TIP3    H241459   5.667   4.138   2.642  0.4603 -1.0134  0.5802
 6682TIP3   OH241460   1.789   0.128   3.189  0.5859  0.7512  0.7197
 6682TIP3    H141461   1.726   0.196   3.213 -0.9995 -0.2508 -0.3380
 6682TIP3    H241462   1.860   0.175   3.145 -0.9692  1.6997 -0.9467
 6683TIP3   OH241463   1.990   5.700   2.642 -0.1828  0.2783 -0.2278
 6683TIP3    H141464   1.939   5.630   2.601  0.8517 -0.3111 -0.5401
 6683TIP3    H241465   1.943   5.781   2.619 -0.8554 -0.2285 -0.6723
 6684TIP3   OH241466   6.231   1.262  11.852  0.5732  0.2164  0.2696
 6684TIP3    H141467   6.289   1.301  11.787  0.1079 -0.2041 -0.4149
 6684TIP3    H241468   6.159   1.324  11.861  0.7076  0.3419  0.4968
 6685TIP3   OH241469   1.102   4.401  12.851 -0.1445 -1.2486  0.3579
 6685TIP3    H141470   1.082   4.309  12.870 -1.4103 -0.5950  2.4302
 6685TIP3    H241471   1.040   4.424  12.781  0.3971 -2.0236 -0.4034
 6686TIP3   OH241472   4.429   3.517  14.848  0.1664  0.2445 -0.1387
 6686TIP3    H141473   4.416   3.516  14.753 -0.1312  0.8713 -0.1107
 6686TIP3    H241474   4.457   3.607  14.867 -0.5377  0.3415  0.4611
 6687TIP3   OH241475   3.194   5.681   5.858  0.0929 -0.3382  0.0797
 6687TIP3    H141476   3.273   5.729   5.833 -1.5691  2.7125  0.1373
 6687TIP3    H241477   3.220   5.631   5.935  2.2636 -0.4607 -0.6687
 6688TIP3   OH241478   4.117   1.565  10.943  0.0500 -0.2791  0.5040
 6688TIP3    H141479   4.045   1.505  10.963 -0.0862 -0.0905  0.5884
 6688TIP3    H241480   4.105   1.586  10.850 -0.0422 -0.1979  0.5344
 6689TIP3   OH241481   2.174   1.606  15.904  0.6173 -0.2594 -0.5575
 6689TIP3    H141482   2.256   1.575  15.944  1.8691  2.1088 -1.1309
 6689TIP3    H241483   2.195   1.692  15.868 -2.2689  0.6796 -0.3020
 6690TIP3   OH241484   3.193   2.777   1.393  0.5781 -0.1710  0.0379
 6690TIP3    H141485   3.180   2.870   1.411 -0.1160 -0.0857 -0.8318
 6690TIP3    H241486   3.115   2.751   1.344  1.2114 -0.9789 -0.5782
 6691TIP3   OH241487   1.481   2.758   5.941  0.4019  0.3550  0.5446
 6691TIP3    H141488   1.483   2.834   6.000  0.6388  2.2336 -1.6950
 6691TIP3    H241489   1.541   2.782   5.870  2.3831 -3.0323  0.9063
 6692TIP3   OH241490   1.766   2.420  14.215  0.1044 -0.2572  0.2943
 6692TIP3    H141491   1.744   2.343  14.268 -1.4060  1.5764  2.4928
 6692TIP3    H241492   1.681   2.454  14.185  0.8137 -0.0153 -1.5720
 6693TIP3   OH241493   3.599   0.295  12.268  0.0609 -0.1998 -0.3625
 6693TIP3    H141494   3.673   0.353  12.251  0.0348 -0.0102  0.1441
 6693TIP3    H241495   3.540   0.347  12.323 -0.2062 -0.5250 -0.3366
 6694TIP3   OH241496   4.268   2.743  15.014  0.3459 -0.1666  0.2212
 6694TIP3    H141497   4.173   2.760  15.013 -0.1269 -2.3957  0.9966
 6694TIP3    H241498   4.284   2.706  15.100  1.9965  0.3608  0.1613
 6695TIP3   OH241499   5.659   3.352  11.877 -0.4754  0.6709  0.2534
 6695TIP3    H141500   5.627   3.358  11.967  0.6240 -0.4771  0.7559
 6695TIP3    H241501   5.671   3.443  11.849 -3.0718  1.1423  0.3854
 6696TIP3   OH241502   1.186   4.614  11.256 -0.0821 -0.1429 -0.2036
 6696TIP3    H141503   1.184   4.548  11.326  1.4732  0.5696  0.5494
 6696TIP3    H241504   1.252   4.582  11.195  1.2182  1.0405  0.5359
 6697TIP3   OH241505   4.011   3.667   5.039  0.5816  0.4459  0.1113
 6697TIP3    H141506   4.022   3.574   5.054 -0.3097  0.5508  1.5209
 6697TIP3    H241507   3.934   3.673   4.981  0.8615  0.3046 -0.2828
 6698TIP3   OH241508   0.303   0.752   6.694  0.1020 -0.2985 -0.1364
 6698TIP3    H141509   0.395   0.745   6.667  0.1330 -0.0846 -0.0834
 6698TIP3    H241510   0.259   0.683   6.644  0.1850  0.0043 -0.6406
 6699TIP3   OH241511   3.896   0.112  14.239  0.8220  0.1313  0.4207
 6699TIP3    H141512   3.978   0.148  14.272  0.9432 -0.6223  0.9717
 6699TIP3    H241513   3.863   0.179  14.180  2.0769  0.2489 -0.1897
 6700TIP3   OH241514   1.685   0.742   4.514 -0.0314 -0.5225  0.0711
 6700TIP3    H141515   1.599   0.779   4.493 -0.2110 -0.9918 -0.0255
 6700TIP3    H241516   1.704   0.774   4.602 -0.1050 -0.0633 -0.0728
 6701TIP3   OH241517   0.977   1.259   0.505 -0.1732 -0.3079  0.0671
 6701TIP3    H141518   0.937   1.345   0.506 -0.3324 -0.3772  1.4364
 6701TIP3    H241519   0.904   1.198   0.513 -0.1673 -0.6544 -1.9807
 6702TIP3   OH241520   3.234   6.668  12.210 -0.1679 -0.1810  0.3105
 6702TIP3    H141521   3.248   6.610  12.285  2.3430  0.0726  0.1302
 6702TIP3    H241522   3.287   6.745  12.230  2.3103 -0.9460 -2.5305
 6703TIP3   OH241523   1.456   2.850   2.833 -0.1342  0.1541  0.1448
 6703TIP3    H141524   1.500   2.766   2.821  1.0723  0.5767  1.3123
 6703TIP3    H241525   1.491   2.905   2.762 -1.5496 -0.5331 -1.1246
 6704TIP3   OH241526   1.788   0.379   6.550 -0.1390 -0.2237 -0.0603
 6704TIP3    H141527   1.709   0.430   6.534 -0.3474 -0.1672  1.0181
 6704TIP3    H241528   1.756   0.289   6.560  0.1662 -0.5000 -1.4661
 6705TIP3   OH241529   2.462   5.064   1.228  0.9478  0.4536 -0.3247
 6705TIP3    H141530   2.555   5.055   1.250  0.7989  1.1680  0.6817
 6705TIP3    H241531   2.420   4.989   1.271  0.8192  1.1931  0.8893
 6706TIP3   OH241532   4.882   5.521   2.269  0.5351 -0.0595  0.3005
 6706TIP3    H141533   4.974   5.505   2.250  0.6700  0.4542  0.5063
 6706TIP3    H241534   4.853   5.578   2.198 -0.1471 -1.7996 -0.8719
 6707TIP3   OH241535   6.712   6.590  15.300 -0.4533  0.2907  0.4324
 6707TIP3    H141536   6.642   6.612  15.239  0.8544  0.4385 -1.0905
 6707TIP3    H241537   6.711   6.494  15.303 -0.6683  0.2893  0.3439
 6708TIP3   OH241538   0.875   6.703   1.253  0.0148  0.2922  0.0301
 6708TIP3    H141539   0.886   6.618   1.296  2.1075  1.1242  1.2997
 6708TIP3    H241540   0.960   6.746   1.263 -0.6834  2.1633 -1.4510
 6709TIP3   OH241541   3.633   4.576  15.512  0.3162  0.1691  0.3555
 6709TIP3    H141542   3.600   4.649  15.564 -0.8720  0.0724 -0.2380
 6709TIP3    H241543   3.585   4.500  15.544  1.4856 -0.3757  0.9125
 6710TIP3   OH241544   0.300   1.096   3.062  0.2760  0.3693  0.2498
 6710TIP3    H141545   0.240   1.038   3.109 -0.4972 -0.1107 -1.2470
 6710TIP3    H241546   0.311   1.054   2.976  0.2568  2.0437 -0.6220
 6711TIP3   OH241547   4.407   6.194  10.581 -0.2771  0.0121  0.0796
 6711TIP3    H141548   4.393   6.123  10.518 -1.6137 -1.0967  1.5221
 6711TIP3    H241549   4.319   6.213  10.615  0.4396  0.1931  1.9439
 6712TIP3   OH241550   4.389   3.766  14.400 -0.5109 -0.0073 -0.1413
 6712TIP3    H141551   4.294   3.781  14.399 -0.9521 -1.6812  3.1912
 6712TIP3    H241552   4.426   3.848  14.431 -1.1110 -0.0235  0.6447
 6713TIP3   OH241553   4.891   0.372  13.888 -0.3077  0.5975  0.1289
 6713TIP3    H141554   4.941   0.290  13.889 -3.2751 -1.3532  0.4104
 6713TIP3    H241555   4.936   0.426  13.823  1.2975 -1.5415 -0.6716
 6714TIP3   OH241556   6.190   4.232  17.228  0.0352  0.5257 -0.7055
 6714TIP3    H141557   6.170   4.321  17.200 -0.8118  0.0736 -1.6419
 6714TIP3    H241558   6.190   4.181  17.146  1.5795 -0.1554 -0.3219
 6715TIP3   OH241559   4.343   5.735  12.294  0.1120 -0.0947  0.1505
 6715TIP3    H141560   4.353   5.778  12.209 -1.1050  0.1867  0.1419
 6715TIP3    H241561   4.255   5.697  12.293  0.0419 -0.0146  1.3239
 6716TIP3   OH241562   4.691   3.362  16.015  0.1884  0.1709 -0.2149
 6716TIP3    H141563   4.672   3.456  16.020 -0.4621 -0.0106  1.5500
 6716TIP3    H241564   4.708   3.336  16.106  1.2684 -1.2544 -0.7872
 6717TIP3   OH241565   1.935   2.556   0.456 -0.1889  0.3917 -0.0342
 6717TIP3    H141566   1.863   2.547   0.393 -0.0279 -2.3027  0.0656
 6717TIP3    H241567   1.891   2.566   0.540 -0.4259 -0.0044 -0.1105
 6718TIP3   OH241568   2.358   3.752  17.126  0.4760 -0.3707  0.2232
 6718TIP3    H141569   2.311   3.822  17.080  1.6132  0.1711 -0.1668
 6718TIP3    H241570   2.449   3.782  17.127  0.7783 -1.2794  1.1586
 6719TIP3   OH241571   1.032   6.603   3.073 -0.6102  0.4009  0.0428
 6719TIP3    H141572   1.119   6.565   3.060 -0.6644  0.3247 -0.1048
 6719TIP3    H241573   0.977   6.557   3.010 -0.4927  1.3816 -0.7993
 6720TIP3   OH241574   4.215   3.715  11.592 -0.1848 -0.3337  0.1122
 6720TIP3    H141575   4.146   3.727  11.527  0.1809  1.4210 -0.0146
 6720TIP3    H241576   4.296   3.725  11.542  0.1049  1.5513  0.8406
 6721TIP3   OH241577   2.283   6.191  15.077  0.2679 -0.2870  0.0044
 6721TIP3    H141578   2.206   6.248  15.079  1.3232  1.3358 -1.8090
 6721TIP3    H241579   2.344   6.231  15.138  0.4837 -0.2876 -0.2101
 6722TIP3   OH241580   2.725   0.125  12.647  0.6149 -0.3338 -0.5642
 6722TIP3    H141581   2.814   0.101  12.673  1.5334  2.3609 -0.9047
 6722TIP3    H241582   2.697   0.188  12.714 -1.5393 -1.9327  0.1591
 6723TIP3   OH241583   4.423   6.140  14.218 -0.5454 -0.4156 -0.4901
 6723TIP3    H141584   4.500   6.189  14.246 -1.4692 -0.3249  2.1901
 6723TIP3    H241585   4.441   6.050  14.247 -0.9780 -0.6198 -0.8517
 6724TIP3   OH241586   1.428   0.818  14.479  0.7155 -0.2687  0.0946
 6724TIP3    H141587   1.393   0.729  14.475  0.2721 -0.0870 -0.1047
 6724TIP3    H241588   1.399   0.852  14.564  0.1718 -0.0272 -0.1789
 6725TIP3   OH241589   3.544   1.967   2.174  0.1445 -0.3075  0.0264
 6725TIP3    H141590   3.456   1.937   2.199  0.4967 -1.1310  0.3282
 6725TIP3    H241591   3.553   1.940   2.083  1.0853 -2.7263  0.7609
 6726TIP3   OH241592   3.086   2.643  13.131 -0.2574 -0.6079  0.3042
 6726TIP3    H141593   3.085   2.553  13.100  1.8135 -1.1222  1.5090
 6726TIP3    H241594   3.130   2.638  13.216  1.5186  1.7372 -0.3778
 6727TIP3   OH241595   1.797   4.201  13.901  0.5333 -0.1895  0.5247
 6727TIP3    H141596   1.727   4.136  13.904  0.6913 -0.5771 -1.7977
 6727TIP3    H241597   1.769   4.270  13.961  0.0563 -2.0724  2.5747
 6728TIP3   OH241598   1.724   6.750  13.119  0.0177 -0.3799 -0.0808
 6728TIP3    H141599   1.680   6.702  13.189  0.6333 -1.0030 -0.1029
 6728TIP3    H241600   1.806   6.702  13.105 -0.2563 -0.5027 -1.4852
 6729TIP3   OH241601   5.852   5.081   0.237 -0.2527  0.0273 -0.0996
 6729TIP3    H141602   5.908   5.075   0.314 -0.1616  1.9946  0.0264
 6729TIP3    H241603   5.912   5.075   0.163  0.0822  1.5029  0.0325
 6730TIP3   OH241604   4.919   4.499   0.792  0.5311 -0.5807 -0.0403
 6730TIP3    H141605   4.845   4.558   0.781  0.2438 -0.7213  1.0308
 6730TIP3    H241606   4.995   4.550   0.764  0.5391  0.9997  2.5538
 6731TIP3   OH241607   2.617   2.854   5.373  0.0582  0.4076  0.3342
 6731TIP3    H141608   2.632   2.759   5.376  0.9172  0.5375  0.7087
 6731TIP3    H241609   2.557   2.867   5.300  1.1046 -0.2979 -0.6894
 6732TIP3   OH241610   6.432   4.098  16.642 -0.1158  0.4204 -0.3050
 6732TIP3    H141611   6.349   4.139  16.665 -1.5546 -1.2879 -2.1152
 6732TIP3    H241612   6.465   4.062  16.725 -1.5432  0.5362  0.3357
 6733TIP3   OH241613   4.168   0.882  14.073 -0.0595  0.4002 -0.3206
 6733TIP3    H141614   4.161   0.888  13.978  1.1666 -0.4606 -0.4897
 6733TIP3    H241615   4.162   0.788  14.092  0.5023  0.4986  0.3772
 6734TIP3   OH241616   6.154   1.953   5.045  0.3608  0.0820  0.3254
 6734TIP3    H141617   6.130   1.861   5.038  0.8719 -0.0517  0.3092
 6734TIP3    H241618   6.107   1.995   4.973  1.0239 -0.3547 -0.3773
 6735TIP3   OH241619   3.045   6.652  14.184 -0.0777  0.2648  0.2649
 6735TIP3    H141620   3.116   6.715  14.178  0.3070 -0.1726  0.1886
 6735TIP3    H241621   2.993   6.682  14.259  0.2575  0.5108  0.4036
 6736TIP3   OH241622   2.164   1.195  16.852  0.8101  0.3159  0.7129
 6736TIP3    H141623   2.214   1.152  16.921  0.8428  1.3284  1.3365
 6736TIP3    H241624   2.073   1.189  16.881  0.8845  1.3224  1.1796
 6737TIP3   OH241625   3.395   2.910   5.257  0.2238  0.2784  0.1983
 6737TIP3    H141626   3.393   2.827   5.210  0.1380  0.4760 -0.1467
 6737TIP3    H241627   3.471   2.956   5.221 -0.5993  0.9794 -0.6869
 6738TIP3   OH241628   5.488   1.088   4.606  0.2300  0.3268 -0.0340
 6738TIP3    H141629   5.536   1.012   4.641 -1.7501 -0.0935  2.0192
 6738TIP3    H241630   5.430   1.051   4.540 -0.3847  0.1057  0.6193
 6739TIP3   OH241631   2.174   1.856  12.850 -1.0668 -0.1088 -0.0277
 6739TIP3    H141632   2.250   1.913  12.856  1.1603 -2.8996  0.4316
 6739TIP3    H241633   2.119   1.882  12.924 -0.5906  1.9473 -0.3365
 6740TIP3   OH241634   3.621   0.771  11.351 -0.0597 -0.4269 -0.1428
 6740TIP3    H141635   3.674   0.719  11.291 -0.3548  0.5551 -1.3099
 6740TIP3    H241636   3.584   0.840  11.296  0.2375  0.9515  1.3143
 6741TIP3   OH241637   5.540   0.197   6.432  0.9905  0.2901 -0.5475
 6741TIP3    H141638   5.525   0.292   6.436 -0.8804  0.1588 -2.4453
 6741TIP3    H241639   5.471   0.160   6.487  0.9206 -0.0194 -0.8436
 6742TIP3   OH241640   2.314   3.479  12.746  0.0981  0.2024 -0.1848
 6742TIP3    H141641   2.351   3.397  12.713 -0.2088  1.0027 -2.7576
 6742TIP3    H241642   2.341   3.545  12.683 -1.6610  1.6656  0.4911
 6743TIP3   OH241643   6.222   1.054  17.033 -0.0687  0.5802 -0.2773
 6743TIP3    H141644   6.290   0.988  17.048 -0.1322 -0.0291 -2.3767
 6743TIP3    H241645   6.147   1.005  17.000 -0.8356  1.4856  0.0518
 6744TIP3   OH241646   4.267   3.553   3.854 -0.2882  0.2031  1.1361
 6744TIP3    H141647   4.343   3.498   3.834  0.3386  1.5534 -0.3994
 6744TIP3    H241648   4.192   3.496   3.842  0.3129 -0.2237 -0.9089
 6745TIP3   OH241649   5.620   1.886  11.701  0.0782 -0.0686  0.6982
 6745TIP3    H141650   5.548   1.826  11.684  0.2172  0.1753 -0.8865
 6745TIP3    H241651   5.672   1.842  11.768 -0.7419 -0.9117  0.8061
 6746TIP3   OH241652   6.768   3.578  14.351 -0.2759 -0.3700  0.2682
 6746TIP3    H141653   6.709   3.629  14.295 -1.7112 -1.7397  0.4865
 6746TIP3    H241654   6.717   3.560  14.430  0.7683 -0.8125  0.8598
 6747TIP3   OH241655   4.576   5.378   4.727 -0.2205 -0.2366  0.0129
 6747TIP3    H141656   4.536   5.359   4.642 -1.4655 -2.1108  0.9283
 6747TIP3    H241657   4.669   5.388   4.709 -0.5611  0.2648 -1.6624
 6748TIP3   OH241658   1.281   4.324   2.832  0.1276 -0.3412 -0.2135
 6748TIP3    H141659   1.323   4.343   2.748  0.0988 -2.9559 -0.8904
 6748TIP3    H241660   1.198   4.282   2.809  0.0835 -1.0483  1.1233
 6749TIP3   OH241661   3.011   5.198  13.824 -0.1772  0.1128  0.8390
 6749TIP3    H141662   3.099   5.229  13.802 -0.0627  0.5626  1.8676
 6749TIP3    H241663   2.967   5.275  13.860 -0.7031 -0.3322  1.1569
 6750TIP3   OH241664   0.207   4.321   6.590  0.0302 -0.3067  0.6514
 6750TIP3    H141665   0.184   4.294   6.679  0.7365 -1.2224  0.5787
 6750TIP3    H241666   0.195   4.242   6.537 -0.5550  0.2763 -0.1077
 6751TIP3   OH241667   5.551   6.714  16.071  0.4520 -0.0520  0.1766
 6751TIP3    H141668   5.559   6.787  16.010 -1.6686  0.4145  0.3924
 6751TIP3    H241669   5.614   6.649  16.039  0.0783  0.5635 -1.9259
 6752TIP3   OH241670   4.442   2.101  10.540 -0.9154 -0.2763 -0.0827
 6752TIP3    H141671   4.515   2.123  10.598 -0.2163  0.8160 -1.3119
 6752TIP3    H241672   4.461   2.012  10.511 -0.0607 -0.0105 -0.3725
 6753TIP3   OH241673   2.648   4.660  13.473  0.4010 -0.0603 -0.3126
 6753TIP3    H141674   2.591   4.688  13.401  3.1028 -1.2383 -3.1461
 6753TIP3    H241675   2.612   4.575  13.500  0.3465 -0.4638 -1.5727
 6754TIP3   OH241676   3.277   4.810  14.247  0.0819 -0.2298 -0.1268
 6754TIP3    H141677   3.260   4.822  14.154 -2.6699  1.5544  0.4989
 6754TIP3    H241678   3.309   4.720  14.254  0.0547 -0.5125 -2.7378
 6755TIP3   OH241679   5.653   1.014  11.454 -0.0329 -0.3335 -0.1459
 6755TIP3    H141680   5.687   1.102  11.437  1.5922 -0.9583 -0.2454
 6755TIP3    H241681   5.718   0.955  11.417 -1.5747 -1.5982 -0.9765
 6756TIP3   OH241682   0.394   2.670  12.175 -0.3880 -0.1723 -0.5344
 6756TIP3    H141683   0.322   2.618  12.140 -1.9053  1.2973  0.2766
 6756TIP3    H241684   0.423   2.724  12.100  0.5414 -1.4143 -1.1098
 6757TIP3   OH241685   3.256   3.494  15.282  0.2522 -0.2660 -0.6293
 6757TIP3    H141686   3.230   3.446  15.204 -1.5124 -1.1545  0.4489
 6757TIP3    H241687   3.228   3.584  15.265 -0.8678 -0.6155 -0.7186
 6758TIP3   OH241688   6.778   5.455  11.201 -0.0447 -0.5376  0.2969
 6758TIP3    H141689   6.869   5.484  11.202 -0.4099  0.9426 -2.1215
 6758TIP3    H241690   6.781   5.366  11.165  0.3684  0.1967 -1.6147
 6759TIP3   OH241691   2.162   1.766  16.517 -0.2372 -0.0499 -0.3831
 6759TIP3    H141692   2.181   1.849  16.474  0.5504 -0.2218 -0.3867
 6759TIP3    H241693   2.182   1.781  16.610 -2.7149  0.5640  0.1078
 6760TIP3   OH241694   5.492   3.815  11.835  0.2520 -0.2556 -0.4273
 6760TIP3    H141695   5.417   3.794  11.780  1.7424 -0.4764 -2.4891
 6760TIP3    H241696   5.517   3.904  11.809  0.2761  0.1088  0.7780
 6761TIP3   OH241697   0.898   5.104  15.209  0.0776  0.2780  0.2033
 6761TIP3    H141698   0.836   5.034  15.226  1.0598 -0.2314  1.9177
 6761TIP3    H241699   0.975   5.060  15.172  0.5258  0.4969  0.8549
 6762TIP3   OH241700   5.408   4.690  11.842 -0.2352  0.1704  0.0741
 6762TIP3    H141701   5.364   4.695  11.758 -0.5185 -1.9268  0.0588
 6762TIP3    H241702   5.398   4.599  11.870 -3.1516  1.4127  3.9952
 6763TIP3   OH241703   4.933   5.002  14.516 -0.4697  0.0496  0.3095
 6763TIP3    H141704   4.901   5.065  14.451  0.4853  2.1359  1.7323
 6763TIP3    H241705   5.028   4.999  14.502  0.0975  2.2276  2.8412
 6764TIP3   OH241706   0.935   5.260   5.352  0.5452 -0.4073 -0.0061
 6764TIP3    H141707   0.840   5.273   5.347  0.7307  1.0513 -0.4314
 6764TIP3    H241708   0.946   5.180   5.402 -0.9097 -0.4262  0.3354
 6765TIP3   OH241709   2.075   0.534  13.653  0.4866 -0.4432  0.1985
 6765TIP3    H141710   2.150   0.478  13.675  0.3881  0.0854  2.0492
 6765TIP3    H241711   2.104   0.623  13.673  0.4864  0.1766 -2.2965
 6766TIP3   OH241712   5.884   4.013   1.022 -0.2927  0.0481  0.7026
 6766TIP3    H141713   5.909   3.941   1.079 -1.6832  1.2909  3.0151
 6766TIP3    H241714   5.850   4.080   1.081 -2.0581  1.3317 -1.6152
 6767TIP3   OH241715   6.690   0.174   3.403  0.2300  0.3811  0.2730
 6767TIP3    H141716   6.606   0.173   3.357 -0.2380 -1.0487  1.1104
 6767TIP3    H241717   6.689   0.257   3.450 -0.6620  0.4423  0.1749
 6768TIP3   OH241718   4.259   4.439  16.324 -0.2772  0.1196  0.0241
 6768TIP3    H141719   4.238   4.364  16.378  1.2292 -1.9983 -2.0969
 6768TIP3    H241720   4.184   4.450  16.266  0.1454 -0.8305 -0.7267
 6769TIP3   OH241721   2.280   0.357  11.091  0.0682  0.1149  0.5895
 6769TIP3    H141722   2.368   0.329  11.064 -0.3633 -1.4950  0.7777
 6769TIP3    H241723   2.262   0.434  11.037  0.3754 -1.3230 -1.6627
 6770TIP3   OH241724   2.471   5.577   1.597 -0.5710  0.2047  0.0935
 6770TIP3    H141725   2.473   5.490   1.558 -0.7642  0.1635  0.1722
 6770TIP3    H241726   2.537   5.574   1.667 -1.1244 -0.1278  0.6088
 6771TIP3   OH241727   6.735   5.442   5.559 -0.3275  0.2095 -0.1142
 6771TIP3    H141728   6.690   5.418   5.478 -0.7283 -0.3863  0.2751
 6771TIP3    H241729   6.749   5.536   5.551 -2.8947  0.7084  0.3496
 6772TIP3   OH241730   4.627   6.241   1.159 -0.1120  0.2317 -0.4019
 6772TIP3    H141731   4.592   6.293   1.086 -1.1847  1.0933  0.6904
 6772TIP3    H241732   4.673   6.305   1.213  0.4015 -0.3494 -0.1449
 6773TIP3   OH241733   6.502   3.144  12.884  1.1687 -0.4775 -0.0765
 6773TIP3    H141734   6.409   3.121  12.887  0.3898  2.1977 -1.1420
 6773TIP3    H241735   6.525   3.163  12.975  0.6058 -0.8059  0.1398
 6774TIP3   OH241736   2.271   3.779  13.531  0.0529 -0.0846  0.0094
 6774TIP3    H141737   2.243   3.827  13.454  0.1718  0.5869  0.3720
 6774TIP3    H241738   2.280   3.846  13.599  1.4608 -0.4211  0.1905
 6775TIP3   OH241739   3.180   6.296  16.421 -0.0066 -0.0981 -0.0646
 6775TIP3    H141740   3.235   6.273  16.346  0.5842  2.5674 -0.5404
 6775TIP3    H241741   3.117   6.360  16.387 -1.6118 -0.9446  1.1225
 6776TIP3   OH241742   2.890   2.356  13.865  0.1121  0.3942  0.3747
 6776TIP3    H141743   2.880   2.265  13.837  2.5069  0.5544 -1.3589
 6776TIP3    H241744   2.833   2.406  13.805  0.0705  0.1750  0.2314
 6777TIP3   OH241745   4.917   2.685  14.973 -0.0977  0.2469 -0.2287
 6777TIP3    H141746   4.898   2.645  14.888 -0.3258 -0.2083  0.0332
 6777TIP3    H241747   4.910   2.613  15.035  0.2479  0.5425  0.1560
 6778TIP3   OH241748   4.879   0.631  17.095  0.1873 -0.3560 -0.0741
 6778TIP3    H141749   4.830   0.640  17.013  0.3897  0.6851 -0.0968
 6778TIP3    H241750   4.840   0.555  17.137 -0.5074 -0.3885 -0.7389
 6779TIP3   OH241751   1.093   5.314  14.864  0.0575  0.1477 -0.1439
 6779TIP3    H141752   1.072   5.394  14.910  2.2902  0.1040  1.0576
 6779TIP3    H241753   1.158   5.340  14.798  0.9097 -0.6767  0.3525
 6780TIP3   OH241754   5.161   2.650   2.121 -0.2538  0.0095 -0.5075
 6780TIP3    H141755   5.146   2.732   2.169 -1.6261 -0.4837 -0.0446
 6780TIP3    H241756   5.247   2.662   2.080 -0.3796  1.6407 -0.3742
 6781TIP3   OH241757   2.875   5.533   3.923  0.2100  0.5077  0.8429
 6781TIP3    H141758   2.921   5.616   3.908 -0.6585  0.8475 -0.0082
 6781TIP3    H241759   2.794   5.541   3.872  0.5506 -1.2457 -0.0171
 6782TIP3   OH241760   1.883   3.951   2.802 -0.3280 -0.0663  0.1276
 6782TIP3    H141761   1.963   3.978   2.847 -1.2337  1.0484  1.0997
 6782TIP3    H241762   1.841   4.032   2.776 -0.2312 -0.6605 -2.1058
 6783TIP3   OH241763   2.801   2.920   2.665  0.6720  0.6510 -0.1540
 6783TIP3    H141764   2.732   2.938   2.601 -0.6833 -0.5066  0.9014
 6783TIP3    H241765   2.863   2.864   2.619 -0.0470  0.2088 -0.5964
 6784TIP3   OH241766   6.176   4.443  10.640 -0.2371  0.5487 -0.0798
 6784TIP3    H141767   6.232   4.379  10.597 -2.4752 -1.9444  0.4218
 6784TIP3    H241768   6.128   4.485  10.569  0.7262  1.2024 -0.3631
 6785TIP3   OH241769   3.367   5.640   4.120  0.2910  0.3156  0.3371
 6785TIP3    H141770   3.369   5.635   4.215  1.1653 -1.0584  0.2816
 6785TIP3    H241771   3.382   5.732   4.100  0.0754  0.6243  1.5207
 6786TIP3   OH241772   1.808   4.537   0.145 -0.2019 -0.1769 -0.2265
 6786TIP3    H141773   1.848   4.621   0.128  0.5914 -0.0629  1.8451
 6786TIP3    H241774   1.881   4.480   0.170 -0.6835 -1.5874 -1.8258
 6787TIP3   OH241775   4.504   4.536  16.277  0.0865  0.1783  0.7116
 6787TIP3    H141776   4.411   4.515  16.283 -0.0650  0.1242 -1.3196
 6787TIP3    H241777   4.549   4.454  16.296 -0.2929  0.0293  0.9686
 6788TIP3   OH241778   0.588   0.095   3.763 -0.4518 -0.1654 -0.1742
 6788TIP3    H141779   0.683   0.080   3.768 -0.4681 -0.2840 -0.2099
 6788TIP3    H241780   0.576   0.147   3.684 -0.2692  1.0803  0.5792
 6789TIP3   OH241781   0.567   2.012  15.609  0.5373 -0.8054 -0.1966
 6789TIP3    H141782   0.625   2.071  15.658  1.1346 -0.5393 -1.1754
 6789TIP3    H241783   0.564   1.932  15.660 -0.3104  0.0698  1.1795
 6790TIP3   OH241784   3.809   2.826  16.651  0.3233  0.0715  0.1496
 6790TIP3    H141785   3.788   2.906  16.699  0.8223 -0.6551  1.6443
 6790TIP3    H241786   3.738   2.816  16.587  0.1873  1.6125  0.0415
 6791TIP3   OH241787   2.890   6.131   0.580  0.4153  0.0180  0.3011
 6791TIP3    H141788   2.837   6.158   0.655  0.0831  0.5106 -0.1060
 6791TIP3    H241789   2.966   6.189   0.582  1.5172 -1.3617  1.4994
 6792TIP3   OH241790   5.594   6.250  15.704 -1.3721 -0.1994 -0.2905
 6792TIP3    H141791   5.609   6.248  15.799  0.2806  0.4286 -0.5074
 6792TIP3    H241792   5.651   6.181  15.669 -0.0347  1.2153 -1.0177
 6793TIP3   OH241793   2.094   0.830  16.592 -0.1717  0.6171  0.7541
 6793TIP3    H141794   1.999   0.830  16.599 -0.2007  2.5231  0.8884
 6793TIP3    H241795   2.113   0.902  16.532  1.1361 -0.6863 -0.4629
 6794TIP3   OH241796   1.494   3.576   4.672  0.6075 -0.5223  0.2633
 6794TIP3    H141797   1.445   3.569   4.754  0.3802  0.1870  0.1970
 6794TIP3    H241798   1.541   3.493   4.665 -0.6177 -1.2441  0.3048
 6795TIP3   OH241799   6.115   0.410   2.545  0.5009  0.3223 -0.0912
 6795TIP3    H141800   6.163   0.415   2.462  1.0737 -1.7000  0.0843
 6795TIP3    H241801   6.163   0.469   2.604 -0.3748  2.4089 -1.3638
 6796TIP3   OH241802   5.661   0.080   2.851 -0.0604  0.0540 -0.0296
 6796TIP3    H141803   5.619  -0.005   2.856  0.3015 -0.0575  2.1412
 6796TIP3    H241804   5.732   0.069   2.788  0.9007 -1.6857  1.3019
 6797TIP3   OH241805   6.024   1.070  13.553  0.1280  0.7374 -0.5579
 6797TIP3    H141806   6.014   0.981  13.586  2.1873  1.2247  1.6745
 6797TIP3    H241807   5.937   1.109  13.561 -0.5331 -0.6964 -0.4832
 6798TIP3   OH241808   5.053   1.690   5.431 -0.6202 -0.1617  0.4129
 6798TIP3    H141809   5.058   1.729   5.343 -0.9172 -0.3749  0.2993
 6798TIP3    H241810   4.959   1.676   5.445 -0.7179  1.2646  1.3864
 6799TIP3   OH241811   0.554   5.289   5.657 -0.3057  0.5152 -0.2349
 6799TIP3    H141812   0.495   5.354   5.696 -1.4383  0.8371 -2.3161
 6799TIP3    H241813   0.503   5.208   5.656 -0.5178  0.6444 -1.4896
 6800TIP3   OH241814   0.715   2.538   3.748 -0.2530 -0.2882 -0.0022
 6800TIP3    H141815   0.623   2.530   3.722  0.0659 -2.9272 -0.5779
 6800TIP3    H241816   0.732   2.461   3.801  1.6594  0.1086  0.0321
 6801TIP3   OH241817   5.430   3.999   5.198 -0.2182 -0.1443  0.3101
 6801TIP3    H141818   5.350   3.946   5.210 -1.2591  1.3817  0.3558
 6801TIP3    H241819   5.452   3.987   5.105  0.5897 -2.0138  0.7042
 6802TIP3   OH241820   5.693   5.666  10.697 -0.3320 -0.1115  0.0965
 6802TIP3    H141821   5.664   5.604  10.631 -0.5099 -0.3758  0.4216
 6802TIP3    H241822   5.659   5.751  10.667 -1.5955 -0.4322  0.5513
 6803TIP3   OH241823   4.459   5.618  17.227 -0.6081  0.0316  0.3431
 6803TIP3    H141824   4.378   5.634  17.178 -0.8411 -0.5238  0.5319
 6803TIP3    H241825   4.436   5.548  17.289  1.0652 -3.2949 -2.4247
 6804TIP3   OH241826   2.876   1.930   3.316 -0.1376  0.0240 -0.1589
 6804TIP3    H141827   2.920   1.999   3.365  0.1986 -1.6558  2.1133
 6804TIP3    H241828   2.786   1.959   3.308 -0.4827 -0.0799  2.5639
 6805TIP3   OH241829   0.991   2.483   3.266  0.8181 -0.6236 -0.0263
 6805TIP3    H141830   0.967   2.488   3.359  0.8960 -0.4276 -0.0179
 6805TIP3    H241831   1.083   2.510   3.263  0.6331 -0.0044 -0.2427
 6806TIP3   OH241832   5.670   3.597  13.751  0.3851 -0.7353  0.7864
 6806TIP3    H141833   5.624   3.679  13.732  2.5763  0.8942  1.9185
 6806TIP3    H241834   5.601   3.535  13.773 -1.3229  1.2147  1.2648
 6807TIP3   OH241835   4.372   4.322   4.568 -0.0451  0.4330  0.1817
 6807TIP3    H141836   4.368   4.376   4.647 -1.2715  1.9115 -0.8446
 6807TIP3    H241837   4.293   4.268   4.572 -0.0563  0.4362 -0.0109
 6808TIP3   OH241838   6.277   6.190   6.214  0.1441 -0.0569 -0.3031
 6808TIP3    H141839   6.186   6.208   6.239  0.2669 -0.0070  0.1070
 6808TIP3    H241840   6.329   6.245   6.271  0.6207 -2.7949  2.1629
 6809TIP3   OH241841   4.603   6.189   6.332  0.2700  0.3346  0.4087
 6809TIP3    H141842   4.519   6.218   6.368 -1.1554  1.4252 -3.3253
 6809TIP3    H241843   4.601   6.094   6.341 -1.9367  0.2266 -0.5463
 6810TIP3   OH241844   3.770   1.899  11.432 -0.2493 -0.8058 -0.2634
 6810TIP3    H141845   3.831   1.972  11.419 -0.7102 -0.1805  0.8751
 6810TIP3    H241846   3.824   1.826  11.462 -0.2109  0.5119  3.5081
 6811TIP3   OH241847   0.135   3.670   2.938  0.0223  0.4985  0.4339
 6811TIP3    H141848   0.153   3.642   2.848  1.6310  1.2268  0.4897
 6811TIP3    H241849   0.047   3.638   2.956  0.0553 -0.5374 -1.0509
 6812TIP3   OH241850   1.471   5.336   1.753 -0.3323  0.0172  0.1740
 6812TIP3    H141851   1.552   5.351   1.706 -1.1576  1.4276 -0.8798
 6812TIP3    H241852   1.474   5.395   1.827 -0.3985  0.0868  0.1220
 6813TIP3   OH241853   2.269   5.693   2.613 -0.1385  0.1209  0.2918
 6813TIP3    H141854   2.273   5.627   2.544  0.6427 -0.4271  0.8328
 6813TIP3    H241855   2.176   5.706   2.629 -0.4224  1.5266 -2.0239
 6814TIP3   OH241856   4.327   3.022  13.153 -0.9555 -0.5536  0.2288
 6814TIP3    H141857   4.403   2.995  13.101 -0.6580  0.9909 -0.1802
 6814TIP3    H241858   4.322   3.117  13.142 -2.6938 -0.5608  0.6122
 6815TIP3   OH241859   5.670   1.857  16.875  0.3172  0.3188  0.2340
 6815TIP3    H141860   5.630   1.779  16.835  1.2478 -1.0291  1.8207
 6815TIP3    H241861   5.640   1.856  16.966  3.4808 -0.5094  1.3855
 6816TIP3   OH241862   2.396   0.189  15.618 -1.0549 -0.5841  0.2012
 6816TIP3    H141863   2.397   0.104  15.574  0.6303 -0.9653  0.9056
 6816TIP3    H241864   2.457   0.243  15.568 -2.3581  0.3539 -0.4388
 6817TIP3   OH241865   2.812   6.234   3.412 -0.0821  0.4068  0.1196
 6817TIP3    H141866   2.753   6.163   3.434 -2.5504  2.3183  0.0926
 6817TIP3    H241867   2.760   6.293   3.358  3.2570 -0.0572 -4.1669
 6818TIP3   OH241868   3.073   0.875   2.065  0.1532 -0.8305  0.2398
 6818TIP3    H141869   3.014   0.892   1.992 -1.4702  1.0046  1.8637
 6818TIP3    H241870   3.016   0.859   2.140  1.7463 -1.4985  1.3847
 6819TIP3   OH241871   3.004   6.041   5.972 -0.0911  0.2505 -0.1369
 6819TIP3    H141872   2.957   5.987   6.036  1.1500  1.4692  1.9445
 6819TIP3    H241873   2.983   6.003   5.887 -2.5910 -0.8825  0.9101
 6820TIP3   OH241874   2.277   2.363   5.334  0.6648  0.2667 -0.2814
 6820TIP3    H141875   2.295   2.354   5.240  1.0624 -0.1761 -0.1644
 6820TIP3    H241876   2.359   2.339   5.376  1.2627  2.7176  0.1183
 6821TIP3   OH241877   4.660   1.373   0.310  0.2316 -0.2830 -0.0829
 6821TIP3    H141878   4.584   1.345   0.361 -0.9126 -0.6588 -1.8876
 6821TIP3    H241879   4.697   1.291   0.275  0.8720 -0.0194 -0.0435
 6822TIP3   OH241880   5.161   6.431   5.841  0.2701  0.6209  0.4742
 6822TIP3    H141881   5.182   6.361   5.779  0.0674  1.7548 -0.9218
 6822TIP3    H241882   5.065   6.433   5.843  0.2523  1.6955 -0.5132
 6823TIP3   OH241883   5.620   5.311  13.617  0.3850  0.0141  0.2617
 6823TIP3    H141884   5.604   5.226  13.576  0.3111 -0.0708  0.4672
 6823TIP3    H241885   5.577   5.374  13.559 -0.8097 -0.2248  0.8695
 6824TIP3   OH241886   4.265   5.715   1.075 -0.0094 -0.0410 -0.4260
 6824TIP3    H141887   4.247   5.729   1.168  1.4457 -1.2799  0.0801
 6824TIP3    H241888   4.203   5.773   1.030 -2.0573 -0.7645  1.2516
 6825TIP3   OH241889   1.062   3.957  15.202  0.4328 -0.2448 -0.1339
 6825TIP3    H141890   1.057   3.925  15.293  1.3678 -1.5761 -0.5229
 6825TIP3    H241891   1.123   3.897  15.159 -0.6410 -0.1505 -1.8682
 6826TIP3   OH241892   0.115   2.178   2.852 -0.4602  0.1981  0.5664
 6826TIP3    H141893   0.179   2.142   2.913 -0.3986  0.0927  0.4393
 6826TIP3    H241894   0.143   2.269   2.838 -1.5540  0.8361  2.1914
 6827TIP3   OH241895   5.205   6.408   1.272 -0.0901 -0.6415 -0.3294
 6827TIP3    H141896   5.133   6.465   1.299 -0.1305 -0.6249 -0.4763
 6827TIP3    H241897   5.256   6.460   1.212  1.0420 -0.0207  1.1113
 6828TIP3   OH241898   0.086   4.859  13.482  0.4010 -0.2155  0.2503
 6828TIP3    H141899   0.020   4.904  13.431 -0.6956 -2.2597 -0.2262
 6828TIP3    H241900   0.112   4.784  13.429  2.0262 -0.3037  1.0721
 6829TIP3   OH241901   0.318   6.270   5.430 -0.1160 -0.0884 -0.2234
 6829TIP3    H141902   0.246   6.227   5.476 -0.7221  1.4523  0.3269
 6829TIP3    H241903   0.392   6.262   5.490 -0.7297  1.3147  0.7698
 6830TIP3   OH241904   4.241   3.193  11.668 -0.0435 -0.4224 -0.0587
 6830TIP3    H141905   4.242   3.157  11.757 -1.4591 -0.6883 -0.1315
 6830TIP3    H241906   4.237   3.288  11.681  1.5846 -0.3423  0.1294
 6831TIP3   OH241907   0.526   5.437   0.963 -0.0819  0.3879 -0.1929
 6831TIP3    H141908   0.451   5.378   0.967  0.0459  0.0669 -1.7766
 6831TIP3    H241909   0.488   5.523   0.950 -0.1951  0.1983 -1.2130
 6832TIP3   OH241910   6.281   3.848  13.394  0.6923 -0.1232 -0.0206
 6832TIP3    H141911   6.215   3.786  13.426  0.1858  0.2644 -0.3104
 6832TIP3    H241912   6.362   3.820  13.437  0.6794 -1.5902 -0.8754
 6833TIP3   OH241913   3.115   4.888  11.849  0.2179  0.5140 -0.4600
 6833TIP3    H141914   3.063   4.962  11.819  2.9007  2.7314 -0.0243
 6833TIP3    H241915   3.090   4.877  11.941 -1.5960 -0.4832 -1.0233
 6834TIP3   OH241916   1.989   6.022   2.395  0.2586 -0.4687  0.0425
 6834TIP3    H141917   1.923   6.078   2.355  1.0641  0.9711  0.6732
 6834TIP3    H241918   2.069   6.043   2.347  1.4367  1.8600  2.7336
 6835TIP3   OH241919   3.673   2.396   5.684  0.3655 -0.0927 -0.8218
 6835TIP3    H141920   3.598   2.364   5.733  1.7357 -2.3990 -0.0873
 6835TIP3    H241921   3.656   2.371   5.593  0.3838 -0.9636 -0.5952
 6836TIP3   OH241922   5.201   1.898  13.489 -0.0640 -0.1340  0.0993
 6836TIP3    H141923   5.268   1.967  13.491  0.8227 -0.9882  1.0576
 6836TIP3    H241924   5.132   1.934  13.435  0.6968  1.2265 -0.0215
 6837TIP3   OH241925   2.486   5.437  11.342  0.7025 -0.7436 -0.3714
 6837TIP3    H141926   2.440   5.369  11.392  0.7284 -0.6387 -0.2048
 6837TIP3    H241927   2.419   5.473  11.284  0.8044 -1.2455 -0.8080
 6838TIP3   OH241928   1.823   1.932  12.003  0.3259  0.0097  0.2426
 6838TIP3    H141929   1.818   2.002  11.938 -1.2365  1.6543  2.0148
 6838TIP3    H241930   1.916   1.915  12.013  0.6116 -0.7708 -2.8378
 6839TIP3   OH241931   4.672   4.530   3.612  0.2836 -0.3616 -0.1176
 6839TIP3    H141932   4.762   4.523   3.645  0.1762 -1.7669 -0.0716
 6839TIP3    H241933   4.677   4.596   3.543  1.1237  0.3651  0.6141
 6840TIP3   OH241934   0.811   5.339   2.666  0.7594 -0.0309  0.5966
 6840TIP3    H141935   0.818   5.259   2.718 -0.9984 -0.2659  0.5143
 6840TIP3    H241936   0.809   5.410   2.730 -2.5959 -0.3832  1.0524
 6841TIP3   OH241937   4.864   3.825   4.467  0.1856 -0.1456  0.2811
 6841TIP3    H141938   4.908   3.906   4.439 -0.3018 -0.4002 -1.3376
 6841TIP3    H241939   4.841   3.781   4.385 -1.2832 -0.9951  1.1051
 6842TIP3   OH241940   2.904   4.976   3.724  0.4141 -0.2939 -0.5804
 6842TIP3    H141941   2.894   4.919   3.800 -1.9204  0.5330 -0.1853
 6842TIP3    H241942   2.912   5.064   3.761 -0.9661  0.1426 -1.2550
 6843TIP3   OH241943   3.559   4.587   3.857  0.1245  0.0177  0.1498
 6843TIP3    H141944   3.472   4.566   3.894 -0.0906 -0.4696 -0.6181
 6843TIP3    H241945   3.565   4.682   3.864 -0.2434  0.0086  0.7156
 6844TIP3   OH241946   6.130   3.671  14.174  0.0844  0.0264  0.1039
 6844TIP3    H141947   6.112   3.606  14.242  0.5718  0.2336  0.4378
 6844TIP3    H241948   6.160   3.748  14.222 -1.0438  0.7116 -0.2382
 6845TIP3   OH241949   3.659   3.400   1.543 -0.3220  0.6518 -0.3748
 6845TIP3    H141950   3.675   3.315   1.502  2.8369  0.7322  0.4902
 6845TIP3    H241951   3.611   3.380   1.623 -0.3774 -0.2035 -0.6122
 6846TIP3   OH241952   2.932   3.954  14.092 -0.5671  0.5426 -0.4680
 6846TIP3    H141953   2.918   3.911  14.176  0.9066 -0.6405 -0.7776
 6846TIP3    H241954   2.972   4.038  14.114 -1.3809  0.8016  0.0502
 6847TIP3   OH241955   5.629   6.644  13.220 -0.2980 -0.1179  0.3431
 6847TIP3    H141956   5.659   6.667  13.133  0.1092 -0.0335  0.5041
 6847TIP3    H241957   5.555   6.702  13.236 -0.0064  0.2778  0.2848
 6848TIP3   OH241958   4.585   0.680   5.239 -0.5592 -0.5010  0.3437
 6848TIP3    H141959   4.549   0.592   5.224 -0.3806 -0.5049 -0.0795
 6848TIP3    H241960   4.508   0.735   5.257 -0.8958 -0.3200 -1.4698
 6849TIP3   OH241961   5.121   3.250   0.509 -0.7018 -0.5662 -0.2836
 6849TIP3    H141962   5.209   3.254   0.473 -0.9247  0.1701 -0.7761
 6849TIP3    H241963   5.072   3.196   0.446 -0.2424 -2.3802  0.8287
 6850TIP3   OH241964   5.558   0.610   2.361  0.4264 -0.1272  0.3111
 6850TIP3    H141965   5.513   0.527   2.379  0.6371 -0.2862  0.1257
 6850TIP3    H241966   5.541   0.627   2.268 -0.6780  0.7035  0.6505
 6851TIP3   OH241967   6.643   4.737   3.070 -0.0495  0.1297 -0.2227
 6851TIP3    H141968   6.671   4.665   3.126 -0.5894  0.6399  0.7414
 6851TIP3    H241969   6.717   4.798   3.071  1.6748 -1.6855 -3.4793
 6852TIP3   OH241970   6.590   0.896   4.099  0.5125  0.3353 -0.3092
 6852TIP3    H141971   6.636   0.841   4.163  1.1706  1.5841  0.3168
 6852TIP3    H241972   6.634   0.878   4.016  0.9568  0.1726 -0.0439
 6853TIP3   OH241973   1.199   2.370   2.224 -0.1812  0.0740  0.1587
 6853TIP3    H141974   1.142   2.294   2.214 -1.1961  0.7996  0.2942
 6853TIP3    H241975   1.286   2.338   2.201  0.0330 -1.9829  3.1720
 6854TIP3   OH241976   4.692   3.144   2.834 -0.5477  0.6428  0.4308
 6854TIP3    H141977   4.596   3.144   2.835 -0.5855 -1.4795  0.7223
 6854TIP3    H241978   4.715   3.137   2.742 -0.7418 -0.7988  0.4695
 6855TIP3   OH241979   1.756   3.385  14.843  0.3112  0.1492 -0.3614
 6855TIP3    H141980   1.800   3.311  14.801  0.1287 -0.2716  0.1723
 6855TIP3    H241981   1.801   3.395  14.927 -0.7918 -0.4827  0.3222
 6856TIP3   OH241982   0.640   4.279   1.820 -0.2682 -0.6320 -0.0064
 6856TIP3    H141983   0.661   4.365   1.856 -1.5071 -0.9367  1.5698
 6856TIP3    H241984   0.698   4.219   1.867  0.2419 -0.7298 -0.7424
 6857TIP3   OH241985   1.873   3.420  13.682  0.0450  0.3758 -0.2320
 6857TIP3    H141986   1.925   3.341  13.669  1.0602  0.7171  1.5145
 6857TIP3    H241987   1.909   3.484  13.620  1.2320  0.3764  0.4346
 6858TIP3   OH241988   0.364   0.583  11.827 -0.6503  0.0617 -0.1534
 6858TIP3    H141989   0.349   0.489  11.816 -0.4893 -0.0267  0.3657
 6858TIP3    H241990   0.353   0.619  11.739 -1.2884 -0.3614 -0.2557
 6859TIP3   OH241991   3.031   4.393  14.988  0.2906  0.0917  0.2037
 6859TIP3    H141992   2.992   4.478  14.968 -1.9069 -0.6565  1.1034
 6859TIP3    H241993   3.057   4.400  15.080  0.2028 -0.1727  0.2479
 6860TIP3   OH241994   0.344   0.667  11.360  0.2039  0.0419  0.4827
 6860TIP3    H141995   0.317   0.683  11.270 -1.1499 -0.8249  0.7013
 6860TIP3    H241996   0.267   0.688  11.413  0.7353 -0.1619  1.3731
 6861TIP3   OH241997   0.964   5.085  13.520  0.5780  0.1687  0.3067
 6861TIP3    H141998   0.958   5.169  13.475  1.1792 -0.0572 -0.2121
 6861TIP3    H241999   0.908   5.095  13.598  0.3218  0.9004  0.0356
 6862TIP3   OH242000   0.205   1.401   2.606  0.0763  0.8981 -0.4421
 6862TIP3    H142001   0.206   1.311   2.639  2.4235  0.5964 -1.2005
 6862TIP3    H242002   0.116   1.431   2.624 -1.0311 -1.8217 -0.8955
 6863TIP3   OH242003   5.602   0.471   6.463  0.2036  0.0089  0.0416
 6863TIP3    H142004   5.584   0.553   6.509  1.9085 -0.5064  1.7591
 6863TIP3    H242005   5.697   0.462   6.465  0.0347 -2.4965  0.8254
 6864TIP3   OH242006   6.263   0.954   3.420 -0.1199  0.1001 -0.4303
 6864TIP3    H142007   6.319   1.019   3.377  0.6849 -0.7293 -0.6739
 6864TIP3    H242008   6.319   0.916   3.488  0.1255 -1.7727 -1.6263
 6865TIP3   OH242009   0.535   1.439   1.105 -0.0772  0.4749  0.1392
 6865TIP3    H142010   0.621   1.443   1.145 -0.0181 -0.9564  0.2292
 6865TIP3    H242011   0.503   1.351   1.125 -1.6318  1.0290  0.2458
 6866TIP3   OH242012   2.508   2.827   1.809  0.0888  0.5636 -0.9093
 6866TIP3    H142013   2.576   2.791   1.866  0.2145 -0.2708 -1.5535
 6866TIP3    H242014   2.453   2.880   1.867 -0.7434 -1.5477  0.3501
 6867TIP3   OH242015   0.757   4.005   6.401 -0.1427  0.3025 -0.0929
 6867TIP3    H142016   0.835   3.977   6.354 -0.3844 -0.8249  0.1361
 6867TIP3    H242017   0.725   4.081   6.352  0.4448  0.0661 -0.8616
 6868TIP3   OH242018   1.655   4.558   3.569 -0.0719 -0.0324 -0.0562
 6868TIP3    H142019   1.569   4.526   3.596  1.5933 -1.9661  3.8933
 6868TIP3    H242020   1.654   4.651   3.590 -1.5720  0.2897 -1.4077
 6869TIP3   OH242021   1.793   6.730  15.700 -0.0896 -0.2770 -0.2299
 6869TIP3    H142022   1.820   6.810  15.656  3.6210 -1.7756 -0.9989
 6869TIP3    H242023   1.819   6.659  15.641 -2.2216 -2.1733  0.9069
 6870TIP3   OH242024   1.179   1.515  14.948 -0.3819 -0.0751 -0.2237
 6870TIP3    H142025   1.242   1.533  14.878 -2.4271  2.5060 -1.6293
 6870TIP3    H242026   1.144   1.429  14.927  1.5889 -0.8983 -0.2550
 6871TIP3   OH242027   3.179   0.740  15.216  0.6837 -0.0568 -0.4638
 6871TIP3    H142028   3.100   0.794  15.208  0.0120 -1.1043 -1.1830
 6871TIP3    H242029   3.219   0.742  15.129  1.0049 -0.2014 -0.3225
 6872TIP3   OH242030   3.171   3.132  15.884  0.1808 -0.0307  0.2033
 6872TIP3    H142031   3.256   3.134  15.840 -0.6117 -0.0020 -1.3893
 6872TIP3    H242032   3.187   3.174  15.968  1.6965  0.1468 -0.1380
 6873TIP3   OH242033   0.112   4.177  12.949  0.0708  0.0240 -0.2881
 6873TIP3    H142034   0.186   4.202  12.895 -0.2306  0.6619 -0.4183
 6873TIP3    H242035   0.142   4.189  13.039  0.3095 -0.2602 -0.3316
 6874TIP3   OH242036   3.684   6.064   2.732  0.3564  0.3570  0.2702
 6874TIP3    H142037   3.778   6.050   2.721  0.5396  0.2345  1.7247
 6874TIP3    H242038   3.674   6.085   2.825 -1.2219 -1.2025  0.5098
 6875TIP3   OH242039   1.363   2.264  11.491 -0.1239  0.2418 -0.2562
 6875TIP3    H142040   1.340   2.222  11.408 -0.6064 -0.2707  0.1242
 6875TIP3    H242041   1.429   2.205  11.530  0.1392  0.5069 -0.2951
 6876TIP3   OH242042   5.148   1.803   1.399  0.1606 -0.0293  0.2171
 6876TIP3    H142043   5.071   1.812   1.343  0.1434  0.1690  0.2718
 6876TIP3    H242044   5.116   1.822   1.488  0.7312  2.4455 -0.0314
 6877TIP3   OH242045   3.348   3.538   3.937  0.0225 -0.2935 -0.2381
 6877TIP3    H142046   3.368   3.516   3.846 -1.0866 -0.3490 -0.4832
 6877TIP3    H242047   3.394   3.620   3.952 -0.0786 -0.0913 -0.9705
 6878TIP3   OH242048   3.992   1.687   5.608 -0.3842  0.3902  0.3108
 6878TIP3    H142049   3.949   1.741   5.542 -1.5720  0.0755  0.7922
 6878TIP3    H242050   3.941   1.702   5.688 -0.5851 -1.2214  0.5185
 6879TIP3   OH242051   4.030   4.034  16.652  0.3138  0.7131  0.2293
 6879TIP3    H142052   3.997   4.074  16.571  0.3555  0.3539  0.0317
 6879TIP3    H242053   4.072   3.953  16.623  1.1930  1.0593  0.5057
 6880TIP3   OH242054   3.630   6.067  13.226  0.0293 -0.8714 -0.1450
 6880TIP3    H142055   3.621   5.975  13.253 -0.7747 -1.0119 -0.8373
 6880TIP3    H242056   3.646   6.114  13.307 -0.8887 -1.4577  0.3906
 6881TIP3   OH242057   6.091   3.313   1.594  0.8245  0.2498 -0.0101
 6881TIP3    H142058   6.071   3.407   1.592  1.0717  0.3599  1.4644
 6881TIP3    H242059   6.012   3.273   1.630  0.1034 -0.3389 -2.0722
 6882TIP3   OH242060   2.209   6.737  14.802 -0.1972  0.0878 -0.4933
 6882TIP3    H142061   2.245   6.811  14.752 -1.2973 -0.1530 -1.7100
 6882TIP3    H242062   2.211   6.664  14.740  2.2111 -1.3476  1.1239
 6883TIP3   OH242063   4.321   0.226  16.206  0.0771  0.1008  0.5492
 6883TIP3    H142064   4.278   0.167  16.268  0.6266 -0.3045  0.5545
 6883TIP3    H242065   4.285   0.312  16.227 -2.4857 -0.5014 -0.9977
 6884TIP3   OH242066   4.614   6.393   5.416  0.4115  0.7324 -0.0360
 6884TIP3    H142067   4.618   6.331   5.343 -2.2855 -0.8083  0.9631
 6884TIP3    H242068   4.564   6.467   5.381  2.6380  1.9521 -0.8734
 6885TIP3   OH242069   6.291   3.075  16.508  0.2044 -0.1786  0.1287
 6885TIP3    H142070   6.196   3.071  16.517  0.2579 -0.8835  0.4148
 6885TIP3    H242071   6.306   3.150  16.450 -0.5576 -0.4171 -0.4001
 6886TIP3   OH242072   4.540   3.870  14.641 -0.3105 -0.6043 -0.4360
 6886TIP3    H142073   4.457   3.823  14.641  0.1191 -1.6346  2.7933
 6886TIP3    H242074   4.587   3.835  14.717  2.8403  0.3868 -1.7539
 6887TIP3   OH242075   2.334   3.783   2.992 -0.9990  0.0553  0.3938
 6887TIP3    H142076   2.258   3.795   3.050 -1.0582  1.8847  0.0020
 6887TIP3    H242077   2.400   3.843   3.027 -0.2380 -0.4527 -0.1395
 6888TIP3   OH242078   5.804   4.204   1.821 -0.1424 -0.7182 -0.6216
 6888TIP3    H142079   5.733   4.262   1.846  1.1465 -0.5580  3.3264
 6888TIP3    H242080   5.881   4.261   1.816  0.9618 -1.7148  2.4135
 6889TIP3   OH242081   3.802   0.979  12.902 -0.2663 -0.4923 -0.3226
 6889TIP3    H142082   3.826   0.890  12.926 -1.1651 -0.7828 -0.4969
 6889TIP3    H242083   3.781   1.022  12.985 -0.2210 -0.5547 -0.2796
 6890TIP3   OH242084   2.298   0.587  13.297 -0.0899 -0.2091  0.2201
 6890TIP3    H142085   2.298   0.617  13.206 -0.6511  2.2057  0.9459
 6890TIP3    H242086   2.207   0.594  13.325  0.3210  0.6217  1.4238
 6891TIP3   OH242087   4.350   1.671   0.363  0.2073 -0.1242 -0.6062
 6891TIP3    H142088   4.403   1.602   0.322  1.3927  1.3632 -1.6717
 6891TIP3    H242089   4.276   1.683   0.303 -0.7967 -1.4175  0.3126
 6892TIP3   OH242090   4.376   6.722   3.764 -0.4982  0.6942  0.1711
 6892TIP3    H142091   4.472   6.731   3.766 -0.3973 -0.3116  2.0677
 6892TIP3    H242092   4.349   6.777   3.690  1.6284 -0.0420 -1.2726
 6893TIP3   OH242093   0.533   1.720   6.476 -0.4929 -0.0200 -0.1801
 6893TIP3    H142094   0.609   1.700   6.421 -0.3847 -0.5308  0.1458
 6893TIP3    H242095   0.470   1.650   6.455 -0.6130  0.0220  0.0391
 6894TIP3   OH242096   0.491   4.074  10.418 -0.3578  0.1783 -0.1527
 6894TIP3    H142097   0.549   4.150  10.419 -0.1502  0.0229 -0.2567
 6894TIP3    H242098   0.453   4.071  10.505 -0.8421  0.7641 -0.3426
 6895TIP3   OH242099   0.861   3.323  16.039 -0.3261  0.3732  0.3130
 6895TIP3    H142100   0.832   3.234  16.021 -1.8432  0.8017  0.4902
 6895TIP3    H242101   0.950   3.313  16.072  0.4560 -0.8715 -1.9789
 6896TIP3   OH242102   1.818   2.629  15.636 -0.2537 -0.1065 -0.1404
 6896TIP3    H142103   1.724   2.615  15.651  0.2481 -2.7717  0.9613
 6896TIP3    H242104   1.859   2.545  15.658  2.3852  0.9044 -0.8506
 6897TIP3   OH242105   4.661   2.433   1.486 -0.4845 -0.1181 -0.7461
 6897TIP3    H142106   4.601   2.492   1.531  1.1822 -0.4630  2.1370
 6897TIP3    H242107   4.747   2.475   1.494  0.3598 -1.7627 -0.7404
 6898TIP3   OH242108   3.376   2.819  11.492  0.2512 -0.2825  0.4211
 6898TIP3    H142109   3.387   2.855  11.404  0.8851 -0.7430  0.3030
 6898TIP3    H242110   3.422   2.880  11.549  1.0899 -0.7396  0.2535
 6899TIP3   OH242111   2.518   1.820  16.298  0.1259  0.1949  0.3107
 6899TIP3    H142112   2.490   1.884  16.232 -0.2968 -0.0604  0.2409
 6899TIP3    H242113   2.569   1.872  16.361  0.6469  0.4197 -0.2759
 6900TIP3   OH242114   1.830   5.149   0.404 -0.0958  0.5238  0.8228
 6900TIP3    H142115   1.780   5.231   0.408 -1.4860 -0.2460 -0.2054
 6900TIP3    H242116   1.827   5.123   0.312 -0.7655 -1.3250  1.3242
 6901TIP3   OH242117   2.752   2.492   0.115  0.5530  0.2759 -0.0860
 6901TIP3    H142118   2.704   2.417   0.078  0.2673  0.2686  0.2932
 6901TIP3    H242119   2.713   2.568   0.073  0.7006  0.2246 -0.3165
 6902TIP3   OH242120   2.062   3.109  12.814  0.0570 -1.1723  0.4716
 6902TIP3    H142121   2.032   3.152  12.894  1.3467  1.0190 -0.1411
 6902TIP3    H242122   1.982   3.081  12.770 -0.6673 -2.4887  2.5177
 6903TIP3   OH242123   3.277   3.205  13.664 -0.3812  0.0262  0.1532
 6903TIP3    H142124   3.198   3.248  13.632 -1.3424 -1.0069  1.0716
 6903TIP3    H242125   3.309   3.155  13.589  0.2706  1.5805 -0.6718
 6904TIP3   OH242126   3.316   4.917   4.950  0.5407 -0.3127 -0.3082
 6904TIP3    H142127   3.325   4.895   5.042  0.7003 -0.6657 -0.4042
 6904TIP3    H242128   3.223   4.907   4.931  0.4924 -0.1344 -0.1597
 6905TIP3   OH242129   4.287   4.758  10.937  0.0872 -0.3354  0.0245
 6905TIP3    H142130   4.249   4.762  11.025  0.4379  1.2205  0.1255
 6905TIP3    H242131   4.217   4.784  10.878  1.0372  3.2756  0.2682
 6906TIP3   OH242132   5.741   6.791  12.110 -0.2674 -0.3466 -0.1389
 6906TIP3    H142133   5.711   6.736  12.182  0.1793  1.2378  1.3409
 6906TIP3    H242134   5.670   6.854  12.097 -0.9426 -1.4250 -2.0700
 6907TIP3   OH242135   1.193   0.634   6.753  0.3004  0.6736  0.1818
 6907TIP3    H142136   1.238   0.704   6.706  2.8138 -0.7430  0.3132
 6907TIP3    H242137   1.128   0.601   6.691  0.7581  1.5130 -0.7710
 6908TIP3   OH242138   6.165   2.788   2.713 -0.0343  0.3299  0.2723
 6908TIP3    H142139   6.161   2.855   2.781 -0.3171 -0.7611  1.3671
 6908TIP3    H242140   6.091   2.730   2.732  0.2163 -0.3055 -0.6302
 6909TIP3   OH242141   3.787   4.588  15.936  0.1282 -0.3609 -0.3474
 6909TIP3    H142142   3.764   4.676  15.965 -0.3669 -0.4061 -0.6055
 6909TIP3    H242143   3.788   4.536  16.016  0.4917 -0.1115 -0.1848
 6910TIP3   OH242144   1.188   3.235  14.991 -0.6319  0.5208  0.5877
 6910TIP3    H142145   1.277   3.231  14.957 -0.5737  0.7338  0.7162
 6910TIP3    H242146   1.195   3.283  15.074 -0.7824  0.0726  0.8680
 6911TIP3   OH242147   3.429   1.811  15.826  0.1980 -0.0091 -0.1961
 6911TIP3    H142148   3.456   1.841  15.913  0.2468 -0.4260 -0.0630
 6911TIP3    H242149   3.476   1.868  15.765  0.2572  0.2079  0.0528
 6912TIP3   OH242150   2.084   0.453  10.815 -0.2900 -0.6548 -0.5541
 6912TIP3    H142151   2.179   0.460  10.807 -0.0657 -1.4522  1.0504
 6912TIP3    H242152   2.059   0.387  10.751  0.1896 -0.2346 -1.1893
 6913TIP3   OH242153   2.643   3.114   6.678 -0.4834 -0.2802  0.2588
 6913TIP3    H142154   2.719   3.056   6.676  0.7826  1.2243 -3.0699
 6913TIP3    H242155   2.665   3.182   6.741  0.5797 -0.3671 -0.0067
 6914TIP3   OH242156   0.521   5.559   2.427 -0.4146  0.3393 -0.0494
 6914TIP3    H142157   0.528   5.520   2.514 -1.5921  3.3485  1.5556
 6914TIP3    H242158   0.565   5.644   2.435 -1.6071  1.2310 -2.0368
 6915TIP3   OH242159   2.737   5.837   5.280 -0.3964 -0.3854 -0.7734
 6915TIP3    H142160   2.832   5.838   5.291 -0.4505  1.6071 -0.1349
 6915TIP3    H242161   2.721   5.768   5.215  1.4205 -1.0992 -0.5152
 6916TIP3   OH242162   3.054   4.754   3.284 -0.5275 -0.0178  0.5940
 6916TIP3    H142163   3.126   4.815   3.290 -0.6634  0.2158 -0.1443
 6916TIP3    H242164   3.095   4.669   3.268 -0.4622  0.3090 -1.1105
 6917TIP3   OH242165   0.100   0.172  12.829 -0.2986 -0.3873  0.1734
 6917TIP3    H142166   0.181   0.177  12.779 -0.3993 -1.7810 -0.1906
 6917TIP3    H242167   0.032   0.198  12.766 -0.1845  0.4008  0.3656
 6918TIP3   OH242168   4.221   0.533   5.111  0.4601 -0.2928  0.0454
 6918TIP3    H142169   4.202   0.627   5.116 -0.1826 -0.4661  1.5796
 6918TIP3    H242170   4.145   0.491   5.153  1.1824 -1.4397  0.2541
 6919TIP3   OH242171   0.951   0.350   0.827  0.2248  0.5083  0.1466
 6919TIP3    H142172   0.865   0.388   0.810 -0.8545 -2.6579 -2.5193
 6919TIP3    H242173   1.000   0.366   0.746  0.1872 -2.2146 -0.5273
 6920TIP3   OH242174   3.584   6.218  14.956  0.1502  0.3808  0.4864
 6920TIP3    H142175   3.620   6.192  14.871  2.9067  2.0855  1.0029
 6920TIP3    H242176   3.584   6.138  15.008  0.8454 -0.1871 -0.3557
 6921TIP3   OH242177   0.581   1.967  15.125 -0.1687 -0.3966 -0.8210
 6921TIP3    H142178   0.640   2.032  15.088  1.3244 -2.1649 -1.7177
 6921TIP3    H242179   0.545   1.921  15.048 -0.4876 -1.2033 -0.2084
 6922TIP3   OH242180   6.763   3.937   4.401  0.5585 -0.6910  0.6967
 6922TIP3    H142181   6.816   3.859   4.415  1.5139 -0.5100 -1.5569
 6922TIP3    H242182   6.827   4.008   4.392 -0.1607 -0.1097  0.0616
 6923TIP3   OH242183   2.101   1.445  12.928  0.3810  0.2654 -0.9671
 6923TIP3    H142184   2.157   1.492  12.990 -0.6412  1.9159 -1.2144
 6923TIP3    H242185   2.160   1.414  12.861  1.3757 -0.6532  0.2814
 6924TIP3   OH242186   3.123   6.691   1.575 -0.6787  0.3827 -0.5613
 6924TIP3    H142187   3.178   6.764   1.548 -0.3505  0.5352  0.4692
 6924TIP3    H242188   3.033   6.722   1.559 -0.5211  0.7787 -0.6917
 6925TIP3   OH242189   4.778   4.437   5.922  0.2002 -0.2132 -0.0608
 6925TIP3    H142190   4.733   4.484   5.852 -1.3397 -1.0415  0.3228
 6925TIP3    H242191   4.714   4.371   5.952  1.0452 -0.3070  1.6757
 6926TIP3   OH242192   4.335   2.719   4.352  0.5378  0.3710 -0.1631
 6926TIP3    H142193   4.403   2.705   4.418  0.4705 -1.5414 -0.4531
 6926TIP3    H242194   4.276   2.783   4.392  0.4295 -0.8214  1.7275
 6927TIP3   OH242195   0.623   4.058  13.274 -0.6115 -0.2763  0.6802
 6927TIP3    H142196   0.598   4.075  13.183  0.4190 -2.6436 -0.1496
 6927TIP3    H242197   0.618   3.963  13.282  1.1665 -0.2770  2.5259
 6928TIP3   OH242198   2.616   3.068   0.520  0.1789 -0.4898 -0.7355
 6928TIP3    H142199   2.696   3.017   0.504  0.2061 -0.7777  0.2531
 6928TIP3    H242200   2.550   3.002   0.541 -0.7407 -0.3868 -2.9808
 6929TIP3   OH242201   3.034   2.409  16.003 -0.2686 -0.3455  0.3869
 6929TIP3    H142202   3.094   2.373  15.938 -0.1720 -0.6223  0.6220
 6929TIP3    H242203   2.948   2.409  15.961  0.2431  2.2862 -0.8220
 6930TIP3   OH242204   5.408   0.202   1.939  0.2457 -0.3548 -0.4543
 6930TIP3    H142205   5.379   0.123   1.985  0.9752 -1.6692 -2.1304
 6930TIP3    H242206   5.502   0.190   1.928  0.2332  0.3384 -1.4524
 6931TIP3   OH242207   0.669   1.253  14.784 -0.9896 -0.1113 -0.0005
 6931TIP3    H142208   0.687   1.194  14.857 -1.3448 -2.3202 -1.5825
 6931TIP3    H242209   0.702   1.207  14.707 -2.1010  1.3691 -1.4520
 6932TIP3   OH242210   5.744   2.677   1.169 -0.3640  0.4898 -0.0218
 6932TIP3    H142211   5.684   2.732   1.118 -0.5591  0.6059  0.3254
 6932TIP3    H242212   5.708   2.679   1.258 -0.8585 -0.8757 -0.1582
 6933TIP3   OH242213   3.981   2.334  13.445  0.1591 -0.8905  0.0004
 6933TIP3    H142214   3.913   2.369  13.503  1.4636  0.1584  0.9792
 6933TIP3    H242215   4.004   2.407  13.387  0.6724 -1.1181 -0.0928
 6934TIP3   OH242216   6.151   5.820  12.441  0.0273 -0.2379 -0.5235
 6934TIP3    H142217   6.149   5.901  12.388 -0.3238 -0.3538 -0.6932
 6934TIP3    H242218   6.243   5.798  12.447  0.4651  1.8041  2.0382
 6935TIP3   OH242219   6.658   3.980   5.538 -0.0274 -0.0812 -0.6221
 6935TIP3    H142220   6.594   4.051   5.542  0.5657  0.4204  2.2371
 6935TIP3    H242221   6.614   3.905   5.577  0.3940 -0.3482 -0.6469
 6936TIP3   OH242222   3.146   1.768   1.154  0.3263 -0.0407  0.5638
 6936TIP3    H142223   3.122   1.795   1.242  0.2687  1.5266  0.0897
 6936TIP3    H242224   3.232   1.727   1.165  0.7019  0.8902  1.2473
 6937TIP3   OH242225   6.517   4.514   3.999  0.1613 -0.1988 -0.3920
 6937TIP3    H142226   6.585   4.470   4.049  0.3424 -0.8399 -1.1920
 6937TIP3    H242227   6.454   4.543   4.065  1.7552  1.4418  0.4924
 6938TIP3   OH242228   3.022   5.176   2.333 -0.6849  0.5104 -0.2103
 6938TIP3    H142229   3.027   5.222   2.417  1.6835 -2.6035  1.5947
 6938TIP3    H242230   2.936   5.134   2.334  0.3195 -1.8207  2.2231
 6939TIP3   OH242231   2.213   1.813  13.266 -0.7341  0.9221  0.7058
 6939TIP3    H142232   2.205   1.778  13.355  3.5290 -0.6479  0.7108
 6939TIP3    H242233   2.232   1.906  13.280  0.9161  0.5009  1.6086
 6940TIP3   OH242234   4.593   6.014  12.234  0.7909  0.0060 -0.5894
 6940TIP3    H142235   4.520   5.975  12.187 -0.7452  1.2489  0.6666
 6940TIP3    H242236   4.554   6.053  12.312  2.7554  0.9544 -0.0045
 6941TIP3   OH242237   0.406   1.504  16.815 -0.0814  0.4856  0.5103
 6941TIP3    H142238   0.377   1.497  16.906  0.2239  0.3124  0.5970
 6941TIP3    H242239   0.458   1.425  16.800  0.1720  0.6929  0.2945
 6942TIP3   OH242240   4.514   4.736   0.006  0.1182 -0.1630 -0.0948
 6942TIP3    H142241   4.487   4.779  -0.076 -1.0757  0.5069  0.6247
 6942TIP3    H242242   4.524   4.644  -0.017  0.4976  0.1309 -1.1562
 6943TIP3   OH242243   2.665   5.242   5.316  0.0312 -0.2204  0.8542
 6943TIP3    H142244   2.744   5.213   5.362  0.3579  0.3281  0.6521
 6943TIP3    H242245   2.666   5.338   5.325  0.6904  0.0178 -1.1903
 6944TIP3   OH242246   2.791   0.907  16.222 -0.4772 -0.6535  0.1260
 6944TIP3    H142247   2.762   0.957  16.145 -1.6152 -2.1012 -0.4279
 6944TIP3    H242248   2.731   0.932  16.292  1.5626  1.9462  1.1245
 6945TIP3   OH242249   5.507   3.725  12.596 -0.1881  0.0994 -0.1159
 6945TIP3    H142250   5.484   3.733  12.504  1.8262 -3.4065 -1.1075
 6945TIP3    H242251   5.472   3.640  12.623  1.2840 -0.0275  1.6332
 6946TIP3   OH242252   6.772   4.957  15.662 -0.1552 -0.2461  0.5677
 6946TIP3    H142253   6.830   4.881  15.656 -0.9405 -0.8757  0.8053
 6946TIP3    H242254   6.777   4.983  15.754  0.7417  0.5153  0.3267
 6947TIP3   OH242255   2.497   1.823   0.251 -0.0809  0.0682 -0.1862
 6947TIP3    H142256   2.564   1.755   0.263  1.5433  1.4562 -0.9007
 6947TIP3    H242257   2.459   1.804   0.165 -0.6240 -0.7352  0.2247
 6948TIP3   OH242258   0.500   0.073   4.026  0.8640 -0.0583 -0.2752
 6948TIP3    H142259   0.545   0.071   3.943  1.4526  0.6338  0.0170
 6948TIP3    H242260   0.569   0.074   4.092  0.4183 -2.3782  0.3054
 6949TIP3   OH242261   4.069   2.834  12.291  0.1450 -0.2259 -0.1203
 6949TIP3    H142262   3.992   2.821  12.346  0.6923 -0.7707  0.5541
 6949TIP3    H242263   4.040   2.812  12.203  0.0141 -2.5212  0.4117
 6950TIP3   OH242264   1.960   1.252   1.398  0.1111 -0.3598  0.3070
 6950TIP3    H142265   1.867   1.229   1.399  0.6117 -2.5461  1.0429
 6950TIP3    H242266   1.965   1.331   1.452 -1.5426  0.9647 -1.3530
 6951TIP3   OH242267   0.462   5.325  13.439 -0.6694  0.0255 -0.2020
 6951TIP3    H142268   0.375   5.298  13.469 -0.0923 -1.0389  0.5705
 6951TIP3    H242269   0.517   5.319  13.517  1.0171 -3.3223 -1.4850
 6952TIP3   OH242270   2.128   4.929  11.414 -0.0190 -0.2155 -0.1783
 6952TIP3    H142271   2.164   4.949  11.328 -0.2069  1.4379  0.0836
 6952TIP3    H242272   2.203   4.938  11.474 -0.3477  0.9815  0.0888
 6953TIP3   OH242273   6.517   0.381   1.036 -0.6282  0.2421  0.4381
 6953TIP3    H142274   6.451   0.313   1.022 -1.5236  0.9502  1.1200
 6953TIP3    H242275   6.598   0.332   1.051 -1.3528 -0.7055  1.4461
 6954TIP3   OH242276   6.101   5.092   5.502 -0.0163  0.5560  0.2468
 6954TIP3    H142277   6.016   5.101   5.458 -0.2500 -0.7100  0.4160
 6954TIP3    H242278   6.096   5.154   5.575 -1.2453 -0.2912  0.9261
 6955TIP3   OH242279   2.120   4.474   2.665  0.1219  0.2771  0.6691
 6955TIP3    H142280   2.143   4.551   2.614  2.3155  0.6298  2.1021
 6955TIP3    H242281   2.089   4.411   2.599  0.4703  1.5657 -0.7876
 6956TIP3   OH242282   6.046   6.055   1.323 -0.1630  0.2084  0.2896
 6956TIP3    H142283   6.057   5.984   1.387 -0.3382 -0.3715 -0.3179
 6956TIP3    H242284   6.106   6.033   1.252 -0.0452  0.8017  0.1955
 6957TIP3   OH242285   4.468   6.074   1.715  0.5004  0.5119 -0.6202
 6957TIP3    H142286   4.403   6.143   1.705  0.8761  1.3653  2.0464
 6957TIP3    H242287   4.536   6.096   1.651 -0.7683  0.8376 -1.9082
 6958TIP3   OH242288   1.485   3.108   4.218  0.5267 -0.1468 -0.3739
 6958TIP3    H142289   1.518   3.052   4.148  2.0635 -0.5982  0.6912
 6958TIP3    H242290   1.410   3.153   4.178  0.4992 -1.4311 -1.8642
 6959TIP3   OH242291   4.281   0.288   3.297  0.5641 -0.2010 -0.2693
 6959TIP3    H142292   4.366   0.328   3.314  0.5241 -0.1737 -0.1322
 6959TIP3    H242293   4.257   0.320   3.210  0.2933  0.4903  0.0553
 6960TIP3   OH242294   6.203   3.494   0.813 -0.0385  0.1476 -0.3865
 6960TIP3    H142295   6.273   3.468   0.874 -1.3646 -0.4172  0.9541
 6960TIP3    H242296   6.154   3.413   0.797 -0.9016  0.7028 -0.6004
 6961TIP3   OH242297   3.306   1.188   2.056 -0.1159 -0.5374 -0.1259
 6961TIP3    H142298   3.339   1.278   2.052 -0.5830 -0.3321  0.4842
 6961TIP3    H242299   3.271   1.171   1.969 -0.2501 -0.0415 -0.1722
 6962TIP3   OH242300   1.680   3.161  15.798 -0.0820 -0.1037  0.3477
 6962TIP3    H142301   1.617   3.210  15.853  2.3967  1.3946  2.0642
 6962TIP3    H242302   1.701   3.222  15.727  0.4151 -0.0769  0.5205
 6963TIP3   OH242303   6.619   2.226  12.436  0.8079 -0.0951  0.6024
 6963TIP3    H142304   6.604   2.320  12.423  1.0129 -0.1361  0.0521
 6963TIP3    H242305   6.681   2.202  12.367  0.6144 -0.6725  0.6271
 6964TIP3   OH242306   6.731   6.569   4.323 -0.1687  0.0716 -0.6201
 6964TIP3    H142307   6.639   6.595   4.329  0.3245  1.8304 -0.1789
 6964TIP3    H242308   6.740   6.497   4.386 -1.1495  0.1724 -0.3557
 6965TIP3   OH242309   1.883   2.924   2.439  0.3938 -0.3745 -0.3633
 6965TIP3    H142310   1.909   2.843   2.396  0.4063 -0.6620  0.1704
 6965TIP3    H242311   1.854   2.896   2.526  0.4222  0.1979 -0.1680
 6966TIP3   OH242312   6.147   3.884  11.801  0.1652  0.1407  0.0799
 6966TIP3    H142313   6.144   3.891  11.705  1.1771 -0.0345  0.0302
 6966TIP3    H242314   6.091   3.808  11.821 -0.2555  0.3329 -0.3439
 6967TIP3   OH242315   0.790   0.875  13.277 -0.0749  0.0444 -0.0781
 6967TIP3    H142316   0.807   0.782  13.290  0.6277  0.2011  0.1485
 6967TIP3    H242317   0.714   0.893  13.333  1.3198  0.1324  1.9109
 6968TIP3   OH242318   1.359   2.371  13.596  0.1296  0.0330  0.1226
 6968TIP3    H142319   1.283   2.313  13.603 -0.3110  0.7117  1.5760
 6968TIP3    H242320   1.434   2.314  13.608 -0.2761 -0.3375  1.0269
 6969TIP3   OH242321   2.416   0.136  17.009 -0.2625  0.1382 -0.1289
 6969TIP3    H142322   2.476   0.177  16.947 -0.8032 -2.0581 -2.2373
 6969TIP3    H242323   2.331   0.137  16.964 -0.5603 -1.9716  0.3095
 6970TIP3   OH242324   6.237   1.516  15.414 -0.0420 -0.0708 -0.0703
 6970TIP3    H142325   6.304   1.489  15.352 -1.0973 -0.2595 -1.1518
 6970TIP3    H242326   6.179   1.574  15.364  0.3936  1.7182  1.3567
 6971TIP3   OH242327   1.963   4.030  16.081 -0.0347 -0.0501  0.1578
 6971TIP3    H142328   1.896   4.014  16.015  0.2759 -0.9447  0.0460
 6971TIP3    H242329   2.032   3.967  16.060  0.7776  0.7488  0.3598
 6972TIP3   OH242330   2.486   3.910  16.722  0.1538 -0.2184 -0.0423
 6972TIP3    H142331   2.509   3.960  16.643  0.6690  0.7802  0.7141
 6972TIP3    H242332   2.467   3.977  16.788 -2.3239 -1.0114  0.1518
 6973TIP3   OH242333   1.689   5.702   1.631  0.4443 -0.4075 -0.4543
 6973TIP3    H142334   1.668   5.763   1.560  0.0379  0.3626  0.3094
 6973TIP3    H242335   1.784   5.710   1.643  0.9050 -2.1546 -2.3347
 6974TIP3   OH242336   2.611   4.425  11.616 -0.0342 -0.1723 -0.0756
 6974TIP3    H142337   2.597   4.361  11.684 -1.2893 -0.2280 -0.3739
 6974TIP3    H242338   2.707   4.432  11.609  0.1386 -2.3268 -0.3507
 6975TIP3   OH242339   0.245   2.988  14.458  0.2436  0.2587  0.1184
 6975TIP3    H142340   0.198   3.031  14.386 -0.1658  0.3149  0.4177
 6975TIP3    H242341   0.183   2.988  14.531  0.5591 -0.0460  0.3908
 6976TIP3   OH242342   6.256   5.643  15.199 -0.0759  0.3939  0.3321
 6976TIP3    H142343   6.296   5.714  15.249  0.7163  1.3226 -1.5546
 6976TIP3    H242344   6.163   5.647  15.223  0.4955 -0.4322  3.1321
 6977TIP3   OH242345   3.239   3.654  12.092 -0.1837  0.3315  0.2193
 6977TIP3    H142346   3.225   3.567  12.055  0.1964  0.4664 -0.2463
 6977TIP3    H242347   3.328   3.652  12.126 -0.1674  0.5477  0.1920
 6978TIP3   OH242348   0.258   2.556  12.874 -0.1520  0.3800  0.4844
 6978TIP3    H142349   0.196   2.490  12.842  0.6124 -0.2862  0.3500
 6978TIP3    H242350   0.203   2.623  12.913 -0.9898  0.0751 -0.1464
 6979TIP3   OH242351   2.079   5.020  12.589 -0.2703  0.9131 -0.4110
 6979TIP3    H142352   1.997   5.065  12.568  0.5825  1.6345 -2.4583
 6979TIP3    H242353   2.092   4.958  12.517  0.4014 -0.0643  0.5105
 6980TIP3   OH242354   0.097   3.604  14.007  0.0538  0.3428 -0.0051
 6980TIP3    H142355   0.073   3.677  13.950  0.1356 -0.7818 -1.5284
 6980TIP3    H242356   0.178   3.569  13.970 -0.5884 -1.2331  0.0077
 6981TIP3   OH242357   0.726   2.828  14.460  0.3770  0.8782 -0.3205
 6981TIP3    H142358   0.672   2.803  14.535  2.5798 -1.4313  0.6518
 6981TIP3    H242359   0.783   2.897  14.493 -1.0381  2.4313 -0.9903
 6982TIP3   OH242360   2.408   6.358  16.242 -0.3149 -0.1846 -0.1857
 6982TIP3    H142361   2.399   6.445  16.281 -0.2020 -0.8627  1.4424
 6982TIP3    H242362   2.391   6.298  16.315  1.8524 -1.5279 -0.7095
 6983TIP3   OH242363   1.827   5.227  10.773  0.3248 -0.2597  0.7865
 6983TIP3    H142364   1.803   5.319  10.786  2.0791  0.3333  0.1148
 6983TIP3    H242365   1.744   5.182  10.762 -0.5549  1.6237 -1.1414
 6984TIP3   OH242366   3.999   2.152  12.737  0.3017 -0.0494 -0.0423
 6984TIP3    H142367   3.986   2.171  12.644  0.7591 -0.3864 -0.1767
 6984TIP3    H242368   3.913   2.124  12.768 -0.3674  2.0053  0.1090
 6985TIP3   OH242369   5.874   1.713   3.355 -0.2956 -0.0501  0.0860
 6985TIP3    H142370   5.827   1.635   3.385 -1.1914  0.5070  0.1761
 6985TIP3    H242371   5.806   1.768   3.316  0.0105  1.3977  1.4770
 6986TIP3   OH242372   1.174   4.423   5.817  0.7745 -0.0734  0.3955
 6986TIP3    H142373   1.210   4.441   5.904  1.7704  0.1099 -0.0420
 6986TIP3    H242374   1.209   4.337   5.794  0.9675  0.1233 -0.0515
 6987TIP3   OH242375   3.426   0.266   2.319 -0.1669  0.0370  0.5702
 6987TIP3    H142376   3.502   0.211   2.339 -0.0356 -0.7875 -1.8136
 6987TIP3    H242377   3.350   0.211   2.342 -0.0397 -1.3468 -1.9191
 6988TIP3   OH242378   0.944   2.978  14.581 -0.4251  0.5858 -0.2554
 6988TIP3    H142379   1.017   2.916  14.573  0.1712  1.2274  0.0679
 6988TIP3    H242380   0.894   2.948  14.656  0.0938  0.7247  0.1509
 6989TIP3   OH242381   2.821   0.746   2.956 -0.4081  0.1239 -0.3402
 6989TIP3    H142382   2.883   0.786   2.894 -0.2319 -0.4556 -0.5451
 6989TIP3    H242383   2.831   0.652   2.942  0.9872 -0.1227  1.8402
 6990TIP3   OH242384   1.639   1.799  16.113 -0.3357 -0.7229 -0.6459
 6990TIP3    H142385   1.726   1.835  16.100 -0.5777  0.0494 -0.2022
 6990TIP3    H242386   1.581   1.876  16.113 -1.1138 -1.2721 -1.6920
 6991TIP3   OH242387   3.171   1.000  16.929 -0.1538  0.1821 -0.0952
 6991TIP3    H142388   3.148   1.078  16.980  0.6205  0.4821 -0.1894
 6991TIP3    H242389   3.196   0.935  16.995 -2.4305 -0.5835  0.0946
 6992TIP3   OH242390   5.260   6.006   0.217 -0.2560  0.3278  0.4320
 6992TIP3    H142391   5.342   5.990   0.264 -0.0990  2.9306  1.1691
 6992TIP3    H242392   5.196   5.950   0.262  0.8404 -0.7962  0.6536
 6993TIP3   OH242393   5.104   4.485   2.365 -0.0578  0.2107  0.5646
 6993TIP3    H142394   5.015   4.495   2.399 -0.9695  2.7744 -2.1632
 6993TIP3    H242395   5.153   4.556   2.406 -0.0440  0.6102 -0.1310
 6994TIP3   OH242396   3.985   3.282   1.385 -0.0218 -0.0719  0.0932
 6994TIP3    H142397   4.021   3.303   1.299 -2.8078 -0.4599 -1.2856
 6994TIP3    H242398   3.972   3.367   1.427  1.7890  0.0983  0.3889
 6995TIP3   OH242399   5.143   5.365   3.367  0.1346 -0.0392  0.0483
 6995TIP3    H142400   5.087   5.329   3.435  0.8881  1.0958  1.3266
 6995TIP3    H242401   5.083   5.395   3.299 -0.6067 -1.6509 -0.0496
 6996TIP3   OH242402   5.869   5.336  14.624 -0.1180 -0.0454  0.1370
 6996TIP3    H142403   5.959   5.353  14.595 -0.3972 -0.9094 -1.3682
 6996TIP3    H242404   5.829   5.289  14.551 -1.8700  0.4933  0.6906
 6997TIP3   OH242405   1.031   2.355  12.946 -0.7517  0.1263 -0.1001
 6997TIP3    H142406   0.973   2.361  12.869  0.0179 -0.5953 -0.7497
 6997TIP3    H242407   1.116   2.332  12.910 -0.4021 -0.3344  0.9929
 6998TIP3   OH242408   3.905   0.958  14.914 -0.3248  0.2155  0.1861
 6998TIP3    H142409   3.938   1.025  14.975 -1.2081  0.2657  0.6122
 6998TIP3    H242410   3.965   0.964  14.839  0.5015  0.4610  0.8433
 6999TIP3   OH242411   5.893   0.815   3.095  0.3356 -0.1055  0.6140
 6999TIP3    H142412   5.926   0.901   3.069 -2.8563  1.6288  1.7361
 6999TIP3    H242413   5.830   0.792   3.026 -1.7736  0.4511  2.2340
 7000TIP3   OH242414   3.478   1.375  13.443  0.3921  0.5339 -0.7550
 7000TIP3    H142415   3.536   1.302  13.420  1.2898  1.3666 -1.1928
 7000TIP3    H242416   3.392   1.335  13.452  1.1872 -0.9264  0.9235
 7001TIP3   OH242417   2.745   4.719  11.923 -0.0062 -0.2540  0.0689
 7001TIP3    H142418   2.747   4.815  11.923  0.4104 -0.2581  0.1172
 7001TIP3    H242419   2.783   4.694  11.839  0.3295 -0.3797  0.2575
 7002TIP3   OH242420   4.356   1.465  16.234  0.0188 -0.1922  0.3399
 7002TIP3    H142421   4.272   1.448  16.192 -0.6902 -1.3783  2.0780
 7002TIP3    H242422   4.386   1.548  16.198 -1.1983 -0.4665 -1.3811
 7003TIP3   OH242423   1.360   6.339  16.884 -0.0141  0.1398 -0.1143
 7003TIP3    H142424   1.316   6.339  16.969  0.5310 -1.8853  0.2132
 7003TIP3    H242425   1.289   6.348  16.820 -0.3849  2.2141  0.5179
 7004TIP3   OH242426   0.773   1.635  13.189 -0.8883 -0.6995 -0.0677
 7004TIP3    H142427   0.808   1.724  13.198 -2.4932  0.2124 -1.8627
 7004TIP3    H242428   0.829   1.593  13.125  0.6940 -1.5080  1.7756
 7005TIP3   OH242429   3.860   6.199   3.261  0.1999  0.2312 -0.2908
 7005TIP3    H142430   3.880   6.152   3.180  0.7106 -0.1815  0.0669
 7005TIP3    H242431   3.771   6.171   3.283 -0.3801  1.1980 -1.2845
 7006TIP3   OH242432   3.665   2.527  11.766  0.2669 -0.0181 -0.4915
 7006TIP3    H142433   3.628   2.612  11.742 -0.2518 -0.2945 -0.6985
 7006TIP3    H242434   3.726   2.546  11.837 -0.0484  0.4937 -0.3545
 7007TIP3   OH242435   0.613   2.346  12.228 -0.0474  0.3186  0.0088
 7007TIP3    H142436   0.597   2.297  12.147  2.2599 -0.9314  0.2333
 7007TIP3    H242437   0.687   2.301  12.269 -0.0244  1.9938  1.9485
 7008TIP3   OH242438   3.785   1.672  12.843 -0.1584  0.3624  0.3255
 7008TIP3    H142439   3.855   1.614  12.875  0.7507  1.1583 -0.1735
 7008TIP3    H242440   3.831   1.743  12.800 -1.2393  1.7529  1.3761
 7009TIP3   OH242441   5.767   0.546  10.912 -0.1179  0.0674 -0.1894
 7009TIP3    H142442   5.767   0.452  10.893  0.6964 -0.0956  0.5455
 7009TIP3    H242443   5.726   0.586  10.835  0.4284 -0.8091 -0.9605
 7010TIP3   OH242444   2.958   0.979   3.788 -0.4385 -0.6030 -0.0945
 7010TIP3    H142445   2.925   0.973   3.877  1.6875  1.0744  0.9172
 7010TIP3    H242446   3.047   0.944   3.793  1.0417  2.6490 -0.6202
 7011TIP3   OH242447   5.381   3.424  11.330  0.3640  0.0615 -0.6724
 7011TIP3    H142448   5.364   3.407  11.237  0.9117 -1.9715 -0.4586
 7011TIP3    H242449   5.414   3.340  11.363  1.9901  1.2771  0.9393
 7012TIP3   OH242450   5.683   1.448  14.394 -0.6543 -0.0346  0.0495
 7012TIP3    H142451   5.704   1.481  14.482  0.3724 -1.0729  0.2125
 7012TIP3    H242452   5.602   1.398  14.407 -1.5729  1.3674  0.0164
 7013TIP3   OH242453   4.174   6.478  15.430 -0.5897 -0.3659 -0.1402
 7013TIP3    H142454   4.079   6.471  15.436 -0.6260  0.2070  0.0466
 7013TIP3    H242455   4.200   6.403  15.377 -1.1636 -0.4211 -0.3571
 7014TIP3   OH242456   2.690   2.098  10.725  0.1492 -0.1300  0.5778
 7014TIP3    H142457   2.763   2.039  10.706 -0.3324 -0.8960  1.0205
 7014TIP3    H242458   2.724   2.158  10.791  0.1354 -1.0160  1.4038
 7015TIP3   OH242459   4.147   3.877   4.422 -0.2907 -0.2678  0.0859
 7015TIP3    H142460   4.201   3.870   4.501 -0.5085 -0.4983  0.2169
 7015TIP3    H242461   4.138   3.787   4.391 -1.6478 -0.4041  0.7797
 7016TIP3   OH242462   4.117   5.166   3.951  0.2097 -0.0758  0.0864
 7016TIP3    H142463   4.065   5.162   4.031  1.1211  0.1733  0.6982
 7016TIP3    H242464   4.081   5.096   3.896 -1.6467  0.9088 -0.0558
 7017TIP3   OH242465   0.037   4.918   5.478  0.0146 -0.7570  0.3309
 7017TIP3    H142466  -0.006   4.838   5.447  0.6127 -0.8909 -0.1775
 7017TIP3    H242467  -0.035   4.978   5.496 -0.3995 -1.0552 -0.2837
 7018TIP3   OH242468   4.887   4.244   5.390  0.2937 -0.2051 -0.1435
 7018TIP3    H142469   4.884   4.185   5.465  0.6438 -1.5396 -1.1415
 7018TIP3    H242470   4.828   4.316   5.413 -0.1238 -0.9254  1.1173
 7019TIP3   OH242471   6.028   4.931   1.381 -0.1538  0.0803  0.1039
 7019TIP3    H142472   6.099   4.984   1.345 -0.3750  0.7321  0.6127
 7019TIP3    H242473   5.973   4.993   1.429 -0.3001 -0.6404  0.8894
 7020TIP3   OH242474   4.735   4.594   1.394 -0.2052  0.4845  0.3321
 7020TIP3    H142475   4.816   4.557   1.428 -1.0672 -0.3235  1.6338
 7020TIP3    H242476   4.727   4.558   1.306  1.4364  1.5632 -0.2999
 7021TIP3   OH242477   2.907   1.574   2.654 -0.1410 -0.3588 -0.2282
 7021TIP3    H142478   2.874   1.567   2.565 -1.2893  0.4673  0.1001
 7021TIP3    H242479   2.917   1.668   2.668 -2.6648 -0.2308  1.3967
 7022TIP3   OH242480   4.262   4.429   5.902  0.0942  0.3602 -0.0974
 7022TIP3    H142481   4.174   4.393   5.887  0.2539  0.1142 -0.4460
 7022TIP3    H242482   4.247   4.521   5.921 -0.2849  0.2084  0.3735
 7023TIP3   OH242483   6.038   5.051  17.234  0.0585 -0.2672  0.3865
 7023TIP3    H142484   6.132   5.038  17.223  0.4515  0.6738  2.2210
 7023TIP3    H242485   6.021   5.138  17.198  0.3591  0.5090  1.9806
 7024TIP3   OH242486   1.450   4.649   3.248  0.0724  0.3790  0.1857
 7024TIP3    H142487   1.491   4.732   3.224 -0.0518  0.6161  0.7693
 7024TIP3    H242488   1.523   4.589   3.260  0.0780 -0.2139 -2.3934
 7025TIP3   OH242489   1.895   0.703   3.642  0.3625 -0.2794  0.0702
 7025TIP3    H142490   1.903   0.688   3.548  0.2521  0.1038 -0.0013
 7025TIP3    H242491   1.805   0.680   3.662  0.9952 -2.6569  0.5176
 7026TIP3   OH242492   6.256   5.711   2.343 -0.0552  0.2696 -0.2638
 7026TIP3    H142493   6.318   5.759   2.399  3.2673 -1.1896 -2.3430
 7026TIP3    H242494   6.229   5.636   2.397 -0.4784  1.1925  0.8607
 7027TIP3   OH242495   5.584   0.883  13.679 -0.4323 -0.7684  0.5040
 7027TIP3    H142496   5.634   0.878  13.760  1.7141 -1.9884 -0.7912
 7027TIP3    H242497   5.501   0.841  13.700  0.5563 -2.2251  1.7714
 7028TIP3   OH242498   0.872   4.683  13.272  0.1192 -0.0351 -0.3166
 7028TIP3    H142499   0.930   4.665  13.346 -0.5721 -0.2586  0.1830
 7028TIP3    H242500   0.784   4.680  13.309 -0.1630  2.7336 -0.5547
 7029TIP3   OH242501   4.721   4.546   4.683 -0.5101 -0.2961 -0.6383
 7029TIP3    H142502   4.702   4.458   4.650 -0.7507  0.0954 -1.5844
 7029TIP3    H242503   4.750   4.595   4.606 -2.1856  0.9608 -0.5411
 7030TIP3   OH242504   3.069   1.193  15.182  0.3995  0.1299  0.8687
 7030TIP3    H142505   3.046   1.142  15.104  0.9687 -1.6318  1.7841
 7030TIP3    H242506   3.065   1.284  15.153 -0.5241 -0.4177 -0.8999
 7031TIP3   OH242507   1.967   4.371  14.325  0.6004  0.0961 -0.8118
 7031TIP3    H142508   1.986   4.278  14.337  2.8060  0.5417 -0.4134
 7031TIP3    H242509   2.037   4.403  14.267 -0.5369  1.3749 -1.5467
 7032TIP3   OH242510   4.041   2.755   4.124 -0.0803 -0.1843 -0.2908
 7032TIP3    H142511   4.126   2.720   4.097 -0.1299 -1.0859  0.6619
 7032TIP3    H242512   3.978   2.698   4.081 -0.1870 -0.1893 -0.1280
 7033TIP3   OH242513   4.355   1.677   2.127  0.1250  0.2327  0.4957
 7033TIP3    H142514   4.405   1.665   2.208 -0.3677  1.2763  0.9784
 7033TIP3    H242515   4.411   1.732   2.072 -0.0586  0.5506  0.6257
 7034TIP3   OH242516   4.175   4.289  13.409  0.4230  0.4614 -0.2343
 7034TIP3    H142517   4.153   4.205  13.450 -1.1405  0.0756 -1.7368
 7034TIP3    H242518   4.100   4.345  13.427  2.1414  2.1859  2.1735
 7035TIP3   OH242519   0.598   2.121  10.537 -0.3023 -0.1587  0.3259
 7035TIP3    H142520   0.575   2.202  10.493 -2.3748 -0.3012  1.0408
 7035TIP3    H242521   0.692   2.128  10.553  0.0106  1.0347 -1.7139
 7036TIP3   OH242522   4.941   4.114   2.196  0.0243 -0.4102  0.1121
 7036TIP3    H142523   4.858   4.079   2.164 -0.1464 -1.2587  1.3865
 7036TIP3    H242524   4.932   4.209   2.191 -0.4742 -0.5095 -1.0662
 7037TIP3   OH242525   1.300   0.369  15.675 -0.2150 -0.4152 -0.3369
 7037TIP3    H142526   1.211   0.392  15.702  0.5584  1.0957  1.1909
 7037TIP3    H242527   1.299   0.274  15.667 -1.6019 -0.5691  1.1086
 7038TIP3   OH242528   4.903   4.227   0.768  0.2314  0.2070  0.1668
 7038TIP3    H142529   4.890   4.321   0.785 -2.3357 -0.2062  0.8943
 7038TIP3    H242530   4.937   4.193   0.851  3.3234  0.7510 -0.7444
 7039TIP3   OH242531   4.137   0.799  11.780  0.5539 -0.4270  0.5169
 7039TIP3    H142532   4.200   0.739  11.742  1.2598  2.1254 -2.8694
 7039TIP3    H242533   4.184   0.883  11.784 -0.4298  0.1539  4.7678
 7040TIP3   OH242534   0.243   0.037   5.055 -0.0237  0.5678  0.4256
 7040TIP3    H142535   0.194  -0.042   5.033  0.7423  0.4724 -1.0906
 7040TIP3    H242536   0.302   0.010   5.125 -1.9526  0.6507  2.1682
 7041TIP3   OH242537   0.975   3.323   0.797  0.1639  0.0487  0.3949
 7041TIP3    H142538   1.034   3.392   0.767  2.6454 -2.0499  0.0465
 7041TIP3    H242539   0.996   3.248   0.742 -1.3389 -1.4358  1.7257
 7042TIP3   OH242540   4.765   5.216   5.966 -0.0279  0.0909  0.5440
 7042TIP3    H142541   4.674   5.244   5.975 -0.3954 -0.8006 -0.2558
 7042TIP3    H242542   4.804   5.283   5.909 -0.6261 -0.4190 -0.4877
 7043TIP3   OH242543   6.024   5.968  15.367 -0.7318  0.9719  0.4432
 7043TIP3    H142544   5.948   5.996  15.318 -1.7911 -3.9093 -1.2137
 7043TIP3    H242545   5.989   5.934  15.450 -1.2049 -4.1244 -1.4935
 7044TIP3   OH242546   3.133   0.836   1.023  0.1564  0.4968 -0.1520
 7044TIP3    H142547   3.128   0.792   0.938  0.3701  2.1451 -1.0604
 7044TIP3    H242548   3.160   0.768   1.084  0.1926 -0.6837 -1.4460
 7045TIP3   OH242549   4.236   1.305   4.699  0.0733 -0.4565 -0.2131
 7045TIP3    H142550   4.159   1.319   4.754 -0.3735 -0.8122 -0.7272
 7045TIP3    H242551   4.201   1.263   4.620  0.2866  2.2067 -1.8665
 7046TIP3   OH242552   0.375   1.927  16.968  0.5097  0.1239 -0.5459
 7046TIP3    H142553   0.439   1.996  16.987  0.0817  0.2980  0.3383
 7046TIP3    H242554   0.307   1.971  16.916  0.3287  0.3271 -0.1409
 7047TIP3   OH242555   2.355   1.824  12.288 -0.4956 -0.1561 -0.0652
 7047TIP3    H142556   2.446   1.849  12.267  0.2587 -1.8634  0.9902
 7047TIP3    H242557   2.320   1.900  12.334  0.8939  0.0120  0.7951
 7048TIP3   OH242558   1.453   5.804   4.436 -0.0686  0.3207 -0.1174
 7048TIP3    H142559   1.523   5.744   4.411 -0.4112 -0.1836  0.1293
 7048TIP3    H242560   1.404   5.820   4.356  0.6920  1.1706 -0.4335
 7049TIP3   OH242561   4.397   3.990  15.797 -0.3106  0.1753  0.3611
 7049TIP3    H142562   4.303   3.996  15.819 -0.5410 -2.3499  0.3252
 7049TIP3    H242563   4.401   4.017  15.705 -1.4514 -1.9359 -0.3954
 7050TIP3   OH242564   4.518   1.570   2.336 -0.4446  0.2102  0.1396
 7050TIP3    H142565   4.505   1.480   2.305 -0.4113  0.1090  0.4140
 7050TIP3    H242566   4.541   1.560   2.429 -2.6159  0.6182  0.7686
 7051TIP3   OH242567   4.077   5.787   1.936 -0.0336  0.1296 -0.5087
 7051TIP3    H142568   4.010   5.748   1.881  0.7724  1.1801 -2.3374
 7051TIP3    H242569   4.141   5.823   1.874  0.7645  1.6607  1.1068
 7052TIP3   OH242570   0.852   2.763  11.138 -0.2241  0.9052 -0.2189
 7052TIP3    H142571   0.758   2.752  11.127 -0.0038 -1.5794 -0.1186
 7052TIP3    H242572   0.876   2.702  11.207  1.5620  1.0306 -0.6661
 7053TIP3   OH242573   5.234   3.642  11.413 -0.1679 -0.4694 -0.0433
 7053TIP3    H142574   5.279   3.559  11.428 -0.0318 -0.4695 -0.4525
 7053TIP3    H242575   5.226   3.649  11.318 -0.4879 -0.1783 -0.0006
 7054TIP3   OH242576   2.312   3.879   2.730 -0.3810 -0.2381  0.1225
 7054TIP3    H142577   2.306   3.841   2.818 -1.5972 -0.9495 -0.2370
 7054TIP3    H242578   2.297   3.805   2.671  0.4156  0.2269 -0.7000
 7055TIP3   OH242579   5.402   0.586  15.333 -0.1522  0.1555  0.0367
 7055TIP3    H142580   5.435   0.576  15.244 -1.2983 -0.2024 -0.3727
 7055TIP3    H242581   5.478   0.572  15.389  0.2639 -1.3669 -0.8337
 7056TIP3   OH242582   6.011   5.156  15.309  0.4611  0.7465 -0.2283
 7056TIP3    H142583   6.060   5.097  15.366  0.8916 -0.3651 -1.7053
 7056TIP3    H242584   6.074   5.223  15.283  0.3186  1.1339  0.3766
 7057TIP3   OH242585   5.586   3.987   5.722 -0.4308 -0.2257 -0.0235
 7057TIP3    H142586   5.578   4.065   5.668  1.6205 -0.1598 -0.2878
 7057TIP3    H242587   5.602   4.020   5.810 -0.0975 -0.3356 -0.0409
 7058TIP3   OH242588   1.505   6.151  17.195  0.5788 -0.0836  0.0668
 7058TIP3    H142589   1.556   6.196  17.262  0.7284  0.4754 -0.4165
 7058TIP3    H242590   1.444   6.096  17.244  1.3816 -0.4638  0.6503
 7059TIP3   OH242591   1.626   6.672  11.743  0.3657 -0.4368  0.0197
 7059TIP3    H142592   1.543   6.694  11.784  0.4944  1.7984 -0.7489
 7059TIP3    H242593   1.690   6.680  11.814  0.1867  0.1055  0.1293
 7060TIP3   OH242594   6.537   5.448   1.855 -0.5584  0.0847 -0.0316
 7060TIP3    H142595   6.498   5.370   1.895 -0.8991  0.6947  0.8726
 7060TIP3    H242596   6.477   5.519   1.879  0.2892  0.7885  0.0534
 7061TIP3   OH242597   0.818   5.105  13.738  0.0936 -0.1706 -0.0538
 7061TIP3    H142598   0.732   5.065  13.729  1.3012 -2.7091 -1.1440
 7061TIP3    H242599   0.840   5.093  13.830 -0.1464 -0.7801 -0.0727
 7062TIP3   OH242600   3.359   3.409   1.978 -0.3832 -0.2982  0.0212
 7062TIP3    H142601   3.312   3.451   1.906 -0.9994  0.2012  0.6902
 7062TIP3    H242602   3.335   3.317   1.972 -0.5500 -0.2336 -0.3235
 7063TIP3   OH242603   0.091   3.328  15.191 -0.2101 -0.1265 -0.0853
 7063TIP3    H142604   0.099   3.307  15.284 -0.6970  3.0360  0.8042
 7063TIP3    H242605   0.180   3.351  15.163 -0.1525 -0.5530 -0.2544
 7064TIP3   OH242606   1.037   0.060   5.549 -0.2563 -0.4455  0.6354
 7064TIP3    H142607   0.957   0.024   5.588  0.1844 -1.3521  0.7351
 7064TIP3    H242608   1.059  -0.002   5.479  1.1748 -1.0520  1.5807
 7065TIP3   OH242609   4.336   5.202   0.842  0.2916 -0.1449 -0.7549
 7065TIP3    H142610   4.319   5.292   0.814 -1.0306 -0.8045 -2.2504
 7065TIP3    H242611   4.258   5.177   0.890  0.9885 -0.2601  0.3429
 7066TIP3   OH242612   4.216   6.453  11.932 -0.2610  0.1713 -0.1600
 7066TIP3    H142613   4.155   6.453  12.006 -3.0427 -1.2426 -2.2640
 7066TIP3    H242614   4.252   6.365  11.930  0.9955  0.6523  0.3601
 7067TIP3   OH242615   5.485   4.242   0.330  0.1639 -0.7825 -0.1827
 7067TIP3    H142616   5.403   4.202   0.361 -0.9808  1.0356 -0.6612
 7067TIP3    H242617   5.509   4.303   0.400 -0.3271  0.5319 -1.1171
 7068TIP3   OH242618   0.916   1.308  12.268  0.0722 -0.6020  0.0110
 7068TIP3    H142619   0.960   1.387  12.301 -1.0975  0.5873 -1.1331
 7068TIP3    H242620   0.850   1.288  12.335 -2.3203  1.8224 -1.3974
 7069TIP3   OH242621   5.309   5.294   3.164 -0.5193  0.1976 -0.2982
 7069TIP3    H142622   5.300   5.372   3.110 -0.2812  0.4264 -0.0161
 7069TIP3    H242623   5.269   5.319   3.248  0.1780  0.2622  0.0228
 7070TIP3   OH242624   1.715   5.192   5.891  0.1135  0.1067  0.6051
 7070TIP3    H142625   1.645   5.134   5.861 -0.4585  0.6845  0.8014
 7070TIP3    H242626   1.781   5.188   5.821 -1.4261  1.8314 -1.0462
 7071TIP3   OH242627   4.670   2.602  14.227 -0.3654  0.0786 -0.3151
 7071TIP3    H142628   4.589   2.574  14.185 -0.5619 -0.6792  0.5607
 7071TIP3    H242629   4.737   2.545  14.191 -0.6715 -1.1669  1.0215
 7072TIP3   OH242630   2.310   3.121  15.054  0.5879 -0.7271  0.1312
 7072TIP3    H142631   2.229   3.157  15.090  1.2059 -0.7057  1.6059
 7072TIP3    H242632   2.287   3.031  15.028 -0.3402 -0.1258 -1.2274
 7073TIP3   OH242633   1.726   3.493   5.283  0.0090  0.1987 -0.2983
 7073TIP3    H142634   1.714   3.532   5.197 -0.4916  2.7351  0.8258
 7073TIP3    H242635   1.815   3.519   5.310  0.5791 -1.4773 -0.4341
 7074TIP3   OH242636   5.377   4.278  16.383 -0.2622  0.1851  0.5900
 7074TIP3    H142637   5.424   4.336  16.323 -1.3408  1.2163  0.6969
 7074TIP3    H242638   5.419   4.291  16.467 -0.2576  0.5328  0.5342
 7075TIP3   OH242639   4.059   2.665   2.928 -0.6778 -0.1087  0.0494
 7075TIP3    H142640   3.984   2.710   2.889 -0.6189 -1.2544 -1.4725
 7075TIP3    H242641   4.031   2.573   2.934  0.8132 -0.6877 -1.2230
 7076TIP3   OH242642   2.500   2.125  16.227  0.1716 -0.5181 -0.4297
 7076TIP3    H142643   2.515   2.119  16.133  1.8821  2.0848 -0.4266
 7076TIP3    H242644   2.586   2.145  16.264 -0.9267  1.3404  1.3374
 7077TIP3   OH242645   5.488   4.899   1.638  0.0069  0.1344 -0.0243
 7077TIP3    H142646   5.580   4.878   1.624  0.6275  1.2368  1.9498
 7077TIP3    H242647   5.441   4.854   1.568  2.0675 -0.2258 -1.2357
 7078TIP3   OH242648   3.762   3.040  17.127  0.5170  0.3105  0.3989
 7078TIP3    H142649   3.764   3.014  17.219  0.0505  1.0843  0.6395
 7078TIP3    H242650   3.826   2.984  17.084  0.0423 -0.7283  1.0188
 7079TIP3   OH242651   2.814   1.512   5.711  0.2977  0.1650  0.1111
 7079TIP3    H142652   2.905   1.485   5.725 -0.1976 -1.0701  1.1746
 7079TIP3    H242653   2.798   1.577   5.780  0.4109  0.5295 -0.1980
 7080TIP3   OH242654   2.014   5.344   2.857  0.6876  0.4588 -0.4683
 7080TIP3    H142655   2.000   5.329   2.950  0.5608  3.8508  0.1718
 7080TIP3    H242656   2.108   5.330   2.844  0.8377  0.6856  0.3448
 7081TIP3   OH242657   3.429   6.073  12.450 -0.4355  0.3015  0.2184
 7081TIP3    H142658   3.406   6.007  12.386 -0.9558  1.4696 -0.8395
 7081TIP3    H242659   3.413   6.031  12.535 -1.1545 -0.7649 -0.4282
 7082TIP3   OH242660   2.762   1.161  13.486  0.3582 -0.6931 -0.1811
 7082TIP3    H142661   2.837   1.107  13.514  1.1009  0.7403  0.7001
 7082TIP3    H242662   2.800   1.225  13.426 -0.0317  0.4247  0.7322
 7083TIP3   OH242663   3.143   0.413   5.201  0.2274  0.0283  0.6666
 7083TIP3    H142664   3.069   0.395   5.260 -0.3624 -1.0875 -0.3626
 7083TIP3    H242665   3.186   0.490   5.239 -1.8142  1.0962  0.9823
 7084TIP3   OH242666   3.122   3.293   5.220  0.0400 -0.5462  0.5296
 7084TIP3    H142667   3.169   3.300   5.137 -0.3534 -0.1817  0.3306
 7084TIP3    H242668   3.113   3.199   5.235 -0.2592 -0.6153 -0.0569
 7085TIP3   OH242669   3.492   4.853   1.168 -0.0525 -0.2288 -0.0949
 7085TIP3    H142670   3.488   4.945   1.142 -1.4341 -0.2906 -0.1673
 7085TIP3    H242671   3.480   4.855   1.263  1.4773 -0.2445  0.1180
 7086TIP3   OH242672   4.702   5.425  14.102  0.1176 -0.0107  0.0380
 7086TIP3    H142673   4.641   5.357  14.073 -1.9299  1.8452 -0.2907
 7086TIP3    H242674   4.709   5.485  14.027 -0.6830  1.8115  1.3439
 7087TIP3   OH242675   6.502   3.400  10.714  0.4374  0.4703 -0.1689
 7087TIP3    H142676   6.428   3.460  10.703  0.9828  1.1107 -0.3536
 7087TIP3    H242677   6.557   3.441  10.781  1.0134  0.3732 -0.5824
 7088TIP3   OH242678   4.605   3.902  12.871 -0.3398  0.2941 -0.1261
 7088TIP3    H142679   4.540   3.923  12.804 -1.2340  0.6260  0.8351
 7088TIP3    H242680   4.662   3.838  12.828 -1.8612 -0.7577 -0.6813
 7089TIP3   OH242681   0.379   4.002   4.585  0.1149  0.2818  0.5295
 7089TIP3    H142682   0.414   4.050   4.659 -1.2454 -1.5498  2.4774
 7089TIP3    H242683   0.456   3.965   4.541  0.9391 -3.0141  4.2205
 7090TIP3   OH242684   6.774   2.514  14.265 -0.7753 -0.0866  0.2517
 7090TIP3    H142685   6.839   2.485  14.202 -0.6871 -2.9426  1.4895
 7090TIP3    H242686   6.774   2.609  14.257  3.1125  0.0555 -0.2376
 7091TIP3   OH242687   3.590   2.212   1.109 -0.0719 -0.2945  0.2982
 7091TIP3    H142688   3.601   2.298   1.068 -0.6952 -0.1360  0.4500
 7091TIP3    H242689   3.638   2.217   1.191  1.0035 -0.5388 -0.2972
 7092TIP3   OH242690   1.619   3.236   4.950 -0.1553 -0.0636 -0.2874
 7092TIP3    H142691   1.657   3.155   4.917  0.2915  0.2556 -0.5556
 7092TIP3    H242692   1.691   3.299   4.949 -0.9800  0.9163 -2.0638
 7093TIP3   OH242693   2.803   1.879   2.565 -0.1099  0.2030  0.1791
 7093TIP3    H142694   2.762   1.950   2.614  0.2535  2.0094 -1.9519
 7093TIP3    H242695   2.738   1.809   2.564 -2.4897  2.3042 -1.5995
 7094TIP3   OH242696   1.159   3.919   2.720  0.1858 -0.1180  0.2532
 7094TIP3    H142697   1.124   3.995   2.766 -0.5299 -0.3189  0.0490
 7094TIP3    H242698   1.155   3.848   2.784  2.0929  0.2802  0.8931
 7095TIP3   OH242699   5.639   1.506   5.173  0.2480 -0.5457  0.3928
 7095TIP3    H142700   5.603   1.590   5.202 -1.0252 -0.4802 -1.2470
 7095TIP3    H242701   5.576   1.441   5.204  0.5465 -0.7843  0.5102
 7096TIP3   OH242702   0.021   2.443  11.577  0.3708  0.4991  0.2111
 7096TIP3    H142703  -0.040   2.500  11.624 -0.4139  0.9911 -1.3310
 7096TIP3    H242704  -0.027   2.417  11.499  1.8804  0.2627 -0.6642
 7097TIP3   OH242705   6.601   0.147  12.313  0.5609 -0.3760  0.0716
 7097TIP3    H142706   6.586   0.170  12.221 -2.0498 -0.4805  0.4045
 7097TIP3    H242707   6.680   0.196  12.336  0.4862  0.7792 -1.8337
 7098TIP3   OH242708   2.916   1.885   5.103  0.1582  0.0885  0.2907
 7098TIP3    H142709   2.841   1.833   5.132 -0.0540  1.4840  2.4759
 7098TIP3    H242710   2.895   1.974   5.130  1.1543  1.1127 -2.0505
 7099TIP3   OH242711   6.592   1.366   5.854  0.1817 -0.4454 -0.2025
 7099TIP3    H142712   6.623   1.441   5.904 -1.9830  0.3580  0.0452
 7099TIP3    H242713   6.651   1.360   5.779  2.5439 -0.7194  1.5750
 7100TIP3   OH242714   4.088   2.275  17.043 -0.1288  0.3217  0.0581
 7100TIP3    H142715   4.118   2.272  16.952 -1.2583 -0.1787 -0.3082
 7100TIP3    H242716   4.037   2.356  17.049 -1.4883 -0.4868 -0.2298
 7101TIP3   OH242717   0.782   3.944  17.001 -0.1299  0.0477 -0.2821
 7101TIP3    H142718   0.864   3.967  17.044 -0.8259  0.5832  0.8281
 7101TIP3    H242719   0.728   3.905  17.071 -0.6321 -0.7906 -1.1064
 7102TIP3   OH242720   4.123   1.679  16.976 -0.8650 -0.0869 -0.1328
 7102TIP3    H142721   4.164   1.715  17.055  1.2524  0.2435 -1.2934
 7102TIP3    H242722   4.062   1.747  16.947 -1.0992  0.1102  0.7902
 7103TIP3   OH242723   5.137   6.454   0.553  0.8661  0.5457 -0.1258
 7103TIP3    H142724   5.149   6.395   0.478  1.7491  0.4797  0.0593
 7103TIP3    H242725   5.186   6.413   0.624 -0.2806  0.3980  0.6252
 7104TIP3   OH242726   5.161   3.548   5.862 -0.0830 -0.5176 -0.2113
 7104TIP3    H142727   5.205   3.472   5.823 -0.4298 -0.0324 -1.6279
 7104TIP3    H242728   5.203   3.559   5.947  1.3169 -1.1467 -0.7776
 7105TIP3   OH242729   5.973   3.019   3.446  0.2145  0.1048 -0.4789
 7105TIP3    H142730   6.022   2.973   3.515  0.9027  0.0503 -0.9877
 7105TIP3    H242731   5.935   2.949   3.392 -1.5673  0.1347  0.6701
 7106TIP3   OH242732   3.274   3.295   3.075 -0.2933 -0.0860 -0.1168
 7106TIP3    H142733   3.296   3.339   2.993 -2.1435 -0.8318 -1.0833
 7106TIP3    H242734   3.358   3.275   3.116  0.7074 -0.2396 -2.1402
 7107TIP3   OH242735   0.475   3.119  12.240  0.1409  0.1352 -0.1684
 7107TIP3    H142736   0.528   3.188  12.281  0.3831 -0.1726  0.0391
 7107TIP3    H242737   0.489   3.042  12.295 -0.9163  0.1709  0.1751
 7108TIP3   OH242738   4.047   6.215  16.167 -0.2162  0.3536  0.5370
 7108TIP3    H142739   4.137   6.227  16.196 -0.6649  0.3499  1.9906
 7108TIP3    H242740   4.037   6.120  16.159 -0.3645  0.2942  1.3344
 7109TIP3   OH242741   4.523   2.862   5.786 -0.0719 -0.2982  0.0552
 7109TIP3    H142742   4.549   2.770   5.794 -0.2923 -0.4817 -1.1359
 7109TIP3    H242743   4.464   2.864   5.711  0.7107  0.9669 -0.5597
 7110TIP3   OH242744   0.335   2.740   2.809 -0.0528  0.6723  0.1292
 7110TIP3    H142745   0.364   2.825   2.777  0.3254  0.7339  0.6309
 7110TIP3    H242746   0.244   2.753   2.834 -0.7710  0.3075 -2.0931
 7111TIP3   OH242747   1.511   5.158   1.401 -0.1192  0.2549 -0.0976
 7111TIP3    H142748   1.555   5.204   1.329 -0.7438 -0.1217 -0.7323
 7111TIP3    H242749   1.427   5.132   1.365  0.9148 -3.0830 -0.4249
 7112TIP3   OH242750   5.400   6.243   2.799  0.1706  0.2882  0.1275
 7112TIP3    H142751   5.368   6.321   2.844 -1.8335  0.4183 -1.3972
 7112TIP3    H242752   5.494   6.257   2.790  0.4250  0.8945  2.9297
 7113TIP3   OH242753   5.821   0.618  16.877  0.0215 -0.0275 -0.2488
 7113TIP3    H142754   5.816   0.530  16.840 -0.2567 -0.0952 -0.0507
 7113TIP3    H242755   5.731   0.637  16.904 -0.1228  0.6950 -1.1659
 7114TIP3   OH242756   0.893   5.929  13.339  0.2611 -0.5381 -0.6010
 7114TIP3    H142757   0.978   5.951  13.377  0.1354 -1.1072  0.0371
 7114TIP3    H242758   0.909   5.849  13.290 -0.1672 -1.4250  0.6446
 7115TIP3   OH242759   3.347   4.016  12.153  0.2022 -0.4443  0.1751
 7115TIP3    H142760   3.378   4.068  12.227 -1.0271 -0.1159  0.4731
 7115TIP3    H242761   3.413   4.030  12.085 -0.2509  1.8252  0.1084
 7116TIP3   OH242762   1.536   6.179   6.094 -0.0367  0.4007 -0.0334
 7116TIP3    H142763   1.473   6.109   6.076  1.2209 -0.6461 -0.5271
 7116TIP3    H242764   1.491   6.236   6.157 -2.7558  1.5649 -2.7858
 7117TIP3   OH242765   6.219   2.966   2.929 -0.0464  0.3317 -0.1442
 7117TIP3    H142766   6.185   3.026   2.995 -1.5518 -3.3514  2.7867
 7117TIP3    H242767   6.294   2.924   2.972 -0.2540 -1.2610 -1.2601
 7118TIP3   OH242768   0.040   5.154  12.531  0.1204  0.3420  0.6669
 7118TIP3    H142769   0.112   5.094  12.550 -0.4190 -0.2002  1.0536
 7118TIP3    H242770   0.076   5.217  12.468  0.6823 -0.4111  0.2228
 7119TIP3   OH242771   3.170   3.644  12.516  0.7501  0.0234 -0.1904
 7119TIP3    H142772   3.171   3.688  12.601 -0.1808  1.9869 -1.1241
 7119TIP3    H242773   3.099   3.580  12.523  1.0055 -0.1926  0.6363
 7120TIP3   OH242774   6.460   2.950  14.625 -0.0603 -0.0448 -0.2186
 7120TIP3    H142775   6.398   2.983  14.690 -1.1024  0.0307 -1.2109
 7120TIP3    H242776   6.520   3.023  14.610 -0.7465  0.4806 -0.4538
 7121TIP3   OH242777   0.881   0.343  11.616  0.7402 -0.1306  0.4421
 7121TIP3    H142778   0.944   0.350  11.544 -1.4851  2.4869 -1.4766
 7121TIP3    H242779   0.877   0.249  11.635  2.0695 -0.8686 -2.3188
 7122TIP3   OH242780   3.697   3.488  15.632  0.7199  0.2152 -0.4170
 7122TIP3    H142781   3.618   3.496  15.578  1.0043  1.7193 -0.6734
 7122TIP3    H242782   3.665   3.462  15.718  0.3107 -2.7847 -1.3798
 7123TIP3   OH242783   2.362   2.868  16.816  0.0562  0.1583 -0.5625
 7123TIP3    H142784   2.430   2.881  16.883 -1.0547  0.0183  0.6187
 7123TIP3    H242785   2.408   2.824  16.744  1.3495  0.6024 -0.0502
 7124TIP3   OH242786   3.735   4.302   4.465  0.3465 -0.2829  0.1609
 7124TIP3    H142787   3.731   4.320   4.371 -1.0371 -1.5323 -0.0624
 7124TIP3    H242788   3.797   4.229   4.473  1.9739  1.0588  0.4878
 7125TIP3   OH242789   5.920   5.170   2.503  0.2035  0.3026  0.4794
 7125TIP3    H142790   5.827   5.183   2.484 -0.4782  1.1284  3.6649
 7125TIP3    H242791   5.958   5.258   2.497  0.5452  0.1335  0.1750
 7126TIP3   OH242792   4.039   5.416  14.557 -0.1166  0.1546 -0.1352
 7126TIP3    H142793   4.110   5.468  14.520 -1.2345 -0.0547 -2.7517
 7126TIP3    H242794   4.082   5.344  14.603  1.4117  2.3734  2.2006
 7127TIP3   OH242795   0.681   5.973  11.627 -1.1790  0.4619 -0.0496
 7127TIP3    H142796   0.777   5.972  11.629 -1.1699  1.1539 -0.1134
 7127TIP3    H242797   0.657   6.059  11.660 -1.7280  1.0706 -1.9115
 7128TIP3   OH242798   4.890   4.607   1.070  0.0436 -0.4569  0.3101
 7128TIP3    H142799   4.903   4.587   0.977 -2.7469  0.8254 -0.4752
 7128TIP3    H242800   4.972   4.647   1.098  0.3644  0.7656 -2.1108
 7129TIP3   OH242801   3.331   5.491  14.190  0.6941  0.0419  0.0450
 7129TIP3    H142802   3.377   5.575  14.194 -0.8880  0.9122  0.5780
 7129TIP3    H242803   3.327   5.461  14.281  3.1515 -1.7539 -0.3174
 7130TIP3   OH242804   4.086   0.306   0.049  0.6864 -0.7281  0.0516
 7130TIP3    H142805   4.059   0.255   0.125 -2.0803  1.0927  0.4386
 7130TIP3    H242806   4.123   0.242  -0.011 -0.4990 -2.8216  1.4158
 7131TIP3   OH242807   2.732   0.570  13.929 -0.2597  0.1358  0.0690
 7131TIP3    H142808   2.711   0.576  14.022 -0.5766  0.4920 -0.0233
 7131TIP3    H242809   2.680   0.639  13.888  0.4865  0.5099 -0.2723
 7132TIP3   OH242810   0.577   3.656  11.565 -0.0472 -0.1205 -0.3235
 7132TIP3    H142811   0.636   3.677  11.637  1.4118 -1.1334 -1.1696
 7132TIP3    H242812   0.506   3.606  11.606  0.1353  0.3356  0.5783
 7133TIP3   OH242813   3.357   3.317  14.021  0.2893  0.2279  0.1870
 7133TIP3    H142814   3.392   3.377  14.087  1.0138 -0.9575  0.9114
 7133TIP3    H242815   3.390   3.352  13.938  0.3186  1.0912  0.5528
 7134TIP3   OH242816   4.302   0.918   6.539  0.4135 -0.0593 -0.3373
 7134TIP3    H142817   4.363   0.856   6.580 -0.6484 -1.8427 -1.3166
 7134TIP3    H242818   4.274   0.874   6.459 -0.4219  1.7171 -1.0633
 7135TIP3   OH242819   1.766   4.556  12.742 -0.8804 -0.3951  0.3653
 7135TIP3    H142820   1.680   4.544  12.702 -1.3920  0.0751  1.3061
 7135TIP3    H242821   1.810   4.472  12.730 -1.0347 -0.2861 -1.1169
 7136TIP3   OH242822   2.884   1.409  12.082  0.6603 -0.0690  0.0223
 7136TIP3    H142823   2.918   1.404  12.171  0.3215  0.6083  0.1929
 7136TIP3    H242824   2.817   1.341  12.078  1.2564 -0.6710  0.0157
 7137TIP3   OH242825   4.830   5.290   1.957 -0.2989 -0.4812  0.2203
 7137TIP3    H142826   4.771   5.232   2.005  1.7178 -1.2169  1.9611
 7137TIP3    H242827   4.915   5.246   1.960  0.4363  0.6508 -1.9824
 7138TIP3   OH242828   5.950   0.928   1.128 -0.0111  0.0143 -0.0168
 7138TIP3    H142829   5.952   0.892   1.216 -0.3352  0.6326  0.2492
 7138TIP3    H242830   5.874   0.986   1.127 -0.6077 -0.7319 -1.0028
 7139TIP3   OH242831   0.198   6.626   5.941  0.0600 -0.1542 -0.3361
 7139TIP3    H142832   0.170   6.593   6.027 -0.4594 -0.7588 -0.7261
 7139TIP3    H242833   0.289   6.651   5.953 -0.5371  1.7093  0.9423
 7140TIP3   OH242834   5.159   4.491  12.033 -0.1815  0.6144  0.0994
 7140TIP3    H142835   5.253   4.486  12.017  0.1193  1.4280  1.4484
 7140TIP3    H242836   5.131   4.571  11.988  0.1698  1.4521  1.3057
 7141TIP3   OH242837   5.590   0.915   5.564 -0.0216  0.0345  0.2718
 7141TIP3    H142838   5.625   0.947   5.647 -1.1528 -0.7584  1.0968
 7141TIP3    H242839   5.635   0.966   5.497  1.3155  0.3135  1.3428
 7142TIP3   OH242840   4.504   4.990  12.612 -0.7841  0.0342  0.0891
 7142TIP3    H142841   4.456   5.070  12.632 -0.6713 -0.2058  1.4543
 7142TIP3    H242842   4.561   5.013  12.539 -0.9872  1.1117  0.2606
 7143TIP3   OH242843   6.574   5.066   3.553  0.0187 -0.1111 -0.2292
 7143TIP3    H142844   6.516   5.009   3.503  0.5260 -0.4959 -0.3827
 7143TIP3    H242845   6.546   5.155   3.529 -0.7272 -0.2896 -0.0361
 7144TIP3   OH242846   5.071   4.281   2.522  0.8470  0.3655 -0.4307
 7144TIP3    H142847   5.142   4.217   2.508 -0.4422 -0.8168 -1.9693
 7144TIP3    H242848   5.098   4.357   2.470  0.9266 -0.1436 -1.1552
 7145TIP3   OH242849   0.067   5.302  11.936  0.1459 -0.0050  0.9779
 7145TIP3    H142850   0.055   5.382  11.988  0.9804  1.0219 -0.3302
 7145TIP3    H242851   0.161   5.301  11.915 -0.1858 -0.2287 -0.6796
 7146TIP3   OH242852   5.140   6.064   4.689  0.5026  0.0013 -0.1094
 7146TIP3    H142853   5.135   6.011   4.609 -0.8940  0.1734 -0.1687
 7146TIP3    H242854   5.076   6.025   4.748 -1.3736  2.1689 -0.5354
 7147TIP3   OH242855   1.268   0.575  14.521  0.2090  0.0613  0.0778
 7147TIP3    H142856   1.332   0.525  14.470  1.6443  0.6361  1.2419
 7147TIP3    H242857   1.237   0.513  14.588 -0.2681 -0.1420 -0.3284
 7148TIP3   OH242858   2.091   2.689   2.791  0.2501 -0.1942 -0.1083
 7148TIP3    H142859   2.112   2.770   2.837 -1.5081  0.3778 -0.2560
 7148TIP3    H242860   2.125   2.620   2.847 -1.1483  0.5097  1.7105
 7149TIP3   OH242861   6.650   0.075  11.438  0.3705  1.0492  0.6245
 7149TIP3    H142862   6.724   0.099  11.494  0.9779 -0.3290  0.4404
 7149TIP3    H242863   6.683   0.086  11.349 -0.2827  2.2742  0.5081
 7150TIP3   OH242864   0.774   5.232  10.614  0.1815  0.0038  0.3771
 7150TIP3    H142865   0.800   5.187  10.695  2.6193  0.5023 -0.0377
 7150TIP3    H242866   0.847   5.215  10.553 -0.3665  1.7828 -0.8496
 7151TIP3   OH242867   6.322   0.732   3.228  0.8074 -0.4347  1.0152
 7151TIP3    H142868   6.335   0.808   3.285  0.2201  0.0678  0.4905
 7151TIP3    H242869   6.227   0.721   3.224  0.7571  0.2971 -0.8307
 7152TIP3   OH242870   1.366   6.630   2.028 -0.0058 -0.5660 -0.0632
 7152TIP3    H142871   1.345   6.615   1.936 -0.1451  2.0919 -0.5504
 7152TIP3    H242872   1.284   6.613   2.075 -0.6778  0.5530 -0.7839
 7153TIP3   OH242873   1.699   6.537   4.438 -0.2273 -0.1291  0.3269
 7153TIP3    H142874   1.718   6.499   4.523  0.2050  1.3541  0.9251
 7153TIP3    H242875   1.734   6.474   4.375  1.0940 -0.4026  1.2924
 7154TIP3   OH242876   4.510   1.322   1.177  0.3265 -0.0264  0.0279
 7154TIP3    H142877   4.557   1.405   1.187  0.3350  0.1771 -1.4937
 7154TIP3    H242878   4.569   1.256   1.215  0.4045  0.6144  1.0628
 7155TIP3   OH242879   0.144   1.667   4.148  0.1086 -0.6670 -0.4445
 7155TIP3    H142880   0.224   1.645   4.195 -1.9070 -1.0463  3.2441
 7155TIP3    H242881   0.128   1.759   4.168 -0.6636 -0.7525 -0.6080
 7156TIP3   OH242882   1.055   2.063  15.318 -0.1220 -0.5998 -0.2797
 7156TIP3    H142883   1.083   1.978  15.351  1.6637 -0.4559 -1.2919
 7156TIP3    H242884   1.094   2.070  15.231 -0.3088  1.2141 -0.2752
 7157TIP3   OH242885   5.513   4.972  15.880 -0.0993  0.4407  0.0182
 7157TIP3    H142886   5.585   5.033  15.862 -0.2874  1.2656  1.8607
 7157TIP3    H242887   5.557   4.892  15.912  0.0284  1.1248  1.6462
 7158TIP3   OH242888   4.580   1.625  15.230 -0.4271 -0.1384  0.1290
 7158TIP3    H142889   4.608   1.535  15.247 -1.4240 -0.4918 -0.0178
 7158TIP3    H242890   4.662   1.673  15.216  0.1294 -0.9788  0.3854
 7159TIP3   OH242891   5.228   3.121  14.174 -0.2560 -0.0389 -0.0648
 7159TIP3    H142892   5.150   3.148  14.222  0.8355  1.2106  1.1130
 7159TIP3    H242893   5.258   3.043  14.221  0.1778  0.5230  0.6114
 7160TIP3   OH242894   3.565   5.412  15.051 -0.1056  0.3719 -0.4204
 7160TIP3    H142895   3.569   5.317  15.054 -2.2264  0.2432 -0.1039
 7160TIP3    H242896   3.611   5.441  15.130  0.2376 -0.3906 -0.3339
 7161TIP3   OH242897   0.818   2.848  15.852 -0.1099 -0.4127  0.3688
 7161TIP3    H142898   0.884   2.778  15.847  0.7728  0.4264 -0.1494
 7161TIP3    H242899   0.825   2.892  15.767 -0.6476  0.3076  0.6985
 7162TIP3   OH242900   5.405   4.002  11.175  0.0371  0.0138 -0.4180
 7162TIP3    H142901   5.457   3.941  11.123 -1.4951 -0.7928 -1.0479
 7162TIP3    H242902   5.314   3.986  11.150 -0.4442  2.7305 -0.7948
 7163TIP3   OH242903   5.493   4.937  12.810 -0.5713 -0.6914  0.6651
 7163TIP3    H142904   5.529   4.983  12.734  1.1972 -0.1464  1.7681
 7163TIP3    H242905   5.452   5.006  12.862 -1.2935 -0.9780  0.4846
 7164TIP3   OH242906   1.310   4.939   0.845  0.3165  0.2860  0.4773
 7164TIP3    H142907   1.242   4.925   0.778  1.0856  0.0342 -0.2611
 7164TIP3    H242908   1.392   4.943   0.796  0.7978  1.1070  1.3093
 7165TIP3   OH242909   4.682   5.726   0.440 -0.1462 -0.4967  0.4640
 7165TIP3    H142910   4.738   5.797   0.471  1.5478 -1.4740 -0.1650
 7165TIP3    H242911   4.716   5.648   0.485 -0.3711 -1.2652 -0.6459
 7166TIP3   OH242912   3.419   5.982   5.466 -0.5030 -0.3371 -0.3535
 7166TIP3    H142913   3.370   6.004   5.386 -1.2977 -2.6822 -0.6050
 7166TIP3    H242914   3.352   5.972   5.533  0.0558  0.4596  0.3347
 7167TIP3   OH242915   4.214   6.760  11.992 -0.0775 -0.6519 -0.0636
 7167TIP3    H142916   4.178   6.672  11.981 -0.6914 -0.4582  0.3670
 7167TIP3    H242917   4.272   6.753  12.067  0.6100 -0.9032 -0.6024
 7168TIP3   OH242918   2.889   6.544   0.042 -0.3583  0.2499 -0.2265
 7168TIP3    H142919   2.969   6.563  -0.009  0.0257 -0.7888 -0.0201
 7168TIP3    H242920   2.909   6.577   0.130  0.0760 -0.5242 -0.0259
 7169TIP3   OH242921   3.554   0.124  17.047 -0.9851 -0.2515 -0.4334
 7169TIP3    H142922   3.539   0.030  17.055  1.2178 -0.6689 -0.6239
 7169TIP3    H242923   3.547   0.158  17.136 -0.1740 -0.8787 -0.1260
 7170TIP3   OH242924   0.721   3.575   0.166 -0.2433  0.1267 -0.8495
 7170TIP3    H142925   0.640   3.549   0.209 -0.7327 -0.2308 -1.9581
 7170TIP3    H242926   0.719   3.531   0.081  1.8716 -1.1790 -0.2942
 7171TIP3   OH242927   1.721   0.515  15.541 -0.1345 -0.2429 -0.0382
 7171TIP3    H142928   1.696   0.605  15.560 -0.1157 -0.1610 -0.4024
 7171TIP3    H242929   1.816   0.517  15.536 -0.1283 -0.3025  0.0505
 7172TIP3   OH242930   2.962   5.459   1.934  0.3313  0.1701 -0.3029
 7172TIP3    H142931   2.924   5.437   1.848 -1.0517  0.3562  0.2255
 7172TIP3    H242932   3.041   5.508   1.914  1.3976 -1.8915 -1.4897
 7173TIP3   OH242933   5.240   6.177  12.267 -0.0991  0.4665  0.5767
 7173TIP3    H142934   5.203   6.258  12.231 -0.0734  0.5353  0.7041
 7173TIP3    H242935   5.227   6.112  12.198  0.9927  0.8697 -0.0184
 7174TIP3   OH242936   4.504   3.430   3.074 -0.3281  0.9630 -0.1579
 7174TIP3    H142937   4.598   3.438   3.092 -0.5720  0.3419  1.5985
 7174TIP3    H242938   4.466   3.510   3.109 -0.3483  1.9180 -2.1871
 7175TIP3   OH242939   4.907   4.184  10.681 -0.1540  0.2729  0.1502
 7175TIP3    H142940   4.839   4.220  10.625 -0.6617 -0.9749 -0.0705
 7175TIP3    H242941   4.929   4.255  10.742 -1.9533  0.5541  0.5097
 7176TIP3   OH242942   1.383   0.617  15.831  0.4611  0.3684  0.3311
 7176TIP3    H142943   1.302   0.640  15.877  1.3430  0.4263  1.9364
 7176TIP3    H242944   1.361   0.539  15.781 -0.2222 -0.5184  1.9352
 7177TIP3   OH242945   4.098   3.937  17.060  0.0896  0.2960  0.3765
 7177TIP3    H142946   4.041   3.892  16.997 -0.7831  2.2823 -0.3321
 7177TIP3    H242947   4.039   3.992  17.112  1.1831  1.3140  0.5994
 7178TIP3   OH242948   2.912   3.437   2.569 -0.7917  0.1218  0.2026
 7178TIP3    H142949   2.916   3.491   2.648 -1.2714 -1.0529  1.0620
 7178TIP3    H242950   2.951   3.353   2.595  0.3566  0.1745 -1.2331
 7179TIP3   OH242951   1.043   3.356  15.629 -0.3020 -0.1587  0.0424
 7179TIP3    H142952   1.119   3.387  15.678 -1.3358  0.3080  1.4246
 7179TIP3    H242953   1.014   3.433  15.579  0.2628 -0.4135 -0.7120
 7180TIP3   OH242954   1.495   6.371  13.474  0.9968  0.0898 -0.0996
 7180TIP3    H142955   1.440   6.400  13.546  2.4307  1.8378  0.3734
 7180TIP3    H242956   1.566   6.322  13.516  1.3625  0.3609 -0.3919
 7181TIP3   OH242957   5.584   3.071  12.964  0.1715 -0.8197 -0.2220
 7181TIP3    H142958   5.518   3.008  12.935  1.9493 -2.6987 -0.4483
 7181TIP3    H242959   5.600   3.048  13.056  0.0847  0.0379  0.0184
 7182TIP3   OH242960   2.154   6.351  12.570 -0.3938 -0.4037 -0.1914
 7182TIP3    H142961   2.118   6.433  12.603 -0.4689  0.0137 -1.2864
 7182TIP3    H242962   2.199   6.375  12.490  2.0463 -0.9663  0.9178
 7183TIP3   OH242963   0.288   1.507  12.604 -0.5614 -0.0425  0.2977
 7183TIP3    H142964   0.351   1.523  12.535 -1.2262 -0.4737 -0.4261
 7183TIP3    H242965   0.257   1.418  12.589 -0.9505 -0.0319  0.9582
 7184TIP3   OH242966   0.312   5.117  15.145  0.1455  0.2376 -0.4402
 7184TIP3    H142967   0.377   5.111  15.075  1.1356  1.7224  0.2827
 7184TIP3    H242968   0.228   5.109  15.101  0.6469  2.8700 -2.0932
 7185TIP3   OH242969   4.970   0.374   5.243 -0.4280 -0.2473 -0.0895
 7185TIP3    H142970   5.044   0.314   5.250 -0.6975 -0.8705 -1.9034
 7185TIP3    H242971   4.895   0.323   5.271 -0.0858  0.8725  3.3657
 7186TIP3   OH242972   0.871   0.069  11.646 -0.3430  0.2620 -0.5337
 7186TIP3    H142973   0.938   0.016  11.690 -1.3892 -2.4020 -1.9342
 7186TIP3    H242974   0.893   0.063  11.553 -1.1600  1.3843 -0.8207
 7187TIP3   OH242975   3.163   1.437   0.403 -0.2515 -0.0504 -0.0419
 7187TIP3    H142976   3.142   1.347   0.427 -1.1336  0.0359 -0.4563
 7187TIP3    H242977   3.122   1.449   0.317 -0.0413  0.7073 -0.0419
 7188TIP3   OH242978   0.989   4.274   2.135 -0.5407 -0.5766  0.3285
 7188TIP3    H142979   1.006   4.311   2.049  2.8365  0.3188  1.2175
 7188TIP3    H242980   0.925   4.334   2.175  0.3923  0.9636 -0.3924
 7189TIP3   OH242981   4.030   6.141   5.820 -0.3975  0.0149 -0.2309
 7189TIP3    H142982   4.105   6.195   5.794 -0.5321 -0.1142 -0.8976
 7189TIP3    H242983   4.000   6.181   5.902 -0.2383  0.7098 -0.4988
 7190TIP3   OH242984   0.840   6.312   4.401 -0.0483 -0.3286  0.6253
 7190TIP3    H142985   0.830   6.308   4.306  2.2953 -0.5145  0.3089
 7190TIP3    H242986   0.773   6.373   4.431  1.3525  2.5008 -1.5931
 7191TIP3   OH242987   6.465   2.847  13.494 -0.4373  0.3033  0.3244
 7191TIP3    H142988   6.434   2.934  13.466 -1.7064 -0.2410  0.0003
 7191TIP3    H242989   6.554   2.864  13.526 -1.3386  2.0674  2.1435
 7192TIP3   OH242990   2.276   6.586   0.435  0.1652  0.3842 -0.2974
 7192TIP3    H142991   2.289   6.575   0.341  1.5269 -2.5833  0.1436
 7192TIP3    H242992   2.247   6.501   0.466 -0.6938  1.4089  1.9438
 7193TIP3   OH242993   4.284   3.809  17.197 -0.5525 -0.6140  0.0012
 7193TIP3    H142994   4.227   3.834  17.125  0.3395  1.1261 -0.1659
 7193TIP3    H242995   4.226   3.796  17.272 -1.3154 -0.5636 -0.5814
 7194TIP3   OH242996   6.671   1.622   2.951  0.5891 -0.6781  0.2148
 7194TIP3    H142997   6.713   1.652   3.032  0.4334  1.3345 -0.3796
 7194TIP3    H242998   6.577   1.624   2.970  0.6115 -2.1344  0.5715
 7195TIP3   OH242999   1.965   3.590   5.456  0.4884 -0.7482  0.0378
 7195TIP3    H143000   2.034   3.609   5.519  0.5471 -0.9336  0.0292
 7195TIP3    H243001   2.005   3.529   5.394  0.3063 -0.8852  0.0542
 7196TIP3   OH243002   5.932   4.712  13.212 -0.1709  0.1467 -0.0691
 7196TIP3    H143003   5.858   4.771  13.225 -0.5184 -0.1882 -0.4734
 7196TIP3    H243004   5.989   4.727  13.288 -0.5677  0.5288  0.1584
 7197TIP3   OH243005   6.196   6.423  16.222 -0.0108  0.0894 -0.4425
 7197TIP3    H143006   6.202   6.515  16.197  0.8065  0.2461  0.2870
 7197TIP3    H243007   6.102   6.409  16.237 -0.3792  0.3085 -2.2876
 7198TIP3   OH243008   2.769   2.536  16.778 -0.2344 -0.5245  0.3472
 7198TIP3    H143009   2.785   2.521  16.685  0.6477 -1.7701  0.6647
 7198TIP3    H243010   2.824   2.611  16.800  0.2625 -0.7906  0.0444
 7199TIP3   OH243011   1.363   0.371   0.337  0.2495  0.0725  0.1601
 7199TIP3    H143012   1.429   0.407   0.279  0.2413  0.3918  0.3454
 7199TIP3    H243013   1.283   0.368   0.284  0.3923 -0.2301 -0.0357
 7200TIP3   OH243014   2.316   6.446  11.528 -0.1689 -0.2111  0.0406
 7200TIP3    H143015   2.284   6.471  11.615  0.8017  1.3680 -0.0168
 7200TIP3    H243016   2.260   6.373  11.502 -3.6128  2.1621  0.0582
 7201TIP3   OH243017   5.892   2.411   5.892 -0.2082  0.1461 -0.2430
 7201TIP3    H143018   5.845   2.449   5.967  1.3599  3.1356 -0.6032
 7201TIP3    H243019   5.974   2.378   5.929 -0.6938 -1.1156 -0.2505
 7202TIP3   OH243020   5.568   4.783   3.421  0.1370  0.3403 -0.2637
 7202TIP3    H143021   5.588   4.815   3.333  1.9700 -0.1846 -0.0877
 7202TIP3    H243022   5.620   4.703   3.430 -1.7914 -0.9158  0.4866
 7203TIP3   OH243023   3.685   1.476  14.204  0.2651  0.0695 -0.5523
 7203TIP3    H143024   3.701   1.422  14.127  1.1941  0.5281 -0.6930
 7203TIP3    H243025   3.593   1.459  14.226  0.5080 -1.5127 -0.6187
 7204TIP3   OH243026   0.923   4.065   6.009  0.3690  0.2209 -0.4222
 7204TIP3    H143027   0.957   4.072   6.098 -0.5939  4.2658 -0.1861
 7204TIP3    H243028   0.965   3.987   5.973  2.0439 -0.6426  3.0070
 7205TIP3   OH243029   4.242   1.192  13.005  0.6093 -0.6041 -0.2497
 7205TIP3    H143030   4.312   1.255  13.024  1.1891 -1.3274  0.0932
 7205TIP3    H243031   4.206   1.169  13.090 -0.7335  0.4936 -0.4883
 7206TIP3   OH243032   3.756   4.516   1.335 -0.0116 -0.2123 -0.1506
 7206TIP3    H143033   3.760   4.443   1.397  1.2587  0.4969  0.6360
 7206TIP3    H243034   3.848   4.534   1.313 -0.1500  2.3478  1.1020
 7207TIP3   OH243035   1.729   5.694  13.930  0.2720 -0.0959  0.1198
 7207TIP3    H143036   1.754   5.782  13.903 -1.7776  0.3374 -0.5896
 7207TIP3    H243037   1.772   5.636  13.868 -0.2939  0.5789 -0.9382
 7208TIP3   OH243038   5.610   6.150   0.501 -0.0264  0.4804 -0.3080
 7208TIP3    H143039   5.578   6.126   0.588 -1.2871 -0.3229 -0.9573
 7208TIP3    H243040   5.701   6.177   0.515  0.2721 -1.0710  1.0390
 7209TIP3   OH243041   0.643   6.348   1.701 -0.1886 -0.0135  0.3950
 7209TIP3    H143042   0.681   6.300   1.775 -1.4675 -0.0844  1.0307
 7209TIP3    H243043   0.571   6.292   1.672 -0.7477  0.8066  0.1802
 7210TIP3   OH243044   2.960   6.207  13.396 -0.5961  0.1579 -0.4259
 7210TIP3    H143045   2.975   6.117  13.423  2.2308  0.6909  0.0719
 7210TIP3    H243046   2.962   6.204  13.300 -1.6765 -0.4293 -0.4498
 7211TIP3   OH243047   4.867   4.963  11.718 -0.4360 -0.0402  0.0504
 7211TIP3    H143048   4.906   5.050  11.716 -0.1255 -0.0489  2.4936
 7211TIP3    H243049   4.847   4.947  11.811 -1.3643 -2.1872 -0.4400
 7212TIP3   OH243050   4.820   2.616   1.178 -0.1179  0.0369 -0.1306
 7212TIP3    H143051   4.914   2.636   1.180  0.0889 -0.9856  0.8946
 7212TIP3    H243052   4.784   2.661   1.255 -0.2576 -0.5427  0.1495
 7213TIP3   OH243053   4.112   4.861   2.008  0.8510 -0.2488  0.3474
 7213TIP3    H143054   4.081   4.807   1.935  1.0472  0.3811 -0.2078
 7213TIP3    H243055   4.189   4.814   2.041 -0.0896 -1.3117  1.1118
 7214TIP3   OH243056   2.691   4.126   1.600  0.3084 -0.7238 -0.0503
 7214TIP3    H143057   2.620   4.065   1.619  1.9954 -2.4952  0.9459
 7214TIP3    H243058   2.765   4.071   1.578  1.4714  1.0542 -0.8124
 7215TIP3   OH243059   5.135   0.842   1.123 -0.5898  0.4981 -0.0217
 7215TIP3    H143060   5.109   0.934   1.113  0.3253  0.6934 -0.8037
 7215TIP3    H243061   5.078   0.794   1.063  1.3042  1.0305 -2.4185
 7216TIP3   OH243062   0.294   2.124   1.556  0.3192  0.7912 -0.0927
 7216TIP3    H143063   0.386   2.141   1.537  0.4574  0.9885  0.7146
 7216TIP3    H243064   0.247   2.185   1.499  0.5692 -1.0525 -2.3886
 7217TIP3   OH243065   2.571   4.393   6.298 -0.0690 -0.3711  0.6083
 7217TIP3    H143066   2.503   4.418   6.360 -1.5826 -1.3919 -0.5458
 7217TIP3    H243067   2.577   4.298   6.307  0.9736 -0.3252  0.4559
 7218TIP3   OH243068   2.747   3.945  15.077  0.6960  0.6816 -0.4348
 7218TIP3    H143069   2.833   3.981  15.059  0.1583  1.5901 -1.2701
 7218TIP3    H243070   2.686   4.005  15.034 -0.3795  0.2819  0.4697
 7219TIP3   OH243071   4.138   3.331   3.309 -0.0517 -0.5206  0.0283
 7219TIP3    H143072   4.069   3.267   3.293 -1.7408  0.2214  3.3545
 7219TIP3    H243073   4.170   3.311   3.397  0.8703  1.8656  0.3253
 7220TIP3   OH243074   6.334   3.857  15.839  0.1881  0.9515  0.0263
 7220TIP3    H143075   6.361   3.783  15.785  3.1066  1.7838  0.1720
 7220TIP3    H243076   6.238   3.854  15.838  0.0970 -0.1422 -3.6549
 7221TIP3   OH243077   5.594   3.613   5.132  0.3358  0.4873 -0.3163
 7221TIP3    H143078   5.543   3.538   5.103 -2.1497  1.4658  1.1078
 7221TIP3    H243079   5.576   3.681   5.067  1.8056  0.1637 -1.0899
 7222TIP3   OH243080   5.860   6.077  12.989 -0.2945 -0.7855 -0.6030
 7222TIP3    H143081   5.932   6.091  13.052 -1.1756 -1.0582  0.5011
 7222TIP3    H243082   5.810   6.159  12.991 -0.3129 -0.7874 -0.9710
 7223TIP3   OH243083   5.794   1.324   4.445 -0.3402 -0.3331 -0.5790
 7223TIP3    H143084   5.724   1.300   4.384 -1.6698  0.3956  0.6049
 7223TIP3    H243085   5.865   1.263   4.425 -2.4533 -3.3221  0.3364
 7224TIP3   OH243086   5.882   5.553   5.096  0.4221  0.5350  0.8242
 7224TIP3    H143087   5.897   5.488   5.166  0.9022 -0.0254  0.2131
 7224TIP3    H243088   5.857   5.500   5.020 -0.3058  1.1582  0.6211
 7225TIP3   OH243089   0.456   0.245   1.569 -0.7059  0.0775  0.1564
 7225TIP3    H143090   0.445   0.230   1.662 -1.5664  2.6118  0.5577
 7225TIP3    H243091   0.547   0.273   1.559 -0.0688 -1.9561 -0.0986
 7226TIP3   OH243092   4.259   5.558  14.494 -0.8052  0.2084  0.4248
 7226TIP3    H143093   4.284   5.649  14.477 -0.2882 -0.3085 -1.9262
 7226TIP3    H243094   4.274   5.547  14.588 -0.1033  2.3108  0.6267
 7227TIP3   OH243095   6.234   0.343   2.292  0.4591 -0.7046  0.4518
 7227TIP3    H143096   6.217   0.252   2.267  0.1192 -0.6937  0.6260
 7227TIP3    H243097   6.256   0.387   2.210  0.1367 -0.8387  0.2882
 7228TIP3   OH243098   4.433   2.800  13.264  0.0514 -0.1508 -0.5887
 7228TIP3    H143099   4.449   2.754  13.182  1.6735 -1.3837  0.3659
 7228TIP3    H243100   4.399   2.886  13.237  0.6420 -0.4743 -2.5283
 7229TIP3   OH243101   1.695   3.465   4.087  0.0971 -0.0488  0.2202
 7229TIP3    H143102   1.603   3.493   4.095  0.5406  2.0099 -1.0824
 7229TIP3    H243103   1.713   3.420   4.169 -2.0602 -0.4711  0.5401
 7230TIP3   OH243104   0.736   1.194  16.575 -0.4265 -0.0973  0.1875
 7230TIP3    H143105   0.720   1.120  16.517  1.2132  0.2327 -0.7533
 7230TIP3    H243106   0.829   1.214  16.564 -0.2149  0.4474  2.4107
 7231TIP3   OH243107   2.129   2.330   4.708 -0.1215  0.2836  0.2335
 7231TIP3    H143108   2.097   2.411   4.748 -0.3708  0.6164 -0.6213
 7231TIP3    H243109   2.217   2.351   4.677 -1.2988  1.2423 -2.7997
 7232TIP3   OH243110   5.739   1.139  15.682 -0.3381 -0.2485  0.0517
 7232TIP3    H143111   5.662   1.152  15.627  0.7466  2.5750 -0.9871
 7232TIP3    H243112   5.811   1.127  15.620  0.5419  0.4851  0.8988
 7233TIP3   OH243113   0.639   4.981   0.007 -0.9933 -0.8736 -0.2702
 7233TIP3    H143114   0.549   4.949  -0.002 -1.1640 -0.4958  0.0795
 7233TIP3    H243115   0.633   5.075  -0.009 -0.4440 -1.0341 -1.5866
 7234TIP3   OH243116   6.475   0.486   1.795  0.1292 -0.3120 -0.4959
 7234TIP3    H143117   6.429   0.568   1.778 -0.2964 -0.2568  0.8214
 7234TIP3    H243118   6.563   0.500   1.759 -0.1039  0.5117 -0.7636
 7235TIP3   OH243119   2.348   5.521  14.242 -0.2320  0.7099 -0.4928
 7235TIP3    H143120   2.289   5.579  14.291 -1.1627 -1.6693  1.4824
 7235TIP3    H243121   2.322   5.532  14.150 -1.9671  1.6752  0.0641
 7236TIP3   OH243122   1.501   6.251   4.373 -0.2386 -0.1308  0.1980
 7236TIP3    H143123   1.491   6.162   4.341 -0.9789  0.4929 -1.3899
 7236TIP3    H243124   1.456   6.305   4.309  0.9994  1.4808  0.6159
 7237TIP3   OH243125   4.051   1.923   4.813  0.1318 -0.3679  0.2589
 7237TIP3    H143126   3.993   1.979   4.866 -1.1631 -0.5522 -0.9142
 7237TIP3    H243127   4.056   1.841   4.861 -0.4239 -0.2770  0.4794
 7238TIP3   OH243128   6.304   0.889  13.334 -0.4364 -0.3206 -0.4901
 7238TIP3    H143129   6.245   0.938  13.277 -1.8092  0.5437  1.5608
 7238TIP3    H243130   6.374   0.952  13.355 -0.4247 -0.3291 -0.5025
 7239TIP3   OH243131   1.613   6.106  16.542  0.3421  0.0461 -0.5572
 7239TIP3    H143132   1.665   6.168  16.594 -1.2157  0.7261  0.2518
 7239TIP3    H243133   1.580   6.044  16.607 -4.0208  2.5281 -0.0321
 7240TIP3   OH243134   0.715   5.728  15.935  0.3988  0.1680  0.4041
 7240TIP3    H143135   0.801   5.691  15.916 -0.4067 -1.1368 -0.8757
 7240TIP3    H243136   0.675   5.743  15.849 -1.2072 -0.6158  0.9693
 7241TIP3   OH243137   1.588   5.567  14.661 -0.2069 -0.2720  0.3076
 7241TIP3    H143138   1.614   5.479  14.637  1.4044 -0.0096  0.9810
 7241TIP3    H243139   1.538   5.599  14.586  0.5394 -1.1910 -0.6016
 7242TIP3   OH243140   0.383   4.455   4.017  0.2327  0.4465  0.2941
 7242TIP3    H143141   0.477   4.444   4.030 -0.0305 -2.1705  0.6121
 7242TIP3    H243142   0.369   4.429   3.926 -0.1520  1.3165  0.0941
 7243TIP3   OH243143   4.166   4.965  16.259  0.6114  0.1864  0.0728
 7243TIP3    H143144   4.124   4.948  16.343  0.8480  1.0986  0.3845
 7243TIP3    H243145   4.196   5.055  16.265  2.4647 -0.3807 -0.2206
 7244TIP3   OH243146   6.778   3.927  16.692 -0.5391  0.1741  0.3600
 7244TIP3    H143147   6.846   3.930  16.624 -1.7639 -1.9465 -1.0975
 7244TIP3    H243148   6.782   4.013  16.734  1.1825  1.0966 -1.4980
 7245TIP3   OH243149   2.166   6.111  13.952 -0.5035  0.1812  0.6061
 7245TIP3    H143150   2.093   6.053  13.930 -0.4863 -0.4319  2.0550
 7245TIP3    H243151   2.235   6.052  13.980 -0.2981  0.8651  1.5854
 7246TIP3   OH243152   0.243   1.807   5.380 -0.3648 -0.2480  0.1884
 7246TIP3    H143153   0.216   1.716   5.370  0.2416 -0.4889  0.6414
 7246TIP3    H243154   0.316   1.804   5.442  1.2337  0.2774 -1.5798
 7247TIP3   OH243155   3.059   1.482   1.330  0.1334 -0.0770 -0.2124
 7247TIP3    H143156   3.112   1.436   1.264 -0.4144 -1.6040  0.3619
 7247TIP3    H243157   3.044   1.568   1.293  3.9684  0.9033  0.0472
 7248TIP3   OH243158   3.086   6.058   6.682  0.5525 -0.0586  0.2144
 7248TIP3    H143159   3.096   5.997   6.609 -1.0554  0.2008 -0.2820
 7248TIP3    H243160   3.093   6.004   6.760  0.3248 -0.6905 -0.1898
 7249TIP3   OH243161   3.748   4.849   0.412 -0.0926  0.7517 -0.4492
 7249TIP3    H143162   3.702   4.903   0.476 -0.0871  0.6293 -0.3408
 7249TIP3    H243163   3.840   4.854   0.438  0.2382  2.5096 -1.7622
 7250TIP3   OH243164   2.023   0.572  13.381  0.2507 -0.6613  0.3148
 7250TIP3    H143165   2.012   0.619  13.463 -0.1103 -0.7959  0.3441
 7250TIP3    H243166   1.979   0.489  13.394  0.7485 -0.9493  0.2056
 7251TIP3   OH243167   1.294   1.674  15.515 -0.8625  0.5396  0.3281
 7251TIP3    H143168   1.300   1.639  15.603 -3.4426 -3.0524 -0.7324
 7251TIP3    H243169   1.380   1.657  15.477 -0.8635 -1.2741  1.0582
 7252TIP3   OH243170   5.232   3.624   6.132 -0.0115 -0.7839 -0.3871
 7252TIP3    H143171   5.297   3.688   6.160 -0.4325 -0.3441 -0.3980
 7252TIP3    H243172   5.237   3.554   6.197 -1.0127  0.2480  0.8673
 7253TIP3   OH243173   4.448   2.661   3.350 -0.5503  0.0293  0.4652
 7253TIP3    H143174   4.431   2.684   3.259  0.1943 -2.7863 -0.4964
 7253TIP3    H243175   4.539   2.631   3.350 -0.9045 -1.1508  1.8711
 7254TIP3   OH243176   0.028   2.869  15.058  0.7619  0.1469  0.1438
 7254TIP3    H143177   0.064   2.877  14.970  1.1772 -0.5755  0.2353
 7254TIP3    H243178  -0.066   2.853  15.045  0.8695 -0.2262 -0.1803
 7255TIP3   OH243179   6.433   6.111  12.922  0.0542 -0.1205 -0.5429
 7255TIP3    H143180   6.388   6.154  12.995 -1.2437 -2.3779  0.0869
 7255TIP3    H243181   6.526   6.117  12.944 -0.2844 -0.3448  1.0874
 7256TIP3   OH243182   6.744   3.182   5.719 -0.0201 -0.4257  0.1317
 7256TIP3    H143183   6.659   3.226   5.719 -0.2588 -0.8778  0.4693
 7256TIP3    H243184   6.736   3.113   5.786  0.4751 -0.7284 -0.1120
 7257TIP3   OH243185   4.255   6.216   1.792  0.5462  0.8410 -0.3282
 7257TIP3    H143186   4.188   6.226   1.725 -0.2334  0.6031  0.3968
 7257TIP3    H243187   4.210   6.236   1.874  1.0924 -0.3401  0.2795
 7258TIP3   OH243188   4.256   4.353  12.090 -0.2212  0.0136 -0.0812
 7258TIP3    H143189   4.206   4.360  12.171  0.7450  0.5798  0.4928
 7258TIP3    H243190   4.197   4.385  12.022 -0.5541  0.9499  0.6212
 7259TIP3   OH243191   6.166   6.264  12.174  0.8748 -0.0433  0.4437
 7259TIP3    H143192   6.111   6.333  12.210 -0.5353 -0.2819 -1.1546
 7259TIP3    H243193   6.169   6.197  12.243 -1.0351 -0.1152  0.4924
 7260TIP3   OH243194   1.122   0.626  15.936 -0.0974 -0.2302 -0.0774
 7260TIP3    H143195   1.159   0.703  15.980 -0.4219 -0.3091  0.3419
 7260TIP3    H243196   1.082   0.575  16.006 -1.1167 -0.0774 -0.5280
 7261TIP3   OH243197   2.068   6.149  10.454  0.0759  0.4273  0.9166
 7261TIP3    H143198   1.975   6.162  10.435  0.3964  1.0510 -0.3422
 7261TIP3    H243199   2.089   6.215  10.520  0.1234  1.8689 -0.4883
 7262TIP3   OH243200   6.761   0.970  11.244  0.2887  0.2198 -0.1863
 7262TIP3    H143201   6.670   0.982  11.215 -0.1644  0.4259  1.2556
 7262TIP3    H243202   6.796   0.904  11.185 -1.3029 -1.0451  0.2155
 7263TIP3   OH243203   6.457   5.920  14.745 -0.1105  0.3601 -0.0549
 7263TIP3    H143204   6.539   5.952  14.783 -0.5632  1.4993  0.0173
 7263TIP3    H243205   6.476   5.830  14.717  1.1775  0.6391 -0.1281
 7264TIP3   OH243206   1.857   5.001   2.154  0.2329  1.1495 -0.5718
 7264TIP3    H143207   1.899   5.030   2.235 -0.4281  0.9220 -0.1359
 7264TIP3    H243208   1.778   5.055   2.148  0.6665  1.6887 -1.4629
 7265TIP3   OH243209   1.535   5.423   2.987 -0.4458  0.4705  0.0745
 7265TIP3    H143210   1.571   5.342   2.951  0.5414  1.1089 -0.4199
 7265TIP3    H243211   1.461   5.444   2.930 -0.2405  0.3100 -0.2533
 7266TIP3   OH243212   1.181   0.315   1.297  0.1761  0.0482  0.3441
 7266TIP3    H143213   1.274   0.322   1.273  0.2412 -0.8985  0.2796
 7266TIP3    H243214   1.180   0.258   1.374 -0.4399 -0.8852 -0.3392
 7267TIP3   OH243215   2.233   6.076   2.298  0.5013  0.4645 -0.6848
 7267TIP3    H143216   2.306   6.076   2.236  0.5217 -2.2568 -0.7750
 7267TIP3    H243217   2.270   6.037   2.378 -0.4043  0.7658 -0.1062
 7268TIP3   OH243218   5.001   4.254  17.049 -0.0318  0.5558  0.4911
 7268TIP3    H143219   4.921   4.297  17.077  0.7165  1.6380  1.0191
 7268TIP3    H243220   5.017   4.287  16.960 -0.9622 -0.8306 -0.2349
 7269TIP3   OH243221   4.135   4.170  16.070 -0.1953 -0.1732 -0.5099
 7269TIP3    H143222   4.230   4.163  16.078  0.0231  1.9075 -0.6154
 7269TIP3    H243223   4.113   4.116  15.995  1.0256 -0.0872 -0.9477
 7270TIP3   OH243224   3.618   4.874  11.913  0.2007  0.2374  0.7729
 7270TIP3    H143225   3.567   4.865  11.994 -1.4676  0.2085 -0.2263
 7270TIP3    H243226   3.593   4.960  11.879  1.1742  0.4075  0.4812
 7271TIP3   OH243227   3.986   0.775   2.445  0.4374 -0.7595  0.1341
 7271TIP3    H143228   4.047   0.790   2.372  1.7007  1.2637  1.5131
 7271TIP3    H243229   4.002   0.685   2.472  0.4590 -1.3137 -1.5990
 7272TIP3   OH243230   2.985   3.763  12.010  0.1587 -0.5015  0.1512
 7272TIP3    H143231   2.931   3.719  12.076 -3.0210  1.3045 -1.0214
 7272TIP3    H243232   2.952   3.729  11.927 -0.9728  2.3744 -0.6852
 7273TIP3   OH243233   5.428   3.349   5.092 -0.5039 -0.1611  0.5143
 7273TIP3    H143234   5.389   3.262   5.082  0.9571 -0.7578 -0.2421
 7273TIP3    H243235   5.424   3.367   5.186 -1.3749 -0.7659  0.6038
 7274TIP3   OH243236   2.252   2.151   2.057 -0.5912 -0.2866  0.4079
 7274TIP3    H143237   2.300   2.211   2.113 -1.0142  1.0952 -0.6536
 7274TIP3    H243238   2.317   2.089   2.026  0.3180  0.9017 -0.1402
 7275TIP3   OH243239   1.453   3.041  14.030  0.6129  0.2392 -0.1405
 7275TIP3    H143240   1.378   2.993  13.995  0.4023  0.6269 -0.2146
 7275TIP3    H243241   1.521   3.030  13.963  1.2815 -1.7337  0.7621
 7276TIP3   OH243242   6.054   1.418   0.271 -0.0246 -0.6995 -0.4817
 7276TIP3    H143243   6.112   1.483   0.312 -0.9376 -0.7076  0.8873
 7276TIP3    H243244   6.030   1.457   0.188 -1.7280  1.4749  0.9154
 7277TIP3   OH243245   4.158   3.833   5.513  0.3511  0.5931 -0.2367
 7277TIP3    H143246   4.144   3.784   5.432  0.7577 -1.2334  0.7300
 7277TIP3    H243247   4.221   3.901   5.490 -1.3198  1.6796 -1.9715
 7278TIP3   OH243248   6.321   2.922   1.899 -0.4986 -0.3995  0.3865
 7278TIP3    H143249   6.374   3.002   1.896  0.1730 -0.8550 -0.3739
 7278TIP3    H243250   6.248   2.939   1.840  0.5348 -0.9406 -1.0977
 7279TIP3   OH243251   4.321   3.392  16.116  0.0185 -1.0900 -0.2609
 7279TIP3    H143252   4.234   3.373  16.150 -0.7079 -0.8561 -1.8988
 7279TIP3    H243253   4.369   3.426  16.191 -1.7212  0.1235  0.3560
 7280TIP3   OH243254   3.339   1.598  10.926  0.1218  0.1237 -0.4620
 7280TIP3    H143255   3.299   1.527  10.977 -0.5220  0.6892 -0.1678
 7280TIP3    H243256   3.429   1.603  10.959 -0.2114  0.3085  0.4443
 7281TIP3   OH243257   4.646   2.579  14.499  0.4281  0.0772 -0.4326
 7281TIP3    H143258   4.571   2.520  14.509 -0.5489  1.3815  0.2265
 7281TIP3    H243259   4.651   2.596  14.406 -0.5053  0.4697 -0.4235
 7282TIP3   OH243260   0.208   6.340  16.648 -0.7211  0.5099  0.0354
 7282TIP3    H143261   0.127   6.291  16.661 -0.8588 -0.2897 -3.0064
 7282TIP3    H243262   0.276   6.274  16.641 -0.1884  1.0335  0.1680
 7283TIP3   OH243263   3.149   1.918   0.920 -0.7233 -0.1074 -0.1780
 7283TIP3    H143264   3.167   1.893   1.011  0.5835 -0.4713 -0.5042
 7283TIP3    H243265   3.211   1.989   0.902 -0.2927 -0.6863 -1.0579
 7284TIP3   OH243266   1.158   3.286  13.930  0.5849 -0.0833  0.2015
 7284TIP3    H143267   1.229   3.270  13.868  0.2470 -0.7741 -0.0214
 7284TIP3    H243268   1.192   3.254  14.014  0.8204  0.2999  0.2545
 7285TIP3   OH243269   5.925   5.942   0.999 -0.3820 -0.1416 -0.1542
 7285TIP3    H143270   5.842   5.964   1.042 -2.5296 -2.4493 -2.7315
 7285TIP3    H243271   5.955   5.863   1.044 -0.2672 -0.0814 -0.1217
 7286TIP3   OH243272   0.512   0.250  14.269  0.2385  0.3860 -0.0035
 7286TIP3    H143273   0.589   0.199  14.293  0.6667 -0.1847 -2.3451
 7286TIP3    H243274   0.535   0.290  14.185 -1.0099  2.4898  0.5859
 7287TIP3   OH243275   2.349   3.306   6.090 -0.4425 -0.1845  0.1914
 7287TIP3    H143276   2.444   3.317   6.089 -0.4443 -0.1367  0.6473
 7287TIP3    H243277   2.328   3.287   6.181 -0.7441 -1.3290 -0.0995
 7288TIP3   OH243278   4.247   1.503   3.224 -0.3723 -0.0581 -0.3797
 7288TIP3    H143279   4.214   1.492   3.134 -2.8472  1.5555  0.2544
 7288TIP3    H243280   4.316   1.568   3.216  1.4870 -2.0251 -1.4528
 7289TIP3   OH243281   0.041   4.169   0.515 -0.6421 -0.0517 -0.1379
 7289TIP3    H143282   0.050   4.137   0.605 -2.6040  2.5686  1.1461
 7289TIP3    H243283   0.001   4.256   0.525  0.8898  1.1970 -3.4611
 7290TIP3   OH243284   0.078   5.548   2.566  0.0897  0.0492  0.3724
 7290TIP3    H143285  -0.016   5.532   2.555  0.2196  0.0362 -0.8503
 7290TIP3    H243286   0.116   5.524   2.482  0.9900  1.5152  0.3274
 7291TIP3   OH243287   2.472   1.825  14.728  0.4956  0.3040  0.1266
 7291TIP3    H143288   2.388   1.846  14.688  0.4902 -3.1736 -2.1106
 7291TIP3    H243289   2.459   1.839  14.822 -2.6700 -0.3601 -0.1235
 7292TIP3   OH243290   6.443   6.404   5.826  0.2395  0.3833 -0.3823
 7292TIP3    H143291   6.435   6.340   5.755  2.3195 -1.6487  1.0713
 7292TIP3    H243292   6.535   6.431   5.823 -0.2737  2.2567 -0.0599
 7293TIP3   OH243293   3.841   4.484  16.305  0.2718  0.0638  0.5235
 7293TIP3    H143294   3.751   4.516  16.298 -0.6570 -1.4034  3.7698
 7293TIP3    H243295   3.890   4.557  16.344  0.1472  0.3486  0.1506
 7294TIP3   OH243296   2.911   6.075   3.662  0.2070 -0.1961  0.0592
 7294TIP3    H143297   2.928   6.151   3.606  1.9070  0.1578  0.9897
 7294TIP3    H243298   2.949   6.001   3.615 -0.6601 -0.3568 -0.4248
 7295TIP3   OH243299   3.262   0.018  14.242  0.0119  0.2061 -0.0887
 7295TIP3    H143300   3.238   0.084  14.307  0.5677 -0.5588  0.9046
 7295TIP3    H243301   3.354   0.035  14.222  0.1511 -0.2406  0.1527
 7296TIP3   OH243302   4.675   3.034  11.710 -0.1835  0.5645 -0.2367
 7296TIP3    H143303   4.687   3.122  11.746 -1.0773  0.2546  0.8766
 7296TIP3    H243304   4.761   2.992  11.720  0.2341  1.2855 -0.7308
 7297TIP3   OH243305   4.316   4.648   2.171  0.4068 -0.3877  0.2981
 7297TIP3    H143306   4.302   4.580   2.237  0.0869 -1.4049 -0.7752
 7297TIP3    H243307   4.408   4.671   2.180  0.5460 -1.0350  0.6208
 7298TIP3   OH243308   0.878   5.043   2.093 -0.1028  0.4293  0.1447
 7298TIP3    H143309   0.913   4.976   2.034 -1.3675  1.8240 -2.3543
 7298TIP3    H243310   0.955   5.095   2.119  0.5660 -0.6036  0.3008
 7299TIP3   OH243311   3.150   2.368  13.045  0.2878  0.0533 -1.1066
 7299TIP3    H143312   3.117   2.329  13.126  0.9717 -1.3467 -1.4577
 7299TIP3    H243313   3.243   2.347  13.045  0.5882  1.2947 -1.5838
 7300TIP3   OH243314   2.177   3.022  11.952  0.2195  0.0399  0.4197
 7300TIP3    H143315   2.100   3.066  11.988  0.4962  0.0147  1.0481
 7300TIP3    H243316   2.143   2.940  11.917 -0.7192  1.6279 -2.8100
 7301TIP3   OH243317   2.414   3.643   0.608 -0.0364 -0.1289 -0.2598
 7301TIP3    H143318   2.355   3.678   0.541  0.6393 -1.0983 -1.4066
 7301TIP3    H243319   2.452   3.721   0.649 -1.1555  0.4887 -0.3490
 7302TIP3   OH243320   6.101   0.001   4.978 -0.6110 -0.4373  0.4680
 7302TIP3    H143321   6.105  -0.027   4.887 -2.4940  0.3882  0.0660
 7302TIP3    H243322   6.164   0.073   4.984 -1.0369  0.0416 -0.4372
 7303TIP3   OH243323   2.328   2.647   1.066  0.1052 -0.1286 -0.1012
 7303TIP3    H143324   2.380   2.582   1.113  0.6404  0.2205 -0.1948
 7303TIP3    H243325   2.315   2.609   0.979  1.9400  0.6097 -0.7642
 7304TIP3   OH243326   3.323   6.447   2.203  0.1498 -0.3176 -0.4769
 7304TIP3    H143327   3.232   6.460   2.176 -0.4907 -2.4908  0.4320
 7304TIP3    H243328   3.333   6.502   2.281 -0.2021  0.3330 -0.8782
 7305TIP3   OH243329   2.812   2.439   4.897  0.1397 -0.3119 -0.1971
 7305TIP3    H143330   2.904   2.457   4.915  0.3840  0.5936 -2.1295
 7305TIP3    H243331   2.764   2.491   4.962  0.9787  0.7901 -0.4301
 7306TIP3   OH243332   5.856   1.008  12.029  0.2582  0.6149 -0.3608
 7306TIP3    H143333   5.878   1.098  12.050  0.8797  0.7878 -1.6026
 7306TIP3    H243334   5.919   0.984  11.960  1.9187 -1.6595  1.7591
 7307TIP3   OH243335   6.331   4.130   1.599  0.0418 -0.4236 -0.5339
 7307TIP3    H143336   6.341   4.160   1.689  3.1394  1.5645 -1.3724
 7307TIP3    H243337   6.386   4.051   1.594 -0.6359 -0.9046 -0.5681
 7308TIP3   OH243338   0.137   0.067   5.624 -0.3884 -0.0231  0.0743
 7308TIP3    H143339   0.216   0.075   5.677 -0.6431 -3.4242  1.2012
 7308TIP3    H243340   0.066   0.087   5.684 -0.5325 -1.0743  0.2817
 7309TIP3   OH243341   0.206   5.942   5.645 -0.3198  0.5185 -0.2549
 7309TIP3    H143342   0.235   5.871   5.587 -0.1282 -0.7129  1.2761
 7309TIP3    H243343   0.285   5.968   5.692 -0.0928  2.7101 -1.6739
 7310TIP3   OH243344   6.030   4.786  17.171  0.7465  0.4722 -0.5366
 7310TIP3    H143345   6.034   4.867  17.222  1.4939  1.2162 -1.7275
 7310TIP3    H243346   6.054   4.813  17.082 -1.6004 -0.5783 -1.5683
 7311TIP3   OH243347   2.141   0.406  12.125  0.1731  0.9678 -0.2427
 7311TIP3    H143348   2.188   0.323  12.127 -0.8776  0.3334 -1.1236
 7311TIP3    H243349   2.209   0.471  12.109  1.1077  0.3867  1.1013
 7312TIP3   OH243350   3.725   4.703   3.513 -0.2539  0.2059 -0.0614
 7312TIP3    H143351   3.727   4.765   3.440 -0.9146 -0.0591 -0.3118
 7312TIP3    H243352   3.764   4.623   3.478  0.0120  0.2771  0.0695
 7313TIP3   OH243353   0.310   3.644  14.240  0.4852  0.3301  0.4180
 7313TIP3    H143354   0.345   3.730  14.263  0.2683  1.0224 -1.5677
 7313TIP3    H243355   0.220   3.661  14.212  0.3923 -0.5639  0.1205
 7314TIP3   OH243356   3.778   6.225  14.170  0.1294  0.6920  1.3665
 7314TIP3    H143357   3.819   6.237  14.084  0.6946  1.0668  1.6811
 7314TIP3    H243358   3.795   6.307  14.216 -3.0522  1.8560  0.6998
 7315TIP3   OH243359   5.240   2.671   6.122  0.0711  0.4928  0.4510
 7315TIP3    H143360   5.322   2.620   6.124 -1.1852 -1.7777 -1.4592
 7315TIP3    H243361   5.174   2.610   6.156 -1.3706  1.0984 -1.1635
 7316TIP3   OH243362   4.168   6.220   1.286 -0.2474  0.3463  0.0170
 7316TIP3    H143363   4.081   6.180   1.284  1.0549 -2.7136 -0.7100
 7316TIP3    H243364   4.215   6.172   1.354  0.6555  2.6195  1.1062
 7317TIP3   OH243365   0.689   6.793   4.484  0.3462 -0.5380 -0.0070
 7317TIP3    H143366   0.618   6.857   4.498 -0.0059 -0.6415 -1.2482
 7317TIP3    H243367   0.697   6.749   4.569  0.6490  1.1762  0.9200
 7318TIP3   OH243368   5.599   0.816   0.499  0.0775 -0.1610  0.3407
 7318TIP3    H143369   5.540   0.883   0.535 -1.1574 -0.6516 -0.6682
 7318TIP3    H243370   5.671   0.866   0.461 -1.8442  0.8597 -2.3151
 7319TIP3   OH243371   0.145   0.816   1.375  0.0945 -0.1472  0.1181
 7319TIP3    H143372   0.147   0.785   1.285  1.2605  0.9535 -0.2691
 7319TIP3    H243373   0.061   0.862   1.382  1.2610  2.4503 -1.4256
 7320TIP3   OH243374   0.374   1.358   4.538 -0.6332 -0.1528 -0.5158
 7320TIP3    H143375   0.352   1.408   4.459 -1.0516 -0.1848 -0.4219
 7320TIP3    H243376   0.381   1.423   4.607  1.7992  0.1487 -0.9552
 7321TIP3   OH243377   6.119   2.277  14.594 -0.2398 -0.6012 -0.0993
 7321TIP3    H143378   6.032   2.298  14.629  0.3317  1.6965  0.0890
 7321TIP3    H243379   6.115   2.304  14.502 -0.1342 -1.8431 -0.4940
 7322TIP3   OH243380   2.290   3.323   3.427  0.2998 -0.0980 -0.3743
 7322TIP3    H143381   2.323   3.235   3.408  0.2750 -0.1078 -0.3713
 7322TIP3    H243382   2.209   3.308   3.475  0.8165 -0.0771  0.5254
 7323TIP3   OH243383   2.402   3.699  14.223 -0.1887  0.9342 -0.0923
 7323TIP3    H143384   2.416   3.760  14.150 -0.1279  2.7890  1.3930
 7323TIP3    H243385   2.424   3.613  14.187  3.3745  2.1895 -1.2913
 7324TIP3   OH243386   2.891   5.891  11.509  0.4705 -0.4690  0.4413
 7324TIP3    H143387   2.956   5.961  11.517  1.1512 -0.8447 -1.3511
 7324TIP3    H243388   2.879   5.880  11.415 -4.3271  1.4539  0.5757
 7325TIP3   OH243389   2.270   5.765   5.934  0.5381  0.1729 -0.1418
 7325TIP3    H143390   2.316   5.721   5.863 -1.7216 -0.0628 -1.5324
 7325TIP3    H243391   2.232   5.694   5.986  0.3823  0.4056  0.0659
 7326TIP3   OH243392   4.566   4.697  12.888  0.0981  0.6809 -0.3561
 7326TIP3    H143393   4.547   4.695  12.795 -1.5280  0.3157 -0.0408
 7326TIP3    H243394   4.480   4.700  12.931  0.8097  1.1995  1.1236
 7327TIP3   OH243395   4.966   5.451  10.570 -0.3006 -0.1308  0.4197
 7327TIP3    H143396   4.953   5.369  10.617  2.3976 -0.1339  1.3184
 7327TIP3    H243397   4.947   5.520  10.634 -1.8227 -0.0057 -0.1178
 7328TIP3   OH243398   3.712   1.214  13.627 -0.1487 -0.2543  0.2582
 7328TIP3    H143399   3.793   1.238  13.672 -1.1037  0.4814  1.6632
 7328TIP3    H243400   3.721   1.253  13.540  0.5070  0.8594  0.7991
 7329TIP3   OH243401   4.425   3.545  14.592 -0.4555  0.3362 -0.8203
 7329TIP3    H143402   4.410   3.606  14.520 -0.1063  0.6927 -0.5939
 7329TIP3    H243403   4.457   3.465  14.550  1.7545  1.2144 -0.9134
 7330TIP3   OH243404   0.316   6.505   0.238  0.1497 -0.1838  0.0649
 7330TIP3    H143405   0.401   6.462   0.244  0.6308  0.5896 -0.8508
 7330TIP3    H243406   0.277   6.469   0.158  0.1274  0.3106 -0.1547
 7331TIP3   OH243407   6.042   4.453  16.067 -0.0192  0.1538 -0.0139
 7331TIP3    H143408   5.954   4.429  16.098 -0.0048  0.3091  0.1472
 7331TIP3    H243409   6.096   4.452  16.145  0.0176  0.5451 -0.0340
 7332TIP3   OH243410   5.626   3.832   4.170 -0.0959  0.4839 -0.1693
 7332TIP3    H143411   5.560   3.830   4.240  1.0851  0.0409  0.9596
 7332TIP3    H243412   5.599   3.761   4.111 -1.3792  1.1758 -0.4447
 7333TIP3   OH243413   6.145   1.893   5.998 -0.1596  0.6855  0.4862
 7333TIP3    H143414   6.121   1.960   5.934 -1.2396  1.5151  1.7106
 7333TIP3    H243415   6.217   1.931   6.047  1.0856 -0.2025 -0.6017
 7334TIP3   OH243416   3.588   1.279  11.421  0.5177 -0.5460 -0.1304
 7334TIP3    H143417   3.597   1.374  11.421  2.9826 -0.7166 -1.0052
 7334TIP3    H243418   3.538   1.259  11.342 -0.1854 -0.0133  0.1617
 7335TIP3   OH243419   0.920   5.855  11.835 -0.2573  0.2389  0.4385
 7335TIP3    H143420   0.912   5.797  11.911  0.9366  1.3385  1.4439
 7335TIP3    H243421   1.006   5.895  11.844 -0.8699  1.8636 -0.4420
 7336TIP3   OH243422   5.146   1.964   1.893  0.0097 -0.2862  0.2993
 7336TIP3    H143423   5.110   2.039   1.846  0.7490 -0.2013 -0.1527
 7336TIP3    H243424   5.170   1.998   1.979  1.2805  0.2712 -0.2393
 7337TIP3   OH243425   6.788   1.313   5.658 -0.0407  0.0673  0.3108
 7337TIP3    H143426   6.873   1.330   5.698 -0.1802 -1.2972  1.2792
 7337TIP3    H243427   6.787   1.219   5.642 -1.5316 -0.0272  0.7539
 7338TIP3   OH243428   2.883   0.051   3.205 -0.2232  0.0878  0.4719
 7338TIP3    H143429   2.917   0.050   3.294  0.9744  0.1115  0.0321
 7338TIP3    H243430   2.941  -0.007   3.156 -0.2936  0.8016 -0.4954
 7339TIP3   OH243431   3.860   0.090   3.691 -0.1981 -0.4022 -0.4172
 7339TIP3    H143432   3.922   0.110   3.760 -1.6716  2.2892  0.2813
 7339TIP3    H243433   3.774   0.096   3.733 -1.0867 -0.0440 -2.1611
 7340TIP3   OH243434   6.497   4.834  15.209  0.4687 -0.0536  0.0018
 7340TIP3    H143435   6.592   4.824  15.213  0.4670  0.1663  0.8917
 7340TIP3    H243436   6.470   4.782  15.134  1.4527  1.1009 -1.2096
 7341TIP3   OH243437   2.143   4.252   2.208  0.5621 -0.1208  0.0180
 7341TIP3    H143438   2.108   4.181   2.261 -0.1002 -0.1936 -0.5036
 7341TIP3    H243439   2.081   4.324   2.219  0.4808 -0.0945 -0.5520
 7342TIP3   OH243440   1.875   0.380  15.156 -0.1283  0.4018 -0.1667
 7342TIP3    H143441   1.953   0.329  15.179 -1.8986 -1.8754  1.2186
 7342TIP3    H243442   1.803   0.318  15.164 -2.5030  3.1327  1.6781
 7343TIP3   OH243443   1.745   2.947  11.401 -0.5892  0.4214  0.8261
 7343TIP3    H143444   1.713   2.937  11.311 -0.3051  2.1698  0.4959
 7343TIP3    H243445   1.817   3.010  11.394  2.3170 -2.5097  1.6967
 7344TIP3   OH243446   1.904   2.235   0.298 -0.3127  0.0009 -0.0844
 7344TIP3    H143447   1.834   2.175   0.324 -1.6035  1.7598  0.7013
 7344TIP3    H243448   1.896   2.243   0.203 -2.5865  1.7462  0.1753
 7345TIP3   OH243449   4.192   0.501  13.047  0.0544  0.0466  0.3034
 7345TIP3    H143450   4.156   0.433  12.989 -2.7791  0.3144  1.6010
 7345TIP3    H243451   4.281   0.471  13.066 -0.1569 -1.8712 -1.3391
 7346TIP3   OH243452   2.638   6.203  17.025 -0.0055  0.0884 -0.8622
 7346TIP3    H143453   2.682   6.128  17.066  1.8229  0.9982 -1.0589
 7346TIP3    H243454   2.709   6.263  17.003 -1.4059  1.8131 -0.8781
 7347TIP3   OH243455   0.277   5.206   3.714  0.3178  0.4923 -0.2490
 7347TIP3    H143456   0.351   5.174   3.766  0.0747  2.0652  1.1865
 7347TIP3    H243457   0.203   5.201   3.774 -0.4355  0.3112 -1.1893
 7348TIP3   OH243458   1.919   3.147  13.567 -0.2131  0.3888 -0.6135
 7348TIP3    H143459   1.995   3.092  13.547 -0.0863 -0.0695  0.9632
 7348TIP3    H243460   1.873   3.157  13.484  0.7835 -0.5504 -1.2967
 7349TIP3   OH243461   4.120   0.048   5.705  0.0647  0.8095  0.2841
 7349TIP3    H143462   4.127  -0.040   5.667  1.3022  1.0762 -0.1596
 7349TIP3    H243463   4.149   0.037   5.795  0.2518  0.7710  0.2189
 7350TIP3   OH243464   1.203   1.952   1.949 -0.3236 -0.5302 -0.3578
 7350TIP3    H143465   1.161   1.880   1.995 -2.3444 -0.4044 -1.8368
 7350TIP3    H243466   1.225   1.916   1.863  0.0906  0.1797 -0.5603
 7351TIP3   OH243467   5.980   6.436   1.060  0.7889  0.0064 -0.5332
 7351TIP3    H143468   6.009   6.351   1.024  0.7588  0.1054 -0.7938
 7351TIP3    H243469   5.987   6.496   0.986  2.2506  0.5689  0.0191
 7352TIP3   OH243470   6.344   2.519  15.381 -0.1334 -0.1350  0.4238
 7352TIP3    H143471   6.347   2.601  15.429 -1.5026  0.0530  0.2313
 7352TIP3    H243472   6.396   2.535  15.302  1.5993 -0.2447  1.4784
 7353TIP3   OH243473   6.074   1.881  12.513 -0.2324 -0.5978  0.0188
 7353TIP3    H143474   5.992   1.832  12.518  0.1296 -1.1445  0.9612
 7353TIP3    H243475   6.117   1.864  12.597 -0.6588  2.3994  0.9294
 7354TIP3   OH243476   2.077   4.388   1.207  0.5359  0.3805  0.1983
 7354TIP3    H143477   2.172   4.377   1.212  0.2349 -2.9452  0.3428
 7354TIP3    H243478   2.054   4.357   1.120 -0.5087  0.4196  0.4486
 7355TIP3   OH243479   6.729   0.128   3.109  0.1115 -0.3794 -0.3833
 7355TIP3    H143480   6.660   0.195   3.105 -0.1178 -0.5596  0.4233
 7355TIP3    H243481   6.792   0.163   3.172 -1.8937 -2.5786  3.2024
 7356TIP3   OH243482   1.317   5.200  12.139 -0.3480  0.3544 -0.1570
 7356TIP3    H143483   1.245   5.169  12.085  0.0857  1.1675 -1.2398
 7356TIP3    H243484   1.319   5.295  12.124  0.5926  0.4147  0.2786
 7357TIP3   OH243485   4.209   5.900  10.536  0.2255 -0.1132  0.3502
 7357TIP3    H143486   4.147   5.864  10.472  0.2810  0.2260  0.1023
 7357TIP3    H243487   4.295   5.876  10.502  0.3097  1.2241 -0.4227
 7358TIP3   OH243488   4.274   1.851   3.111 -0.3621  0.6825  0.0326
 7358TIP3    H143489   4.300   1.885   3.026  1.0971  1.5322  0.7704
 7358TIP3    H243490   4.346   1.793   3.137 -0.8421  0.3372  0.6363
 7359TIP3   OH243491   6.345   2.035  15.783  0.1806  0.6068 -0.5735
 7359TIP3    H143492   6.433   2.032  15.822  0.1853 -1.0055 -0.6509
 7359TIP3    H243493   6.361   2.041  15.689  0.2734 -1.5455 -0.7366
 7360TIP3   OH243494   2.900   6.175   0.914 -0.0013  0.2518  0.2659
 7360TIP3    H143495   2.971   6.190   0.976 -1.0786 -0.6162  1.8034
 7360TIP3    H243496   2.889   6.080   0.912 -0.6510  0.3298 -0.4657
 7361TIP3   OH243497   4.980   3.248   4.575  0.2679  0.2038  0.8846
 7361TIP3    H143498   4.913   3.240   4.507  1.1125 -0.0958  0.0729
 7361TIP3    H243499   5.045   3.181   4.554  0.6962  0.3068  1.8161
 7362TIP3   OH243500   3.696   4.991   0.632  0.1057 -0.5302  0.4458
 7362TIP3    H143501   3.730   4.997   0.721 -1.2977 -0.5531  1.0089
 7362TIP3    H243502   3.601   5.002   0.642  0.0542  0.8817 -1.2043
 7363TIP3   OH243503   0.483   6.178  11.350  0.2685 -0.0720  0.0040
 7363TIP3    H143504   0.423   6.235  11.397 -0.1229  0.1144 -0.7050
 7363TIP3    H243505   0.569   6.196  11.388  0.1010  0.7420  0.0146
 7364TIP3   OH243506   2.208   6.476   1.143  0.0652 -0.3779  0.0849
 7364TIP3    H143507   2.250   6.411   1.198 -0.1703 -0.5267  0.0931
 7364TIP3    H243508   2.262   6.554   1.151  0.4866 -0.6480 -0.1175
 7365TIP3   OH243509   6.169   2.548   3.004 -0.2700  0.6786  0.0163
 7365TIP3    H143510   6.166   2.459   2.970 -2.0958  0.8128 -0.2836
 7365TIP3    H243511   6.247   2.550   3.060 -0.2592 -1.1316  0.1205
 7366TIP3   OH243512   0.323   6.183   3.172  0.0290 -0.0471 -0.2236
 7366TIP3    H143513   0.299   6.204   3.082 -0.0956  0.9915  0.0397
 7366TIP3    H243514   0.258   6.118   3.200 -0.2217 -0.0135 -0.7173
 7367TIP3   OH243515   0.504   4.515  10.812 -0.1382  0.3061 -0.2302
 7367TIP3    H143516   0.437   4.502  10.879 -1.3865  2.5151 -0.9460
 7367TIP3    H243517   0.461   4.494  10.730 -0.6712  3.5078 -0.8947
 7368TIP3   OH243518   2.559   6.074  12.053 -0.4250  0.0285  0.3991
 7368TIP3    H143519   2.491   6.058  11.988 -1.3983  1.1842  1.0975
 7368TIP3    H243520   2.606   5.991  12.059  0.0060  0.0124 -2.0946
 7369TIP3   OH243521   0.083   3.374   0.408  0.2131  0.4241  0.0405
 7369TIP3    H143522   0.162   3.336   0.370 -0.7161  1.0698 -2.7880
 7369TIP3    H243523   0.024   3.299   0.421 -0.9003  0.4658 -3.7107
 7370TIP3   OH243524   1.742   6.468  14.800  0.1427 -0.2897 -0.4202
 7370TIP3    H143525   1.833   6.439  14.789  0.3648  0.6960 -1.3545
 7370TIP3    H243526   1.748   6.564  14.805 -0.5266 -0.2877  2.8615
 7371TIP3   OH243527   2.073   6.784  17.181 -0.2971 -0.0854  0.2952
 7371TIP3    H143528   2.074   6.854  17.116 -1.3984  0.4253  0.7991
 7371TIP3    H243529   2.147   6.728  17.157 -1.2062 -0.4345 -1.9718
 7372TIP3   OH243530   2.019   6.645  11.713 -0.2089 -0.1296 -0.3276
 7372TIP3    H143531   2.079   6.707  11.672 -0.2511  0.4562  0.4948
 7372TIP3    H243532   2.074   6.594  11.773 -0.0876 -1.1997 -1.2985
 7373TIP3   OH243533   4.662   4.032   2.136 -0.0812 -0.8225  0.3121
 7373TIP3    H143534   4.609   3.986   2.201  0.1798 -1.3642  0.1551
 7373TIP3    H243535   4.601   4.090   2.092  0.1864  1.4468  2.6963
 7374TIP3   OH243536   2.647   1.783  11.623 -0.6261  0.2343  0.0423
 7374TIP3    H143537   2.602   1.717  11.571 -0.3595  0.0783  0.0033
 7374TIP3    H243538   2.652   1.860  11.567 -1.4663  0.4882  0.3003
 7375TIP3   OH243539   1.955   0.370   0.719 -0.4250  0.2264 -0.6450
 7375TIP3    H143540   1.958   0.441   0.655 -1.7468  2.1059  1.2739
 7375TIP3    H243541   1.869   0.378   0.760  0.6067 -0.4889  1.8169
 7376TIP3   OH243542   1.394   5.337   0.522 -0.4927 -0.2997  0.1853
 7376TIP3    H143543   1.375   5.246   0.500  0.4570 -0.3620 -0.4253
 7376TIP3    H243544   1.402   5.338   0.617  0.1664 -0.9957  0.1474
 7377TIP3   OH243545   5.398   6.044   5.954  0.2889  0.1824 -0.2245
 7377TIP3    H143546   5.437   6.110   6.012 -0.4658  1.0922 -0.7406
 7377TIP3    H243547   5.331   6.002   6.008  1.3479 -0.7891  0.3846
 7378TIP3   OH243548   1.762   0.632  15.252  0.3291 -0.4585  0.6297
 7378TIP3    H143549   1.813   0.552  15.247  2.3572  0.8146 -3.5637
 7378TIP3    H243550   1.808   0.686  15.317  1.9074 -0.8633 -0.1197
 7379TIP3   OH243551   4.898   4.077  11.269  0.2349 -0.0341 -0.4132
 7379TIP3    H143552   4.931   4.146  11.211  0.3962 -0.2123 -0.5308
 7379TIP3    H243553   4.977   4.034  11.303  0.1437  0.0728 -0.0575
 7380TIP3   OH243554   3.519   1.345  15.884 -0.4757  0.1102  0.4971
 7380TIP3    H143555   3.593   1.291  15.857 -0.0434 -0.4292  2.5974
 7380TIP3    H243556   3.557   1.430  15.906 -0.5904  0.0825  0.8152
 7381TIP3   OH243557   0.833   2.500   4.649 -0.8852 -0.0112 -0.3587
 7381TIP3    H143558   0.803   2.495   4.740 -0.3393 -0.1823 -0.1845
 7381TIP3    H243559   0.900   2.432   4.642 -0.4844  0.4180 -0.7179
 7382TIP3   OH243560   1.688   1.456  10.950  0.0468 -0.6803 -0.2044
 7382TIP3    H143561   1.634   1.380  10.972 -0.8659  0.0886  0.3073
 7382TIP3    H243562   1.638   1.502  10.883 -0.2346  0.3723  0.7176
 7383TIP3   OH243563   0.421   4.147  15.721  0.4998  0.1784  0.3563
 7383TIP3    H143564   0.487   4.192  15.668 -0.0097 -0.0963 -0.5440
 7383TIP3    H243565   0.380   4.085  15.660 -1.6904  1.4548  0.4192
 7384TIP3   OH243566   5.984   5.819   5.834 -0.0403  0.6039  0.5640
 7384TIP3    H143567   5.944   5.781   5.912 -0.1481  1.2719  0.8385
 7384TIP3    H243568   6.077   5.830   5.857  0.3744 -1.0994 -0.1310
 7385TIP3   OH243569   4.263   3.506   2.800 -0.0678 -0.0122 -0.2053
 7385TIP3    H143570   4.355   3.481   2.787  0.2536  1.7322 -1.6607
 7385TIP3    H243571   4.244   3.479   2.890  1.3378 -1.9373 -0.4190
 7386TIP3   OH243572   2.336   2.943  14.138  0.4622 -0.3787  0.0939
 7386TIP3    H143573   2.312   3.028  14.101 -1.1272 -0.5919  0.5432
 7386TIP3    H243574   2.424   2.957  14.174 -0.0635  1.3230  0.8570
 7387TIP3   OH243575   0.219   2.631   0.788 -0.2982 -0.7065  0.0490
 7387TIP3    H143576   0.243   2.648   0.880  1.4947 -0.9324 -0.3396
 7387TIP3    H243577   0.125   2.646   0.785 -0.3842 -0.6031  1.9136
 7388TIP3   OH243578   5.374   4.349  17.145  0.1790  0.1138  0.1559
 7388TIP3    H143579   5.368   4.384  17.234 -0.4781  0.7436 -0.1268
 7388TIP3    H243580   5.454   4.297  17.145 -0.9594 -1.7507  1.7436
 7389TIP3   OH243581   2.523   4.123   5.979 -0.5187 -0.1066 -0.0668
 7389TIP3    H143582   2.614   4.132   5.953 -0.5320  1.9650  0.4544
 7389TIP3    H243583   2.487   4.059   5.917  0.6698  0.9507 -1.9365
 7390TIP3   OH243584   5.163   3.206  16.753 -0.6627 -0.2142 -0.0657
 7390TIP3    H143585   5.229   3.251  16.701  0.3073 -1.8576 -0.3229
 7390TIP3    H243586   5.179   3.237  16.843 -0.5519  0.5451 -0.3369
 7391TIP3   OH243587   4.070   5.493   1.479 -0.1537 -0.5822 -0.4008
 7391TIP3    H143588   4.048   5.417   1.533  0.7670 -1.0967 -0.7236
 7391TIP3    H243589   4.165   5.489   1.471 -0.1290  0.4435 -0.6708
 7392TIP3   OH243590   1.230   2.847   5.956  0.1129 -0.1882 -0.0642
 7392TIP3    H143591   1.310   2.797   5.968 -0.4670 -0.6392  2.5751
 7392TIP3    H243592   1.214   2.846   5.862  1.9565 -2.0444 -0.4134
 7393TIP3   OH243593   5.553   2.769   2.857  0.3995 -0.2477 -0.2944
 7393TIP3    H143594   5.492   2.750   2.786  1.7682  0.7503 -1.8224
 7393TIP3    H243595   5.532   2.858   2.884  1.2219  0.1577 -0.9295
 7394TIP3   OH243596   5.850   4.370  14.923 -0.2426  0.0856  0.8656
 7394TIP3    H143597   5.945   4.373  14.929 -0.1168  2.2029 -0.7596
 7394TIP3    H243598   5.831   4.307  14.854  0.1084  1.0247 -0.1065
 7395TIP3   OH243599   1.247   4.341  15.992 -0.7786 -0.3022  0.2795
 7395TIP3    H143600   1.206   4.425  16.013  0.5212  1.6828 -3.9343
 7395TIP3    H243601   1.178   4.291  15.948 -1.0305 -0.6663  1.0787
 7396TIP3   OH243602   5.258   4.361   1.060  0.1582  0.1941 -0.6560
 7396TIP3    H143603   5.311   4.427   1.105 -1.0113  0.0384  1.0067
 7396TIP3    H243604   5.287   4.366   0.969  1.2469  1.8544 -0.2625
 7397TIP3   OH243605   2.434   5.188  12.195 -0.4347  0.1908  0.6754
 7397TIP3    H143606   2.444   5.163  12.103 -2.0488  0.7178  0.3210
 7397TIP3    H243607   2.516   5.232  12.217  0.1128 -0.2578 -0.4060
 7398TIP3   OH243608   2.416   5.772  14.980  0.0743 -0.3528 -0.3054
 7398TIP3    H143609   2.417   5.827  14.902  1.3567  1.0213  0.6058
 7398TIP3    H243610   2.353   5.815  15.038 -0.4768 -1.0641 -0.3645
 7399TIP3   OH243611   0.580   4.756  10.689  0.2101  0.3209  0.8107
 7399TIP3    H143612   0.494   4.775  10.650  0.7707 -0.9227 -1.1932
 7399TIP3    H243613   0.570   4.669  10.727  0.1635  0.8259  1.9899
 7400TIP3   OH243614   2.791   5.839   2.896 -0.5478 -0.0603 -0.0098
 7400TIP3    H143615   2.759   5.757   2.858  0.2639 -0.3452 -0.1162
 7400TIP3    H243616   2.789   5.902   2.824  0.9713 -0.5943 -0.5702
 7401TIP3   OH243617   4.804   1.293  13.989  0.3339  0.3233  0.2078
 7401TIP3    H143618   4.879   1.265  14.041  0.2307 -0.9014 -0.2747
 7401TIP3    H243619   4.743   1.330  14.053  0.0053 -1.5873  1.0665
 7402TIP3   OH243620   2.754   6.237   1.312  0.4697  0.4304 -0.1919
 7402TIP3    H143621   2.835   6.186   1.309 -0.4959 -1.2736  1.0529
 7402TIP3    H243622   2.716   6.216   1.397 -1.5052  0.8225 -0.9264
 7403TIP3   OH243623   4.332   1.307   5.385  0.9286  0.0151 -0.3502
 7403TIP3    H143624   4.330   1.277   5.476 -0.3072 -0.8033 -0.6168
 7403TIP3    H243625   4.279   1.387   5.385  1.9823  0.7376 -0.1402
 7404TIP3   OH243626   6.232   3.834   2.616  0.2299  0.1423  0.0647
 7404TIP3    H143627   6.268   3.878   2.539  1.9898 -4.2658 -2.0198
 7404TIP3    H243628   6.138   3.846   2.608  0.4744  1.4576 -1.6578
 7405TIP3   OH243629   3.202   3.780  15.245  0.2725  0.4779  0.3298
 7405TIP3    H143630   3.271   3.846  15.238  0.6816  0.0599  0.3233
 7405TIP3    H243631   3.140   3.801  15.175  0.6902  0.5217 -0.0304
 7406TIP3   OH243632   0.770   3.292   1.662 -0.3042 -0.1150 -0.4328
 7406TIP3    H143633   0.769   3.268   1.569 -0.0070 -1.3288 -0.1443
 7406TIP3    H243634   0.679   3.289   1.689 -0.7531  2.8471 -1.2692
 7407TIP3   OH243635   3.322   5.874  13.342 -0.1670  0.2181 -1.0197
 7407TIP3    H143636   3.266   5.796  13.349 -0.2741 -0.0509 -3.7675
 7407TIP3    H243637   3.327   5.891  13.248  2.8028  1.3920 -0.7451
 7408TIP3   OH243638   5.462   0.756  14.052 -0.1437  0.2955  0.3003
 7408TIP3    H143639   5.544   0.806  14.049 -0.4325  0.7578 -0.2348
 7408TIP3    H243640   5.395   0.823  14.064 -0.3933 -0.1398  1.3803
 7409TIP3   OH243641   5.858   1.749  16.067 -0.0352 -0.2723  0.5860
 7409TIP3    H143642   5.824   1.684  16.129  0.9441 -1.3142  0.0643
 7409TIP3    H243643   5.952   1.753  16.085  0.2447 -0.5147 -0.7319
 7410TIP3   OH243644   2.869   5.860   0.941 -0.5252 -0.0162  0.2320
 7410TIP3    H143645   2.826   5.778   0.918 -1.1216 -0.0383  1.3381
 7410TIP3    H243646   2.947   5.864   0.885 -0.1136 -1.6598  0.6460
 7411TIP3   OH243647   6.148   0.433  15.945  0.0974  0.5483 -0.7309
 7411TIP3    H143648   6.191   0.418  15.860  0.2201 -0.8391 -0.4507
 7411TIP3    H243649   6.055   0.431  15.925  0.1193  2.3308 -1.1463
 7412TIP3   OH243650   2.597   1.979   3.934  0.5576  0.4060 -0.1153
 7412TIP3    H143651   2.542   1.959   3.858 -1.1042  0.2228  1.0997
 7412TIP3    H243652   2.667   1.914   3.931 -0.9127 -1.2299 -0.0754
 7413TIP3   OH243653   0.247   0.728  15.835 -0.1167  0.0420 -0.8682
 7413TIP3    H143654   0.246   0.730  15.739  1.2173 -1.9320 -0.9818
 7413TIP3    H243655   0.337   0.702  15.858 -1.2424 -2.9979  0.7370
 7414TIP3   OH243656   2.643   5.305   5.015  0.2304  0.0086  0.2502
 7414TIP3    H143657   2.724   5.268   4.978 -1.3166 -2.5950 -0.8395
 7414TIP3    H243658   2.666   5.395   5.038  3.2306 -0.4084 -0.6443
 7415TIP3   OH243659   0.793   5.636   0.774  0.2639  0.2405 -0.6533
 7415TIP3    H143660   0.887   5.624   0.790  0.0630 -1.2282 -0.4084
 7415TIP3    H243661   0.758   5.547   0.772 -1.4114  0.7996  1.0497
 7416TIP3   OH243662   6.784   6.752   4.099  0.0636  0.1349 -0.2911
 7416TIP3    H143663   6.775   6.686   4.168 -1.5122  1.0998  0.4854
 7416TIP3    H243664   6.750   6.709   4.020  0.0198 -0.3167 -0.0327
 7417TIP3   OH243665   5.986   0.263   2.766  0.3816 -0.4208  0.1319
 7417TIP3    H143666   5.892   0.267   2.745  0.5943 -0.6832 -0.9076
 7417TIP3    H243667   6.023   0.342   2.726  0.7409 -0.7345 -0.1501
 7418TIP3   OH243668   5.268   0.616  13.175 -0.3608  0.0361  0.7452
 7418TIP3    H143669   5.274   0.555  13.102  0.2836 -3.6962  3.6123
 7418TIP3    H243670   5.175   0.615  13.200 -0.3936  0.4734  0.6584
 7419TIP3   OH243671   5.176   1.191  15.646  0.6346  0.3140  0.1795
 7419TIP3    H143672   5.263   1.203  15.610  0.3720  0.5816 -0.3663
 7419TIP3    H243673   5.119   1.249  15.595 -0.0274 -0.5797 -0.1302
 7420TIP3   OH243674   5.137   5.244   0.201 -0.8281  0.1244 -0.2838
 7420TIP3    H143675   5.114   5.332   0.231 -0.1492  0.7550 -1.4999
 7420TIP3    H243676   5.143   5.253   0.106  2.6092 -0.3568 -0.2496
 7421TIP3   OH243677   2.048   0.219  15.243  0.0756 -0.3662  0.2970
 7421TIP3    H143678   2.090   0.177  15.318 -0.6470 -0.8416  0.4429
 7421TIP3    H243679   2.104   0.195  15.168  1.1033  0.5600  0.7445
 7422TIP3   OH243680   2.645   1.048  16.964 -0.2040 -0.2207 -0.0515
 7422TIP3    H143681   2.585   0.977  16.988 -1.3640  0.4685 -0.8080
 7422TIP3    H243682   2.698   1.062  17.043 -0.7942 -1.0952  0.5196
 7423TIP3   OH243683   2.260   1.852  13.896 -0.1508  0.3842 -0.1702
 7423TIP3    H143684   2.292   1.833  13.984 -1.0187  1.6658  0.4555
 7423TIP3    H243685   2.308   1.792  13.839 -0.0389 -0.9257  1.2383
 7424TIP3   OH243686   4.443   1.742   4.991  0.4944 -0.7466  0.5561
 7424TIP3    H143687   4.378   1.694   5.043  0.5961 -0.3078  1.1028
 7424TIP3    H243688   4.526   1.726   5.036  0.5244 -0.0330  0.7838
 7425TIP3   OH243689   1.586   2.347   5.755 -0.7406 -0.4209  0.2804
 7425TIP3    H143690   1.592   2.256   5.724  1.1036 -0.5000  0.7397
 7425TIP3    H243691   1.621   2.398   5.682  0.0380 -0.2664  0.7556
 7426TIP3   OH243692   1.686   0.957  14.047  0.4358  0.5816  0.8640
 7426TIP3    H143693   1.703   0.966  14.140 -0.2240 -1.1050  1.1887
 7426TIP3    H243694   1.601   1.000  14.034  0.3958  0.5711  1.0903
 7427TIP3   OH243695   1.231   5.446  11.930  0.5791 -0.1173 -0.2720
 7427TIP3    H143696   1.245   5.529  11.976  0.6595  0.3600 -1.1384
 7427TIP3    H243697   1.264   5.462  11.842 -1.8405 -0.2111 -1.2623
 7428TIP3   OH243698   5.828   5.545  16.607 -0.2570  0.1989 -0.1547
 7428TIP3    H143699   5.901   5.569  16.664 -0.0333 -1.4319  0.2842
 7428TIP3    H243700   5.750   5.569  16.656 -0.0386  0.7418 -0.0706
 7429TIP3   OH243701   4.876   3.877  13.330 -0.2142 -0.1325 -0.3188
 7429TIP3    H143702   4.925   3.948  13.372  1.1827 -0.2262 -1.6834
 7429TIP3    H243703   4.943   3.813  13.305 -1.2700 -1.1986 -0.5237
 7430TIP3   OH243704   2.565   1.909  14.018  0.0557 -0.2169 -0.5994
 7430TIP3    H143705   2.569   1.835  14.078 -0.7203  0.2051 -0.0058
 7430TIP3    H243706   2.590   1.985  14.071 -0.2652  0.1052 -0.8954
 7431TIP3   OH243707   4.044   4.354   5.282 -0.1505  0.3900 -0.1394
 7431TIP3    H143708   4.139   4.343   5.290  0.0904 -0.3211 -2.7787
 7431TIP3    H243709   4.026   4.438   5.323  2.1226  1.9830 -2.0712
 7432TIP3   OH243710   3.177   2.081   2.446  0.4124 -0.4470  0.1991
 7432TIP3    H143711   3.267   2.108   2.468  0.4737 -1.2884  1.0443
 7432TIP3    H243712   3.160   2.007   2.504 -0.5917 -0.7255 -0.4414
 7433TIP3   OH243713   5.620   0.449  15.717  0.2460 -0.1509 -0.7867
 7433TIP3    H143714   5.566   0.516  15.758 -1.3039 -0.4868 -2.1636
 7433TIP3    H243715   5.659   0.492  15.640  0.5087 -0.4098 -0.8031
 7434TIP3   OH243716   5.250   3.992   4.813  0.2336  0.4504  0.0697
 7434TIP3    H143717   5.313   4.057   4.844  0.6827 -1.0643  2.5835
 7434TIP3    H243718   5.184   3.987   4.882 -0.8306 -0.4075 -0.9756
 7435TIP3   OH243719   5.000   0.550  11.529 -0.0151 -0.6704  0.5999
 7435TIP3    H143720   5.074   0.491  11.540 -1.9357 -3.2244  0.8300
 7435TIP3    H243721   4.928   0.493  11.500 -2.3453  1.3484  2.0116
 7436TIP3   OH243722   1.341   2.415  16.314  0.1109 -0.0321  0.3973
 7436TIP3    H143723   1.436   2.420  16.326  0.0575  0.2349  0.7147
 7436TIP3    H243724   1.317   2.502  16.281 -0.2302  0.4046  1.7632
 7437TIP3   OH243725   0.859   3.052  15.053 -0.0111 -0.2842  0.1298
 7437TIP3    H143726   0.888   3.136  15.018  0.4106 -0.3152  0.4059
 7437TIP3    H243727   0.921   2.988  15.018  0.7280 -0.2529  1.3334
 7438TIP3   OH243728   4.241   1.177   5.635 -0.4890 -0.4839  0.7084
 7438TIP3    H143729   4.329   1.154   5.663 -1.4019 -3.8348  1.3284
 7438TIP3    H243730   4.197   1.205   5.716  0.6526  4.3148 -0.0634
 7439TIP3   OH243731   3.255   3.520   5.535 -0.0346 -0.3328 -0.3421
 7439TIP3    H143732   3.272   3.433   5.572 -1.9866 -0.9022 -0.6493
 7439TIP3    H243733   3.227   3.572   5.610 -2.3906 -1.0334 -0.6427
 7440TIP3   OH243734   5.397   4.431  11.913 -0.2048 -0.8595  0.4757
 7440TIP3    H143735   5.403   4.391  11.826 -1.1435 -0.9778  0.4547
 7440TIP3    H243736   5.452   4.376  11.968  2.5203  0.6679 -0.5010
 7441TIP3   OH243737   2.441   6.718   1.782 -0.7234 -0.4525 -0.2033
 7441TIP3    H143738   2.365   6.691   1.730 -1.4892  1.4246 -0.1539
 7441TIP3    H243739   2.458   6.808   1.754  0.9898 -0.5668  0.3777
 7442TIP3   OH243740   6.357   4.369  12.409 -0.3155  0.0330  0.5989
 7442TIP3    H143741   6.448   4.360  12.438  0.1865  0.7738 -0.6611
 7442TIP3    H243742   6.356   4.449  12.356 -1.3799 -0.7322 -0.6156
 7443TIP3   OH243743   4.983   4.946  15.433  0.1674  0.4588  0.1319
 7443TIP3    H143744   4.924   4.931  15.360  1.0354  0.6021 -0.6157
 7443TIP3    H243745   4.974   4.867  15.487 -2.5411  1.5109  1.3918
 7444TIP3   OH243746   5.796   1.756  12.473 -0.1817  0.5667 -0.2207
 7444TIP3    H143747   5.818   1.706  12.552  0.6199 -1.2446 -1.5082
 7444TIP3    H243748   5.705   1.783  12.487  0.2282  1.1086  1.6891
 7445TIP3   OH243749   5.051   2.908   0.017  0.0384 -0.0951  0.1369
 7445TIP3    H143750   5.103   2.986  -0.005 -1.4703  0.8534 -0.2799
 7445TIP3    H243751   4.984   2.941   0.077  1.2813 -1.7471  2.5891
 7446TIP3   OH243752   2.183   6.756  12.243 -0.5466  0.1262  0.0136
 7446TIP3    H143753   2.104   6.757  12.297 -0.1768 -0.8620  0.6036
 7446TIP3    H243754   2.255   6.759  12.307 -0.1045 -1.0784 -0.4028
 7447TIP3   OH243755   4.941   3.956  16.582 -0.2315  0.0404  0.6611
 7447TIP3    H143756   4.942   4.000  16.497  3.8414  0.4410  0.7006
 7447TIP3    H243757   4.915   4.024  16.644  0.4061  0.8486  0.0788
 7448TIP3   OH243758   4.427   4.711  16.499 -0.7392  0.0581 -0.1770
 7448TIP3    H143759   4.507   4.726  16.449 -0.3581  1.3877  0.7782
 7448TIP3    H243760   4.384   4.638  16.454  0.9226 -0.5921 -0.8036
 7449TIP3   OH243761   1.763   6.460  15.733 -0.0984 -0.4035  0.1071
 7449TIP3    H143762   1.681   6.427  15.698  0.7617 -1.1513 -1.2770
 7449TIP3    H243763   1.746   6.552  15.753 -1.0416 -0.3416 -0.9282
 7450TIP3   OH243764   0.713   5.417  11.557  0.8888  0.3368  0.1501
 7450TIP3    H143765   0.717   5.354  11.484  1.4256 -0.0120  0.4727
 7450TIP3    H243766   0.786   5.392  11.614  2.4269  2.5271 -0.7376
 7451TIP3   OH243767   1.555   2.649  16.974 -0.3349 -0.3960 -0.1285
 7451TIP3    H143768   1.590   2.736  16.955  1.2122 -0.6877  1.0870
 7451TIP3    H243769   1.523   2.616  16.890 -2.2553  1.8649 -0.3639
 7452TIP3   OH243770   5.478   3.180  15.127 -0.4852 -0.1665  0.6549
 7452TIP3    H143771   5.550   3.197  15.188  0.4010 -0.0373 -0.3860
 7452TIP3    H243772   5.435   3.265  15.116  1.5176  0.7017 -1.5168
 7453TIP3   OH243773   5.647   0.022   1.285  0.1141  0.3180 -0.0220
 7453TIP3    H143774   5.651   0.047   1.193  2.1285  0.2829  0.0087
 7453TIP3    H243775   5.595  -0.058   1.286  0.1526  0.2631 -1.1452
 7454TIP3   OH243776   4.685   0.188  11.101 -0.1158 -1.2025  0.0488
 7454TIP3    H143777   4.651   0.266  11.057  2.4468 -1.0653 -1.9824
 7454TIP3    H243778   4.664   0.201  11.193 -2.0694  0.5886 -0.5629
 7455TIP3   OH243779   1.487   0.853   1.642  0.0442  0.1052  0.7225
 7455TIP3    H143780   1.456   0.772   1.600 -0.0873  0.5389 -0.0235
 7455TIP3    H243781   1.511   0.825   1.731  0.2359 -0.8038  0.4016
 7456TIP3   OH243782   2.872   0.887  13.341  0.1467 -0.1152  0.3285
 7456TIP3    H143783   2.911   0.954  13.285  0.2549 -0.4808 -0.0428
 7456TIP3    H243784   2.919   0.895  13.424  0.0984  0.3228  0.3143
 7457TIP3   OH243785   1.767   5.265   3.322  0.3300  0.4749  0.3149
 7457TIP3    H143786   1.732   5.343   3.364 -0.1624  0.2000  0.4275
 7457TIP3    H243787   1.746   5.194   3.383 -0.5935  0.0378 -0.4913
 7458TIP3   OH243788   4.337   6.362  16.273  0.7815  0.4110 -0.3221
 7458TIP3    H143789   4.350   6.273  16.241  3.1025  0.2563  0.9106
 7458TIP3    H243790   4.269   6.354  16.340  0.5997 -0.3321 -0.5901
 7459TIP3   OH243791   4.688   0.451  13.731  0.3419 -0.5956 -0.6841
 7459TIP3    H143792   4.725   0.436  13.644  0.4443  0.6226 -0.8670
 7459TIP3    H243793   4.754   0.417  13.792  0.1375 -1.7246 -1.0696
 7460TIP3   OH243794   4.157   4.037  13.194  0.0273 -0.4035 -0.6114
 7460TIP3    H143795   4.085   4.093  13.165 -0.1560 -0.1479  0.2994
 7460TIP3    H243796   4.230   4.097  13.210 -0.0860 -0.4546  0.1100
 7461TIP3   OH243797   4.444   5.442   0.215  0.2387  0.1278 -0.2374
 7461TIP3    H143798   4.469   5.365   0.266 -0.2238 -0.7895 -1.3524
 7461TIP3    H243799   4.362   5.472   0.255 -0.0452 -0.4921 -0.3576
 7462TIP3   OH243800   4.299   0.717  15.947 -0.9204  0.3029  0.4790
 7462TIP3    H143801   4.365   0.778  15.979 -0.3276 -1.3769  2.6977
 7462TIP3    H243802   4.348   0.637  15.928 -1.8535  0.0921 -1.2140
 7463TIP3   OH243803   6.331   0.151   4.626 -0.2897 -0.2209 -0.2393
 7463TIP3    H143804   6.290   0.077   4.671  1.5642 -0.4390  1.1900
 7463TIP3    H243805   6.357   0.211   4.697  0.1615  0.7929 -1.2250
 7464TIP3   OH243806   4.400   6.694  14.445 -0.1040 -0.0100 -0.1086
 7464TIP3    H143807   4.440   6.614  14.410 -0.6715 -0.7509  0.8978
 7464TIP3    H243808   4.464   6.727  14.508 -1.1471 -1.3937  1.7720
 7465TIP3   OH243809   5.679   4.205  12.876  0.0369  0.2100 -0.0298
 7465TIP3    H143810   5.771   4.182  12.888  0.7345  2.1234 -1.2502
 7465TIP3    H243811   5.648   4.144  12.808  0.1858 -0.8692  0.8441
 7466TIP3   OH243812   2.458   6.073   2.106 -0.0872 -0.2444 -0.4114
 7466TIP3    H143813   2.509   6.092   2.184  1.0181 -1.5291 -0.7777
 7466TIP3    H243814   2.500   5.996   2.068 -0.1168  0.7672 -2.6772
 7467TIP3   OH243815   1.263   5.894  16.961 -0.1272 -0.4436 -0.7796
 7467TIP3    H143816   1.263   5.925  16.870 -2.5990  0.1841 -0.6562
 7467TIP3    H243817   1.184   5.933  16.999 -0.3411 -2.4629  1.0114
 7468TIP3   OH243818   2.572   3.345   2.628 -0.2564 -1.1449 -0.0594
 7468TIP3    H143819   2.633   3.359   2.555  1.2731  1.3740  1.5290
 7468TIP3    H243820   2.496   3.302   2.589  0.0326  1.0224 -3.3336
 7469TIP3   OH243821   5.083   3.623  14.816 -0.6523  0.1109  0.2644
 7469TIP3    H143822   5.074   3.559  14.745  1.9239 -0.1827  0.1195
 7469TIP3    H243823   5.072   3.572  14.896  0.4907 -0.3837  0.1285
 7470TIP3   OH243824   6.233   3.858  12.262 -0.3562 -0.0547  0.5577
 7470TIP3    H143825   6.215   3.951  12.277 -0.1803 -0.1209  1.2213
 7470TIP3    H243826   6.147   3.816  12.265 -0.7404  0.3498 -2.0289
 7471TIP3   OH243827   4.773   5.316   2.593 -0.3599 -0.0797  0.1177
 7471TIP3    H143828   4.765   5.410   2.607 -0.0288  0.4132 -2.4540
 7471TIP3    H243829   4.834   5.286   2.660 -0.5616  1.5078  1.0483
 7472TIP3   OH243830   4.659   2.368  14.875 -0.7159 -0.2265 -0.3969
 7472TIP3    H143831   4.717   2.428  14.829 -0.1920 -0.1087  0.3869
 7472TIP3    H243832   4.619   2.422  14.944 -1.5038 -0.3873 -0.7163
 7473TIP3   OH243833   1.013   4.634   1.030  0.1744  0.0531  0.1777
 7473TIP3    H143834   1.108   4.640   1.037  0.3647 -0.5691 -1.4983
 7473TIP3    H243835   0.981   4.666   1.114  1.8847 -0.5184  1.0956
 7474TIP3   OH243836   1.764   0.335   0.156  0.0642 -0.2819  0.5349
 7474TIP3    H143837   1.675   0.367   0.169  0.4497  1.5936 -1.0643
 7474TIP3    H243838   1.806   0.346   0.242 -0.8513  0.0214  0.9566
 7475TIP3   OH243839   0.388   2.445   1.607 -0.0527 -1.1694  0.4601
 7475TIP3    H143840   0.300   2.475   1.582  0.2604  0.9971  1.6839
 7475TIP3    H243841   0.372   2.379   1.674 -0.7685 -0.7648  0.7082
 7476TIP3   OH243842   0.675   2.135   5.347 -0.3357  0.2228 -0.2575
 7476TIP3    H143843   0.608   2.202   5.365 -0.9911 -0.3065 -0.6727
 7476TIP3    H243844   0.625   2.055   5.332  0.3658 -0.0606 -1.1549
 7477TIP3   OH243845   4.776   2.404  16.927  0.6342  0.1081 -0.4430
 7477TIP3    H143846   4.772   2.309  16.940 -1.5017  0.1590 -0.3278
 7477TIP3    H243847   4.838   2.435  16.994  1.4671 -1.1898 -0.5766
 7478TIP3   OH243848   5.043   2.033  15.993  0.3126  0.2329  0.4295
 7478TIP3    H143849   5.098   2.009  15.918 -1.0462 -0.8858 -0.2792
 7478TIP3    H243850   5.043   1.954  16.048 -0.8812  0.0339  0.1877
 7479TIP3   OH243851   5.399   1.325  15.823  0.5099 -0.2265  0.2957
 7479TIP3    H143852   5.462   1.381  15.778  0.7620  0.4918  1.4854
 7479TIP3    H243853   5.385   1.252  15.763  0.1873  1.0843 -1.2875
 7480TIP3   OH243854   4.654   4.997  15.225  0.8749  0.4001 -0.4696
 7480TIP3    H143855   4.598   4.998  15.303  0.1877 -0.4720 -0.9435
 7480TIP3    H243856   4.599   4.963  15.155  1.5685  0.9143 -1.2874
 7481TIP3   OH243857   4.148   3.056  13.920  0.4843  0.4000 -0.1116
 7481TIP3    H143858   4.224   3.090  13.969  1.7025  0.4546 -1.9456
 7481TIP3    H243859   4.078   3.051  13.985  1.9513  0.7038  1.5714
 7482TIP3   OH243860   0.264   3.351  11.160  0.5657 -0.3391  0.1125
 7482TIP3    H143861   0.178   3.363  11.199  0.9808 -0.5021  1.1140
 7482TIP3    H243862   0.286   3.259  11.178  1.2372 -0.1142  0.4691
 7483TIP3   OH243863   6.773   2.121  16.256  0.3731  0.8216  0.1284
 7483TIP3    H143864   6.756   2.205  16.212  0.3404  1.3609  1.1378
 7483TIP3    H243865   6.846   2.084  16.209 -0.3349  0.8812 -1.0561
 7484TIP3   OH243866   4.868   5.658   0.654  0.2044 -0.1637 -0.2730
 7484TIP3    H143867   4.831   5.576   0.623  0.4132  0.0956 -1.2492
 7484TIP3    H243868   4.800   5.697   0.709 -0.0748 -0.7611 -0.1928
 7485TIP3   OH243869   1.134   2.936  11.322 -0.0109  0.4005 -0.2826
 7485TIP3    H143870   1.073   2.955  11.393  0.0573 -0.2300 -0.0484
 7485TIP3    H243871   1.083   2.948  11.242 -1.3159 -2.8144 -0.0745
 7486TIP3   OH243872   3.085   5.427  15.568  0.3626  0.6556  0.4228
 7486TIP3    H143873   3.071   5.400  15.477  1.0722 -1.8255  0.9724
 7486TIP3    H243874   3.166   5.478  15.565  1.1188 -0.5382 -0.1895
 7487TIP3   OH243875   3.709   6.626   1.084  0.2035  0.0953  0.2289
 7487TIP3    H143876   3.627   6.578   1.090  0.3117 -0.0289  0.7727
 7487TIP3    H243877   3.693   6.693   1.017 -0.3556  0.1089  0.3718
 7488TIP3   OH243878   6.386   3.319   1.667 -0.2179  0.0951  0.0734
 7488TIP3    H143879   6.382   3.399   1.719  0.1582 -0.8463  1.6005
 7488TIP3    H243880   6.301   3.316   1.621  0.4294  2.2313 -1.4130
 7489TIP3   OH243881   4.069   0.102   2.941 -0.5143 -0.4487 -0.8575
 7489TIP3    H143882   4.146   0.155   2.923  0.2651 -0.1916  2.4988
 7489TIP3    H243883   4.095   0.013   2.918  0.2709 -0.1734 -1.0524
 7490TIP3   OH243884   1.762   0.348  11.326 -0.0326 -0.6305  0.3602
 7490TIP3    H143885   1.766   0.438  11.358  1.6828 -0.8968  1.0303
 7490TIP3    H243886   1.721   0.354  11.240 -0.4581  0.7045  0.6364
 7491TIP3   OH243887   3.960   6.536  14.167  0.7812 -0.4905  0.5338
 7491TIP3    H143888   4.027   6.603  14.149  1.4925 -1.2469  0.2891
 7491TIP3    H243889   3.921   6.518  14.081  0.0906  0.1124  0.7107
 7492TIP3   OH243890   5.644   4.128   4.662  0.3603 -0.3480 -0.0460
 7492TIP3    H143891   5.670   4.070   4.734 -0.1910 -0.6081 -0.0534
 7492TIP3    H243892   5.689   4.094   4.585  0.5124 -0.4053  0.0693
 7493TIP3   OH243893   1.792   3.828   3.027  0.4225 -0.2338  0.0268
 7493TIP3    H143894   1.855   3.877   3.080 -1.0902  0.7306  0.9820
 7493TIP3    H243895   1.788   3.877   2.945  0.3664  0.1271  0.2439
 7494TIP3   OH243896   5.103   5.273  12.099 -0.8935  0.0604 -0.1348
 7494TIP3    H143897   5.153   5.234  12.171 -1.7103  0.8835  0.9128
 7494TIP3    H243898   5.155   5.350  12.074  0.0520 -0.9234 -1.3319
 7495TIP3   OH243899   3.839   0.145  11.727 -0.0506 -0.6793  0.0763
 7495TIP3    H143900   3.887   0.162  11.808  0.3286 -1.4278  0.0160
 7495TIP3    H243901   3.769   0.210  11.726 -0.0194 -0.6265  0.9798
 7496TIP3   OH243902   1.676   6.166  16.262 -0.0457 -0.1235  0.2104
 7496TIP3    H143903   1.614   6.239  16.256 -1.3304 -1.1653  0.3818
 7496TIP3    H243904   1.673   6.139  16.353 -0.6805 -1.2864 -0.1276
 7497TIP3   OH243905   2.644   5.776   4.468 -0.6312  0.0645 -0.3284
 7497TIP3    H143906   2.606   5.690   4.484  0.4024 -0.1844  1.0088
 7497TIP3    H243907   2.637   5.821   4.553 -0.0569  0.8570 -0.6887
 7498TIP3   OH243908   0.187   4.154   4.442  0.6701 -0.0381 -0.0434
 7498TIP3    H143909   0.217   4.125   4.356 -1.1862 -0.6509 -0.5208
 7498TIP3    H243910   0.254   4.123   4.503  2.4723  1.1593 -1.3125
 7499TIP3   OH243911   0.082   3.011   0.165 -0.6359 -0.2343 -0.5840
 7499TIP3    H143912   0.067   2.921   0.193 -0.0863 -0.7908 -2.0026
 7499TIP3    H243913  -0.002   3.039   0.128 -0.6699 -0.3307 -0.5807
 7500TIP3   OH243914   2.884   5.185  15.708 -0.3218  0.1451 -0.2554
 7500TIP3    H143915   2.882   5.227  15.622 -2.3048  0.8060  0.0692
 7500TIP3    H243916   2.821   5.113  15.702  0.5786 -0.7147  0.2323
 7501TIP3   OH243917   5.282   6.041   0.575  0.3666  0.4667 -0.4462
 7501TIP3    H143918   5.241   6.058   0.491  2.1931 -1.0896 -1.7695
 7501TIP3    H243919   5.297   5.946   0.575 -1.3672  0.0872  2.5406
 7502TIP3   OH243920   0.579   1.212   1.400  0.2527 -0.4413  0.1862
 7502TIP3    H143921   0.507   1.179   1.346  0.7001 -0.0486 -0.6764
 7502TIP3    H243922   0.654   1.214   1.340  1.1247 -1.3772  1.2050
 7503TIP3   OH243923   1.326   4.525   4.351 -0.5029  0.2082 -0.9700
 7503TIP3    H143924   1.235   4.499   4.359  0.4319 -3.0486  0.8962
 7503TIP3    H243925   1.355   4.541   4.441  1.5050 -2.2150 -1.0482
 7504TIP3   OH243926   1.096   0.249   1.936 -0.7933 -0.3795 -0.1559
 7504TIP3    H143927   1.150   0.299   1.997 -3.5518  2.1820  0.4677
 7504TIP3    H243928   1.074   0.169   1.984 -0.5268  0.2539  1.0766
 7505TIP3   OH243929   2.622   5.572  13.277  0.1944 -0.2784  0.1123
 7505TIP3    H143930   2.578   5.537  13.354  1.5779 -1.5660  0.3748
 7505TIP3    H243931   2.649   5.661  13.302 -0.0355 -0.4107  0.8381
 7506TIP3   OH243932   3.979   0.363  12.447  0.3445  0.4575  0.1017
 7506TIP3    H143933   3.913   0.408  12.394 -0.1713 -2.6155 -2.1262
 7506TIP3    H243934   4.056   0.358  12.391  1.5262  1.3555  1.5582
 7507TIP3   OH243935   5.546   4.057   3.418 -0.4350  0.0186  0.3966
 7507TIP3    H143936   5.537   3.963   3.407 -2.1509  0.3170 -1.4725
 7507TIP3    H243937   5.501   4.076   3.501 -2.0608 -0.6005 -0.2997
 7508TIP3   OH243938   3.839   6.387  14.696  0.3393 -0.5001  0.1143
 7508TIP3    H143939   3.781   6.427  14.760 -1.4511 -1.4514 -0.8287
 7508TIP3    H243940   3.854   6.455  14.630  0.1641 -0.2882  0.2939
 7509TIP3   OH243941   4.380   0.940   5.994 -0.0351 -0.2217  0.2973
 7509TIP3    H143942   4.382   0.949   6.089  0.2724 -1.0008  0.3754
 7509TIP3    H243943   4.466   0.902   5.972 -0.4035 -0.7878 -0.2036
 7510TIP3   OH243944   6.456   2.120   1.248 -0.3625 -0.4286  0.2086
 7510TIP3    H143945   6.495   2.127   1.161 -1.2999 -0.5869 -0.2286
 7510TIP3    H243946   6.403   2.200   1.257  0.0795 -0.1925  0.8167
 7511TIP3   OH243947   4.820   0.399  13.503 -0.3813 -0.4328 -0.3183
 7511TIP3    H143948   4.896   0.419  13.557 -0.6255  0.2282 -0.2059
 7511TIP3    H243949   4.851   0.335  13.439 -0.7151 -3.3505  2.2304
 7512TIP3   OH243950   4.721   5.445   0.579 -0.0149  0.2501 -0.1351
 7512TIP3    H143951   4.743   5.385   0.650 -0.9223  0.3715  0.2639
 7512TIP3    H243952   4.761   5.406   0.501  0.4464 -0.2193  0.3311
 7513TIP3   OH243953   4.549   2.661  15.548 -0.1520 -0.0705  0.2156
 7513TIP3    H143954   4.593   2.691  15.468 -1.1038  0.2452 -0.2108
 7513TIP3    H243955   4.579   2.571  15.559  0.4442  0.0728 -0.1677
 7514TIP3   OH243956   6.605   2.098  15.301 -0.0540  0.2619 -0.4722
 7514TIP3    H143957   6.631   2.017  15.343 -0.0351 -0.9961 -2.7316
 7514TIP3    H243958   6.667   2.108  15.228 -1.3452  1.1549 -1.5028
 7515TIP3   OH243959   4.546   1.632   3.476  0.2939 -0.4561  0.0866
 7515TIP3    H143960   4.637   1.638   3.506  0.6390 -2.8014 -0.2528
 7515TIP3    H243961   4.527   1.538   3.477 -2.5872  0.0136  1.4038
 7516TIP3   OH243962   5.918   1.238   2.085  0.3457 -0.8988 -0.5318
 7516TIP3    H143963   5.943   1.205   2.172  2.2231  0.4843 -0.4616
 7516TIP3    H243964   5.991   1.295   2.061 -0.7436 -0.2727 -2.4887
 7517TIP3   OH243965   0.887   3.469  11.523  0.4171  0.2435  0.6163
 7517TIP3    H143966   0.921   3.535  11.583  0.1016  2.4901 -1.5083
 7517TIP3    H243967   0.965   3.422  11.493  0.8101  0.5056  1.2063
 7518TIP3   OH243968   4.368   6.226   6.082 -0.0277  0.1348  0.4173
 7518TIP3    H143969   4.282   6.244   6.119  0.4006 -0.0579  1.5575
 7518TIP3    H243970   4.352   6.208   5.989 -1.2385 -0.1735  0.6749
 7519TIP3   OH243971   5.587   0.334  16.132 -0.7448  0.0384 -0.1153
 7519TIP3    H143972   5.623   0.423  16.137  0.6372 -0.4876 -0.3022
 7519TIP3    H243973   5.495   0.347  16.111 -0.3821  1.4166 -0.9915
 7520TIP3   OH243974   4.649   2.059  16.490 -0.3362 -0.7462  0.1472
 7520TIP3    H143975   4.660   2.147  16.525 -1.8053 -0.4486 -0.0973
 7520TIP3    H243976   4.694   2.061  16.405  1.5116 -0.8977  1.0613
 7521TIP3   OH243977   2.754   3.985   1.025  0.3178  0.2046  0.0055
 7521TIP3    H143978   2.708   4.039   0.961 -1.6708 -1.4564 -0.0635
 7521TIP3    H243979   2.730   3.895   1.002  1.5239 -0.5832  1.6144
 7522TIP3   OH243980   6.318   2.361   1.305 -0.2265 -0.7030 -0.0311
 7522TIP3    H143981   6.299   2.439   1.252  0.4156 -1.0480 -0.7859
 7522TIP3    H243982   6.364   2.396   1.382  0.3306 -0.3567 -0.5108
 7523TIP3   OH243983   2.538   3.706   2.159  0.1842  0.3040  0.0257
 7523TIP3    H143984   2.618   3.747   2.194  0.7463 -0.3622 -0.4506
 7523TIP3    H243985   2.556   3.612   2.162 -0.7332  0.1243  0.2510
 7524TIP3   OH243986   6.303   4.769  16.716  0.1767  0.4585 -0.1058
 7524TIP3    H143987   6.342   4.830  16.654  1.6685 -0.8649 -0.5337
 7524TIP3    H243988   6.300   4.686  16.668 -1.6084  0.1078  0.5271
 7525TIP3   OH243989   1.877   4.823  14.080 -0.6072 -0.1567  0.0257
 7525TIP3    H143990   1.968   4.806  14.057 -0.9135 -0.4987 -0.9915
 7525TIP3    H243991   1.863   4.773  14.160  0.8639  2.1218  1.8024
 7526TIP3   OH243992   2.706   3.277  11.398 -0.4599  0.7070 -0.0320
 7526TIP3    H143993   2.642   3.291  11.328 -1.0538  1.5472  0.6590
 7526TIP3    H243994   2.784   3.247  11.353 -1.2394 -0.0504 -0.9294
 7527TIP3   OH243995   1.259   3.437   3.399  0.8814 -0.1681 -0.0420
 7527TIP3    H143996   1.182   3.429   3.456  0.8291  0.0295 -0.0866
 7527TIP3    H243997   1.268   3.350   3.359  1.3951 -0.5646  0.8776
 7528TIP3   OH243998   2.586   3.155   6.408  0.1097 -0.1190  0.6233
 7528TIP3    H143999   2.592   3.139   6.502  0.3914  1.1885  0.8436
 7528TIP3    H244000   2.577   3.067   6.369 -1.8850 -0.5976  1.9916
 7529TIP3   OH244001   6.750   5.616   0.467 -0.1673 -0.0415  0.0922
 7529TIP3    H144002   6.743   5.554   0.539  0.2535 -0.6188 -0.3563
 7529TIP3    H244003   6.687   5.685   0.488 -1.0788 -0.9218  0.3048
 7530TIP3   OH244004   1.028   6.426  11.120 -0.0054  0.4317 -0.4886
 7530TIP3    H144005   1.021   6.337  11.085  0.8630 -0.1791  0.7852
 7530TIP3    H244006   1.085   6.472  11.058  0.4221 -0.2249 -0.5882
 7531TIP3   OH244007   0.962   4.209  10.860  0.4669  0.5294  0.6582
 7531TIP3    H144008   0.992   4.126  10.897  0.3414  1.2553  2.4984
 7531TIP3    H244009   0.881   4.186  10.814  0.9886 -0.5292  0.2292
 7532TIP3   OH244010   1.608   5.613   3.355  0.3842 -0.0825  0.2959
 7532TIP3    H144011   1.641   5.542   3.411  0.4979 -0.5628 -0.3579
 7532TIP3    H244012   1.684   5.669   3.340  0.7358 -0.7757 -0.5912
 7533TIP3   OH244013   2.455   3.488   0.376 -0.4731  0.2868 -0.1308
 7533TIP3    H144014   2.450   3.550   0.448  1.6889  0.5079 -0.1013
 7533TIP3    H244015   2.467   3.543   0.298  2.9073  0.0148  0.0490
 7534TIP3   OH244016   5.239   1.439  16.762  0.1095 -0.2266 -0.4832
 7534TIP3    H144017   5.321   1.392  16.746 -0.0963 -0.0575 -2.2867
 7534TIP3    H244018   5.250   1.478  16.848  1.3297 -1.4302 -0.0568
 7535TIP3   OH244019   2.788   0.828  11.161 -0.0367 -0.5426 -0.0511
 7535TIP3    H144020   2.875   0.815  11.199  2.0891  0.6863 -3.9348
 7535TIP3    H244021   2.757   0.740  11.139  2.0178 -0.9067 -1.8853
 7536TIP3   OH244022   4.986   6.512  12.056  0.7279 -0.5454 -0.5325
 7536TIP3    H144023   5.032   6.542  11.978  0.2302  0.0625 -0.6100
 7536TIP3    H244024   4.981   6.417  12.047 -1.0510 -0.3515 -2.2489
 7537TIP3   OH244025   5.087   0.141  13.898  0.3949 -0.1482  0.6956
 7537TIP3    H144026   5.134   0.151  13.815  1.9706 -0.1710  1.5412
 7537TIP3    H244027   5.075   0.047  13.907 -1.3813 -0.0542 -0.3254
 7538TIP3   OH244028   3.543   5.633   0.428 -0.3180 -0.2303  0.2519
 7538TIP3    H144029   3.482   5.694   0.385  0.0271 -0.6544 -0.8671
 7538TIP3    H244030   3.616   5.625   0.367  0.1723 -0.8873  0.9108
 7539TIP3   OH244031   4.216   3.152   4.330  0.3847 -0.1239  0.2719
 7539TIP3    H144032   4.226   3.169   4.236  1.3691  0.5957  0.4822
 7539TIP3    H244033   4.157   3.221   4.361  0.0974 -0.3328  0.1913
 7540TIP3   OH244034   0.114   1.916   1.511  0.4155  0.0321  0.1729
 7540TIP3    H144035   0.169   1.995   1.515 -1.5095  1.4002  2.0985
 7540TIP3    H244036   0.139   1.867   1.589  0.5980 -0.5710 -0.2599
 7541TIP3   OH244037   5.695   5.217  12.815 -0.2203 -0.1863 -0.0167
 7541TIP3    H144038   5.640   5.288  12.781 -0.7374 -1.4269 -1.9592
 7541TIP3    H244039   5.654   5.137  12.782  1.4948 -1.2788  0.3621
 7542TIP3   OH244040   6.255   5.556   3.402 -0.5803  0.6096  0.1200
 7542TIP3    H144041   6.320   5.604   3.454  1.4261 -2.8173  1.1697
 7542TIP3    H244042   6.189   5.529   3.465  0.1096 -0.7323  0.3267
 7543TIP3   OH244043   2.319   5.965   2.533  0.1561 -0.0729 -0.0649
 7543TIP3    H144044   2.303   6.023   2.607  1.4707  0.1691  0.0670
 7543TIP3    H244045   2.288   5.879   2.562 -1.3263  0.4377 -0.0685
 7544TIP3   OH244046   4.755   3.881   1.590  0.2422  0.0343 -0.2263
 7544TIP3    H144047   4.691   3.812   1.608  1.4645 -1.2782 -0.6834
 7544TIP3    H244048   4.736   3.948   1.655  0.1116 -1.5254  1.4381
 7545TIP3   OH244049   4.525   1.152  13.998  0.0662 -0.2051  0.6388
 7545TIP3    H144050   4.584   1.174  14.070 -1.7052  0.9785  1.7960
 7545TIP3    H244051   4.553   1.064  13.971  1.6923 -0.0945  1.8002
 7546TIP3   OH244052   3.148   3.481  12.927 -0.0668  0.0567  0.4825
 7546TIP3    H144053   3.233   3.454  12.892 -0.5655 -0.8539 -0.0649
 7546TIP3    H244054   3.085   3.426  12.881 -0.9846  0.9538  0.6454
 7547TIP3   OH244055   0.454   2.714  13.670  0.0812 -0.2308 -0.1666
 7547TIP3    H144056   0.508   2.654  13.721 -1.7701 -1.3906  0.5281
 7547TIP3    H244057   0.485   2.801  13.695  0.7866 -0.8289  1.1478
 7548TIP3   OH244058   5.587   5.066   5.153 -0.1082  0.3198 -0.1545
 7548TIP3    H144059   5.577   5.145   5.100  0.3556  0.7193  0.3457
 7548TIP3    H244060   5.604   4.996   5.089  1.3883  0.9539 -0.4783
 7549TIP3   OH244061   2.448   2.726   0.379  0.0589 -0.2315  0.1166
 7549TIP3    H144062   2.518   2.676   0.421  0.5620 -1.9250 -2.5222
 7549TIP3    H244063   2.382   2.661   0.355 -1.8962  1.1594  1.3656
 7550TIP3   OH244064   2.269   1.293  15.755 -0.1309 -0.2858  0.1926
 7550TIP3    H144065   2.212   1.231  15.710  0.0755 -0.1837 -0.2158
 7550TIP3    H244066   2.265   1.372  15.701 -0.2679  0.0025  0.6247
 7551TIP3   OH244067   2.220   4.132  15.302  0.3059 -0.0794 -0.2989
 7551TIP3    H144068   2.165   4.153  15.377  2.5098  1.1188  1.1096
 7551TIP3    H244069   2.161   4.133  15.227 -1.2556  3.4521  0.7725
 7552TIP3   OH244070   4.033   2.036   3.135  0.2180  0.2649 -0.5770
 7552TIP3    H144071   4.118   1.993   3.127 -0.0770 -0.1287 -1.9680
 7552TIP3    H244072   3.982   2.002   3.060 -1.2849  0.1990  0.4241
 7553TIP3   OH244073   1.719   6.423  15.225 -0.2503  0.2499  0.5494
 7553TIP3    H144074   1.744   6.369  15.300 -0.0302  0.5402  0.6857
 7553TIP3    H244075   1.624   6.435  15.235 -0.5220 -1.0738 -0.1137
 7554TIP3   OH244076   2.395   4.063  16.120 -0.1595  0.1810  0.3634
 7554TIP3    H144077   2.488   4.077  16.140  0.0631 -2.1347  1.2289
 7554TIP3    H244078   2.395   4.029  16.030 -0.1531 -0.1035  0.4723
 7555TIP3   OH244079   6.036   5.332   2.749 -0.1859  0.5393  0.5019
 7555TIP3    H144080   5.951   5.375   2.741 -0.7528 -0.7758 -1.5150
 7555TIP3    H244081   6.098   5.394   2.710 -0.5680  0.6471  0.0530
 7556TIP3   OH244082   3.200   1.212   5.017  0.1157  0.3380 -0.2324
 7556TIP3    H144083   3.161   1.300   5.023 -0.4758  0.3715 -3.2002
 7556TIP3    H244084   3.294   1.229   5.005  0.5325  0.3839  2.5087
 7557TIP3   OH244085   2.341   0.488   6.293 -0.5367  0.3335 -0.5626
 7557TIP3    H144086   2.399   0.537   6.235  0.9548 -0.9527 -0.2154
 7557TIP3    H244087   2.322   0.549   6.364 -0.3943  1.0888 -1.1518
 7558TIP3   OH244088   3.129   2.716  12.591 -0.0022 -0.3069 -0.0240
 7558TIP3    H144089   3.156   2.702  12.682  0.4132  0.7580  0.0282
 7558TIP3    H244090   3.037   2.740  12.597 -0.4784 -2.0114 -0.0457
 7559TIP3   OH244091   0.111   4.765  12.559 -0.5926  0.4690  0.4398
 7559TIP3    H144092   0.042   4.828  12.536 -0.8333  1.1837  2.8563
 7559TIP3    H244093   0.190   4.801  12.518 -0.8548  2.0325  1.2034
 7560TIP3   OH244094   4.345   5.646   3.168 -0.0012  0.3774 -0.3535
 7560TIP3    H144095   4.385   5.716   3.220  1.1056  0.2111 -0.9561
 7560TIP3    H244096   4.343   5.681   3.079 -0.5238  0.0903 -0.4539
 7561TIP3   OH244097   2.994   5.232  13.246  0.6336 -0.1136 -0.2670
 7561TIP3    H144098   2.903   5.262  13.243  0.6596  0.1392  0.8428
 7561TIP3    H244099   3.011   5.196  13.159  0.0115  1.4134 -1.0620
 7562TIP3   OH244100   3.444   6.050   5.205  0.2989  0.5907  0.3104
 7562TIP3    H144101   3.427   5.956   5.213 -0.5949  0.6710 -0.4460
 7562TIP3    H244102   3.529   6.055   5.161 -0.3288  0.1063 -1.0179
 7563TIP3   OH244103   4.051   6.650  11.274  0.1939 -0.2965  0.3136
 7563TIP3    H144104   4.112   6.591  11.230  0.3205 -0.1757  0.3248
 7563TIP3    H244105   3.966   6.629  11.237  0.1149 -1.0674  0.9272
 7564TIP3   OH244106   0.421   3.118  16.183  0.2066 -0.3213 -0.4592
 7564TIP3    H144107   0.406   3.135  16.090 -1.6948 -0.9020 -0.2925
 7564TIP3    H244108   0.485   3.047  16.185 -2.6590 -3.1722 -1.4967
 7565TIP3   OH244109   6.680   6.429  16.865 -0.2743  0.1934 -0.0109
 7565TIP3    H144110   6.690   6.347  16.816 -2.0567 -0.6808  0.9875
 7565TIP3    H244111   6.745   6.487  16.827  0.6009 -1.4685 -1.2093
 7566TIP3   OH244112   0.293   2.946   5.809  0.3095  0.0587  0.4507
 7566TIP3    H144113   0.208   2.983   5.832 -0.2026 -2.0991  2.4510
 7566TIP3    H244114   0.353   2.984   5.874  0.8489  1.2935 -0.7294
 7567TIP3   OH244115   2.591   3.075  16.287  0.0860  0.0396 -0.5768
 7567TIP3    H144116   2.606   3.100  16.196  0.5756  0.9607 -0.2466
 7567TIP3    H244117   2.522   3.134  16.317 -0.0190 -0.2087 -0.3210
 7568TIP3   OH244118   2.112   6.763   5.158  0.0549  0.6629 -0.0249
 7568TIP3    H144119   2.033   6.763   5.104  0.8711 -0.5899 -1.2823
 7568TIP3    H244120   2.079   6.764   5.248 -1.4086 -0.1738 -0.5177
 7569TIP3   OH244121   1.721   1.664  11.125  0.1129  0.4603  0.3904
 7569TIP3    H144122   1.723   1.589  11.065  0.5120 -0.9701  2.1281
 7569TIP3    H244123   1.634   1.660  11.164  1.0927 -0.9135  2.6194
 7570TIP3   OH244124   4.498   1.096   5.678 -0.5466  0.6238  0.4198
 7570TIP3    H144125   4.517   1.088   5.584 -1.2222  1.3633  0.2066
 7570TIP3    H244126   4.556   1.032   5.720 -0.3267  0.1959 -0.5091
 7571TIP3   OH244127   6.136   1.261  14.062  0.5326 -0.3522 -0.0752
 7571TIP3    H144128   6.114   1.217  13.980 -0.5018  1.4675 -0.8327
 7571TIP3    H244129   6.059   1.248  14.118  0.3273  0.2697 -0.2101
 7572TIP3   OH244130   0.855   0.495  15.272 -0.2179 -0.8007  0.5837
 7572TIP3    H144131   0.878   0.402  15.265  0.9998 -0.8317  3.4661
 7572TIP3    H244132   0.933   0.536  15.311 -1.0126  1.2866  0.0858
 7573TIP3   OH244133   6.081   5.545  14.672  0.1246  0.0883 -0.2916
 7573TIP3    H144134   6.038   5.558  14.757  0.8206 -0.1935  0.1212
 7573TIP3    H244135   6.173   5.527  14.695  0.4419  0.5877 -1.1356
 7574TIP3   OH244136   3.964   0.513  14.028 -0.3839 -0.5554 -0.3480
 7574TIP3    H144137   3.950   0.596  13.983 -0.3494  0.1131  0.8118
 7574TIP3    H244138   4.054   0.517  14.058  0.1159 -1.7139 -1.6239
 7575TIP3   OH244139   0.355   2.350   1.868 -0.2639  0.0347 -0.5078
 7575TIP3    H144140   0.267   2.374   1.899 -0.4230 -1.0196 -0.0689
 7575TIP3    H244141   0.385   2.284   1.931  0.8574  0.3958 -0.6449
 7576TIP3   OH244142   4.795   5.134   6.243 -0.4970 -0.1422  0.1246
 7576TIP3    H144143   4.754   5.136   6.157  0.8697 -3.3983 -0.7664
 7576TIP3    H244144   4.802   5.041   6.264  2.2357  0.3998  2.2337
 7577TIP3   OH244145   1.376   0.772  16.328 -0.1190 -0.2167  0.1400
 7577TIP3    H144146   1.386   0.802  16.418  1.6413  0.6821 -0.3006
 7577TIP3    H244147   1.354   0.679  16.336  0.7354 -0.3267  1.5043
 7578TIP3   OH244148   6.045   0.006   5.236  0.0098  0.7677 -0.2822
 7578TIP3    H144149   6.070   0.095   5.261  1.4554  0.2008  0.3855
 7578TIP3    H244150   6.064   0.000   5.143 -1.3043  1.5338 -0.6266
 7579TIP3   OH244151   2.142   2.367  16.161 -0.2087 -0.0137 -0.1990
 7579TIP3    H144152   2.126   2.279  16.129  0.5984 -0.2584  0.0478
 7579TIP3    H244153   2.063   2.416  16.139 -1.5076 -1.2738  1.4019
 7580TIP3   OH244154   2.696   2.737   2.035 -0.4090  0.1380  0.2812
 7580TIP3    H144155   2.772   2.713   1.983 -0.2992 -0.5025  0.7110
 7580TIP3    H244156   2.643   2.657   2.037 -0.7525  0.3701  0.5526
 7581TIP3   OH244157   5.152   6.641  12.639 -0.0906  0.5800  0.1940
 7581TIP3    H144158   5.199   6.720  12.613 -0.6134  0.9234  0.2822
 7581TIP3    H244159   5.072   6.641  12.585 -0.7480  0.8295  1.1422
 7582TIP3   OH244160   1.612   2.025   3.621 -0.4694  0.6907  0.4607
 7582TIP3    H144161   1.657   2.095   3.669 -0.5424 -0.0325  1.6085
 7582TIP3    H244162   1.553   1.986   3.685 -0.2543 -0.5902 -0.0950
 7583TIP3   OH244163   4.662   1.980   4.571 -0.2871 -0.0925  0.2340
 7583TIP3    H144164   4.590   2.017   4.622 -0.0439  0.9660 -0.1480
 7583TIP3    H244165   4.688   1.902   4.619 -0.1969  0.7520  1.6221
 7584TIP3   OH244166   6.501   6.674  10.836 -0.0589  0.3959  0.2843
 7584TIP3    H144167   6.574   6.633  10.881 -0.6791  0.1181  1.0617
 7584TIP3    H244168   6.448   6.712  10.906 -1.6068 -0.9678 -0.0940
 7585TIP3   OH244169   1.032   4.020   0.167  0.2357 -0.5885 -0.5396
 7585TIP3    H144170   1.000   4.074   0.240  0.6610 -1.1821  0.1010
 7585TIP3    H244171   1.116   4.060   0.144 -0.2501  0.0625 -1.2252
 7586TIP3   OH244172   4.713   5.943  14.107  0.1170  0.4063  0.2658
 7586TIP3    H144173   4.788   6.002  14.098 -0.1671  0.8220  0.5885
 7586TIP3    H244174   4.703   5.932  14.202  0.9772 -1.2022  0.2122
 7587TIP3   OH244175   1.024   5.917  15.335  0.7253 -0.0911 -0.1595
 7587TIP3    H144176   1.003   6.004  15.301  1.7588  0.3023  0.1732
 7587TIP3    H244177   1.072   5.933  15.416 -0.3075 -1.0015  0.6696
 7588TIP3   OH244178   1.369   6.188  14.490  0.2580  0.1124 -0.0367
 7588TIP3    H144179   1.357   6.227  14.404 -0.9012 -1.0500 -0.4472
 7588TIP3    H244180   1.443   6.235  14.528  0.6947  0.7564 -1.5947
 7589TIP3   OH244181   0.135   5.020  14.932 -0.6274  0.1595  0.4931
 7589TIP3    H144182   0.194   4.985  14.865  1.3069  1.3404  1.4856
 7589TIP3    H244183   0.051   4.976  14.915  0.6157 -1.9552 -0.7110
 7590TIP3   OH244184   4.457   6.704  16.770 -0.1531  0.2975  0.4411
 7590TIP3    H144185   4.418   6.617  16.774  0.4452 -0.2189 -2.4607
 7590TIP3    H244186   4.439   6.743  16.856 -0.9836 -2.4187  1.6054
 7591TIP3   OH244187   3.161   4.501   2.242  0.5525 -0.0876 -0.2941
 7591TIP3    H144188   3.174   4.412   2.210  0.6704 -0.4227  0.6387
 7591TIP3    H244189   3.115   4.489   2.325  0.0908  0.7532 -0.4300
 7592TIP3   OH244190   5.137   0.578   3.728  0.2888  0.8660 -0.1463
 7592TIP3    H144191   5.069   0.644   3.711 -0.0629  0.1744 -1.6125
 7592TIP3    H244192   5.198   0.587   3.655 -0.2516 -1.0090 -0.8876
 7593TIP3   OH244193   4.021   3.356   4.687  0.0084 -0.7484 -0.2997
 7593TIP3    H144194   4.080   3.337   4.614  1.2583  0.4737  0.3532
 7593TIP3    H244195   4.079   3.363   4.763 -1.3339 -2.8492  1.0277
 7594TIP3   OH244196   1.962   4.691  14.766  0.8479  0.0985  0.0239
 7594TIP3    H144197   1.867   4.679  14.758  1.0018  0.1138 -2.1846
 7594TIP3    H244198   1.979   4.680  14.860 -1.4362  0.9227  0.6126
 7595TIP3   OH244199   2.850   3.328  10.979  0.0702  0.1913  0.2815
 7595TIP3    H144200   2.805   3.291  10.902 -0.0755  1.5255 -0.2893
 7595TIP3    H244201   2.942   3.327  10.956  0.2714 -1.4439  0.9893
 7596TIP3   OH244202   1.501   4.238   0.109 -0.0510 -0.4959 -0.6077
 7596TIP3    H144203   1.525   4.281   0.191 -1.8694  2.7356 -1.5831
 7596TIP3    H244204   1.567   4.268   0.046 -1.2676  0.9065 -1.2743
 7597TIP3   OH244205   3.053   4.603   4.319 -0.1227  0.6274  0.6550
 7597TIP3    H144206   2.963   4.634   4.331 -0.5003  0.1911 -0.9044
 7597TIP3    H244207   3.046   4.508   4.322  0.1122  0.5641 -0.5413
 7598TIP3   OH244208   1.406   5.551  12.152 -0.0400  0.0690 -0.2122
 7598TIP3    H144209   1.490   5.520  12.117 -0.9411 -1.3738 -1.2383
 7598TIP3    H244210   1.387   5.629  12.101 -0.7496 -1.3339 -2.2407
 7599TIP3   OH244211   6.601   0.605  12.324 -0.1059  0.3056  0.0800
 7599TIP3    H144212   6.567   0.693  12.307  0.9274  0.6440 -0.3023
 7599TIP3    H244213   6.696   0.615  12.322  0.0250 -0.7381  0.4905
 7600TIP3   OH244214   0.478   5.303  15.839 -0.1145 -0.2089 -0.1294
 7600TIP3    H144215   0.490   5.222  15.790 -0.6147 -0.9011  0.8568
 7600TIP3    H244216   0.516   5.371  15.783  0.7828 -1.1894 -0.7449
 7601TIP3   OH244217   4.109   3.644   3.542 -0.1030 -0.0065 -0.1822
 7601TIP3    H144218   4.082   3.665   3.632  2.3127  0.1757  0.5776
 7601TIP3    H244219   4.162   3.564   3.551 -0.3997 -0.3801 -1.5452
 7602TIP3   OH244220   1.635   1.178  12.747  0.2201  0.1531 -0.3072
 7602TIP3    H144221   1.668   1.264  12.771 -0.0136  0.0968  0.2328
 7602TIP3    H244222   1.708   1.118  12.765 -0.4007 -0.0826  1.6690
 7603TIP3   OH244223   3.419   5.118   4.800  0.1487 -0.0820  0.2644
 7603TIP3    H144224   3.369   5.054   4.852 -0.6559 -0.9405 -1.4808
 7603TIP3    H244225   3.362   5.136   4.725  0.7863  1.9855  0.2333
 7604TIP3   OH244226   4.742   5.559   1.917  0.3355 -0.1539  0.2315
 7604TIP3    H144227   4.748   5.610   1.998 -0.9022  0.2464  0.0797
 7604TIP3    H244228   4.777   5.473   1.941  1.9586  0.5721  0.6227
 7605TIP3   OH244229   0.843   3.779  14.401 -0.3134  0.7495 -0.6192
 7605TIP3    H144230   0.832   3.744  14.313  0.9410  1.7937 -1.2309
 7605TIP3    H244231   0.899   3.715  14.445 -1.2684  0.0213 -0.4199
 7606TIP3   OH244232   6.421   6.241   6.508  0.1881  0.5881 -0.1316
 7606TIP3    H144233   6.410   6.146   6.512  0.2144  0.5153 -1.4195
 7606TIP3    H244234   6.341   6.276   6.547 -0.3068  0.0391 -0.6317
 7607TIP3   OH244235   5.770   0.463  13.665  0.7095 -0.6775 -0.6729
 7607TIP3    H144236   5.713   0.539  13.650 -0.0287 -1.2782 -0.9643
 7607TIP3    H244237   5.857   0.501  13.680  0.0814  0.3024  0.6733
 7608TIP3   OH244238   1.643   5.428   1.439  0.2156  0.3881  0.6534
 7608TIP3    H144239   1.691   5.498   1.393  2.4954 -1.2372  0.3833
 7608TIP3    H244240   1.662   5.443   1.531  1.4774 -0.3487  0.5371
 7609TIP3   OH244241   5.135   6.664   3.200 -0.0549 -0.1655 -0.4001
 7609TIP3    H144242   5.219   6.688   3.238  0.7379 -2.3647 -0.6472
 7609TIP3    H244243   5.109   6.741   3.149  1.2769  0.9400  0.4988
 7610TIP3   OH244244   6.742   2.109   1.107  0.1337  0.6346 -0.0905
 7610TIP3    H144245   6.787   2.049   1.047  2.0235  0.6392  1.2326
 7610TIP3    H244246   6.720   2.056   1.183 -2.1802  0.6488 -0.6752
 7611TIP3   OH244247   3.189   4.732   1.210 -0.1047  0.1959 -0.2428
 7611TIP3    H144248   3.097   4.752   1.198  0.1702  0.9155 -1.2744
 7611TIP3    H244249   3.208   4.666   1.144 -0.2605 -1.2758  1.1007
 7612TIP3   OH244250   0.494   6.239  13.306  0.2359  0.0965  1.0567
 7612TIP3    H144251   0.482   6.197  13.392 -2.9973 -2.1321 -0.2602
 7612TIP3    H244252   0.477   6.168  13.243  1.0496  1.9857 -1.4319
 7613TIP3   OH244253   3.525   2.081  16.888  0.2594 -0.8513  0.2046
 7613TIP3    H144254   3.537   1.997  16.844  0.2953  0.6647 -2.9049
 7613TIP3    H244255   3.484   2.058  16.972  4.7194 -4.3648  1.8238
 7614TIP3   OH244256   2.922   0.480   2.285 -0.2302 -0.0044  0.4854
 7614TIP3    H144257   3.017   0.492   2.279 -0.2560 -0.0437 -0.0079
 7614TIP3    H244258   2.899   0.428   2.208 -0.8989  1.5749 -0.4393
 7615TIP3   OH244259   5.408   1.794   5.919  0.1544 -0.0922  0.2764
 7615TIP3    H144260   5.428   1.863   5.855  0.9595 -0.9600 -0.4435
 7615TIP3    H244261   5.491   1.779   5.964 -0.0770 -0.4221  0.5936
 7616TIP3   OH244262   6.650   2.456   6.068  0.0040 -0.1684  0.5958
 7616TIP3    H144263   6.686   2.378   6.028 -0.8719 -0.4019  0.2272
 7616TIP3    H244264   6.564   2.429   6.100 -0.0686  0.4942  0.9845
 7617TIP3   OH244265   2.430   2.797   3.446 -0.3101 -0.0065  0.0974
 7617TIP3    H144266   2.416   2.874   3.501  0.2256 -0.5906  1.0758
 7617TIP3    H244267   2.524   2.797   3.428  0.0229 -1.3408  1.5456
 7618TIP3   OH244268   1.777   6.683  11.503 -0.2520 -0.3719 -0.0742
 7618TIP3    H144269   1.805   6.772  11.484  0.4319 -0.4893  0.3704
 7618TIP3    H244270   1.774   6.678  11.599 -2.7868 -0.0595 -0.0624
 7619TIP3   OH244271   2.793   2.323   4.341 -0.7419 -0.4567  0.7814
 7619TIP3    H144272   2.733   2.378   4.392 -1.8970 -1.3889  0.4673
 7619TIP3    H244273   2.740   2.249   4.313  0.4775 -1.1322  0.1728
 7620TIP3   OH244274   3.806   3.231  14.293  0.5802 -0.5163 -0.5592
 7620TIP3    H144275   3.865   3.281  14.349  0.4304  2.5849 -2.8777
 7620TIP3    H244276   3.738   3.199  14.351  0.2558  2.7487  1.1013
 7621TIP3   OH244277   6.460   4.131  12.780 -0.1580  0.4828 -0.1688
 7621TIP3    H144278   6.532   4.189  12.806  0.8483 -1.4681  1.6827
 7621TIP3    H244279   6.490   4.091  12.699  0.7871 -0.1488  0.4731
 7622TIP3   OH244280   2.710   1.816  12.422  0.1923  0.0076 -0.0066
 7622TIP3    H144281   2.690   1.821  12.329  0.3703 -0.0272 -0.0469
 7622TIP3    H244282   2.798   1.853  12.430  0.3753 -0.4323  0.0809
 7623TIP3   OH244283   4.466   1.052   3.480  0.1838 -0.0784  0.2628
 7623TIP3    H144284   4.471   1.087   3.569 -2.0912  1.7946 -0.2356
 7623TIP3    H244285   4.553   1.068   3.443  0.1845  2.2890  1.1040
 7624TIP3   OH244286   5.796   1.596  15.811 -0.5402 -0.1216 -0.2272
 7624TIP3    H144287   5.809   1.653  15.735 -0.2999  0.8123  0.5150
 7624TIP3    H244288   5.842   1.638  15.882  2.0364 -2.5953 -0.2389
 7625TIP3   OH244289   1.144   5.613   0.192  0.0802 -0.0483  0.8755
 7625TIP3    H144290   1.237   5.634   0.191 -0.1105  0.9140  1.3995
 7625TIP3    H244291   1.131   5.565   0.273  0.0912  0.0029  0.9079
 7626TIP3   OH244292   4.746   3.307  13.609  0.6449  0.0753 -0.1400
 7626TIP3    H144293   4.715   3.219  13.630 -1.5879  0.3563 -1.8185
 7626TIP3    H244294   4.726   3.359  13.687  0.2672 -0.5420  0.1859
 7627TIP3   OH244295   4.270   4.973  13.483 -0.5805  0.4743 -0.3558
 7627TIP3    H144296   4.356   4.933  13.479 -1.2511 -0.9434 -1.5897
 7627TIP3    H244297   4.272   5.042  13.416  0.8749  3.3424  2.3756
 7628TIP3   OH244298   1.252   5.004  16.761 -0.6991  0.0299 -0.0636
 7628TIP3    H144299   1.178   4.946  16.780 -2.2057  0.8804 -2.6534
 7628TIP3    H244300   1.217   5.092  16.777 -0.2157  0.4346 -1.1154
 7629TIP3   OH244301   6.321   0.028  13.456  0.1308 -0.0781  0.3654
 7629TIP3    H144302   6.350  -0.047  13.403  0.9309 -0.5524  1.4265
 7629TIP3    H244303   6.399   0.082  13.466 -0.8025  1.7935 -1.7292
 7630TIP3   OH244304   1.551   4.574   0.184 -0.0280  0.6845  0.5689
 7630TIP3    H144305   1.529   4.534   0.268 -0.3109  0.6631  0.4870
 7630TIP3    H244306   1.644   4.556   0.172 -0.7360 -2.7825 -0.9692
 7631TIP3   OH244307   4.274   0.917   4.324 -0.3582  0.0747  0.0436
 7631TIP3    H144308   4.222   0.983   4.280  2.8687  1.7336 -1.6290
 7631TIP3    H244309   4.319   0.965   4.394 -0.9760 -1.2811  1.4232
 7632TIP3   OH244310   3.296   3.854   3.692  0.4295  0.3991 -0.6675
 7632TIP3    H144311   3.364   3.853   3.624  1.3887  1.4817  0.2367
 7632TIP3    H244312   3.253   3.769   3.684  3.5480 -1.4160  0.3726
 7633TIP3   OH244313   3.223   1.372  11.067  0.5550 -0.8028  0.8424
 7633TIP3    H144314   3.228   1.344  10.975  0.1237 -2.6071  1.3340
 7633TIP3    H244315   3.202   1.293  11.115  1.9525 -0.1477  2.6613
 7634TIP3   OH244316   3.665   5.586   3.959 -0.0169 -0.4722 -0.1614
 7634TIP3    H144317   3.661   5.681   3.971 -1.2379 -0.6079  0.6315
 7634TIP3    H244318   3.693   5.552   4.044 -0.1877 -0.8723 -0.2640
 7635TIP3   OH244319   5.217   2.110   5.156  0.2177  0.5006  0.0681
 7635TIP3    H144320   5.153   2.047   5.188  1.6708 -0.6615  0.7625
 7635TIP3    H244321   5.165   2.172   5.104 -1.1695 -1.6376 -1.2472
 7636TIP3   OH244322   5.324   4.018  13.253 -0.3756  0.5095  0.0670
 7636TIP3    H144323   5.389   4.009  13.182  0.3617  2.0529  0.4981
 7636TIP3    H244324   5.243   4.042  13.208 -0.1224  0.6635 -0.3135
 7637TIP3   OH244325   6.448   6.187  10.552 -0.2415  0.7103  0.3761
 7637TIP3    H144326   6.455   6.277  10.585  0.3138  0.6052  0.5587
 7637TIP3    H244327   6.532   6.147  10.574  0.0356  0.5386 -0.8835
 7638TIP3   OH244328   0.680   0.635   4.010 -0.2924 -0.1959 -0.5090
 7638TIP3    H144329   0.620   0.696   3.967 -0.5072  0.2349  0.3718
 7638TIP3    H244330   0.696   0.567   3.945  0.4509  1.1086 -1.7522
 7639TIP3   OH244331   3.225   3.848   1.240  0.5228  0.1092 -0.3308
 7639TIP3    H144332   3.223   3.758   1.272  1.9918 -0.2953 -1.2612
 7639TIP3    H244333   3.295   3.848   1.175 -0.8012  1.4407 -1.8437
 7640TIP3   OH244334   0.109   4.122   4.710 -0.2450  0.1233  0.5399
 7640TIP3    H144335   0.181   4.183   4.730  0.4818 -0.5095 -0.0703
 7640TIP3    H244336   0.102   4.124   4.615  0.8090 -1.8252  0.3533
 7641TIP3   OH244337   5.592   5.097  12.592 -0.0002  0.6079  0.0570
 7641TIP3    H144338   5.568   5.025  12.535 -0.6007  0.5101  0.4215
 7641TIP3    H244339   5.517   5.158  12.586  0.6213  1.3439 -0.4756
 7642TIP3   OH244340   4.032   0.866  13.156  0.0306  0.4939  0.1721
 7642TIP3    H144341   3.980   0.924  13.212  0.6234  0.5731  0.6493
 7642TIP3    H244342   4.123   0.891  13.173  0.3035 -0.5764  0.4021
 7643TIP3   OH244343   6.375   1.636  15.665  0.2678  0.1429  0.1442
 7643TIP3    H144344   6.350   1.577  15.593 -0.0559  1.2535 -0.6868
 7643TIP3    H244345   6.387   1.578  15.740 -1.8011 -0.8099 -0.1866
 7644TIP3   OH244346   2.435   2.125   0.130 -0.0268 -0.4461 -0.1148
 7644TIP3    H144347   2.445   2.202   0.186  3.3800  0.1662 -1.3406
 7644TIP3    H244348   2.455   2.051   0.187 -3.8903 -0.6945  1.2282
 7645TIP3   OH244349   2.489   4.792   3.419  0.0542 -0.0317  0.2164
 7645TIP3    H144350   2.541   4.842   3.482 -0.6191  1.7764 -0.6068
 7645TIP3    H244351   2.407   4.841   3.411  0.0442 -0.3035 -1.9185
 7646TIP3   OH244352   3.048   0.636   4.639  0.0248 -0.1376  0.7324
 7646TIP3    H144353   3.131   0.593   4.619  0.3136  0.3083  0.9499
 7646TIP3    H244354   3.063   0.728   4.620  0.0392  0.1743  2.1314
 7647TIP3   OH244355   5.869   3.089   2.921  0.0849  0.1042  0.4043
 7647TIP3    H144356   5.920   3.038   2.859 -0.7889 -0.8305  0.4399
 7647TIP3    H244357   5.896   3.180   2.905  1.9593 -0.3771  0.6256
 7648TIP3   OH244358   1.749   5.097   2.952  0.3870 -0.5333 -0.2095
 7648TIP3    H144359   1.657   5.077   2.968  0.4221 -0.0336  0.6471
 7648TIP3    H244360   1.794   5.012   2.960  0.1137 -0.6407  0.1976
 7649TIP3   OH244361   3.678   2.068   1.670 -0.0045  0.3262 -0.9472
 7649TIP3    H144362   3.629   2.063   1.752  1.9628 -0.0612  0.2665
 7649TIP3    H244363   3.615   2.103   1.606 -2.0619 -0.9140  0.3109
 7650TIP3   OH244364   5.068   0.452  11.799  0.2681  0.4162  0.2446
 7650TIP3    H144365   4.999   0.489  11.744 -0.2929 -0.9717 -0.0113
 7650TIP3    H244366   5.026   0.436  11.884 -0.2664 -2.0216 -0.4014
 7651TIP3   OH244367   4.025   0.631   1.315  0.1109  0.0914  0.2095
 7651TIP3    H144368   3.964   0.693   1.355 -0.0748  0.1927 -0.2196
 7651TIP3    H244369   4.044   0.670   1.229  0.1489 -0.3473  0.0191
 7652TIP3   OH244370   3.865   2.119  12.150  0.3418 -0.0537  0.6861
 7652TIP3    H144371   3.795   2.063  12.184  0.4822 -0.0948  0.9137
 7652TIP3    H244372   3.834   2.149  12.065 -0.5530  1.0278  1.3646
 7653TIP3   OH244373   4.909   1.254  17.192 -0.5199 -0.0739  0.4048
 7653TIP3    H144374   4.902   1.275  17.285 -1.9971  2.4578 -0.1652
 7653TIP3    H244375   4.844   1.311  17.150  0.8074 -0.3751 -2.2773
 7654TIP3   OH244376   6.282   6.143   1.951  0.4641 -0.6069 -0.4885
 7654TIP3    H144377   6.271   6.149   2.046  0.0066  0.8434 -0.6147
 7654TIP3    H244378   6.366   6.099   1.939  0.6955 -0.4808  0.5868
 7655TIP3   OH244379   1.247   1.023   0.569  0.0342 -0.0561  0.0700
 7655TIP3    H144380   1.311   1.041   0.639  2.1352 -3.0559 -0.9011
 7655TIP3    H244381   1.293   1.046   0.489 -0.2120 -1.8572 -0.6235
 7656TIP3   OH244382   4.428   3.841  12.308 -0.3759 -0.0507  0.3516
 7656TIP3    H144383   4.416   3.852  12.213 -0.0120  1.0979  0.4154
 7656TIP3    H244384   4.450   3.749  12.319 -2.8956 -0.8349 -0.4129
 7657TIP3   OH244385   3.631   2.687  16.120 -0.2639  0.4502 -0.4149
 7657TIP3    H144386   3.636   2.592  16.132 -0.6873  0.6004  1.1037
 7657TIP3    H244387   3.589   2.698  16.034  0.8038 -0.7148 -1.1215
 7658TIP3   OH244388   2.317   5.707  12.562  0.2717  0.0836  0.6055
 7658TIP3    H144389   2.325   5.612  12.567  1.5635  0.1890  0.9058
 7658TIP3    H244390   2.239   5.722  12.509  0.0907 -1.1429  0.5056
 7659TIP3   OH244391   4.873   3.494  11.858 -0.5783 -0.1694 -0.2207
 7659TIP3    H144392   4.884   3.536  11.943 -1.8206 -0.5018  0.1310
 7659TIP3    H244393   4.962   3.476  11.829 -0.0972  0.9044  0.5176
 7660TIP3   OH244394   0.006   6.661  12.841 -0.0119  0.3567 -0.1504
 7660TIP3    H144395   0.016   6.625  12.753  0.3929 -0.4323  0.2082
 7660TIP3    H244396   0.068   6.734  12.844  0.9490 -0.4317 -0.1045
 7661TIP3   OH244397   1.528   1.253   5.399 -0.2787  0.2734 -0.4065
 7661TIP3    H144398   1.550   1.160   5.404  0.2685  0.1383 -3.4654
 7661TIP3    H244399   1.590   1.289   5.336 -0.5096  2.7508  0.6501
 7662TIP3   OH244400   1.653   4.581   2.521  0.7177 -0.4468  0.3201
 7662TIP3    H144401   1.568   4.583   2.477  0.6464 -0.6503  0.4455
 7662TIP3    H244402   1.716   4.565   2.451  0.9442  2.1711 -0.1873
 7663TIP3   OH244403   6.277   5.770   3.082 -0.3025 -0.6813 -0.3884
 7663TIP3    H144404   6.242   5.792   2.996  0.1337 -3.2247 -1.3157
 7663TIP3    H244405   6.201   5.741   3.133 -0.5448  0.7282  0.0918
 7664TIP3   OH244406   0.167   5.244   0.768  0.3840  0.6172 -0.4810
 7664TIP3    H144407   0.152   5.197   0.850  1.2026  0.5186 -0.3880
 7664TIP3    H244408   0.093   5.218   0.713  0.3343 -0.0586 -0.1078
 7665TIP3   OH244409   3.569   2.927  12.389 -0.2934  0.3623 -0.1149
 7665TIP3    H144410   3.522   2.852  12.354 -0.4749  0.8300 -0.9063
 7665TIP3    H244411   3.520   2.953  12.466 -0.6620  0.1307 -0.2702
 7666TIP3   OH244412   4.619   1.454   3.229 -0.3577 -0.1317  0.0033
 7666TIP3    H144413   4.616   1.391   3.300 -0.1695 -2.1548 -1.6814
 7666TIP3    H244414   4.605   1.402   3.150 -0.6094  2.0145 -1.4572
 7667TIP3   OH244415   2.629   3.323   6.062 -0.4804  0.1750  0.4072
 7667TIP3    H144416   2.648   3.374   5.984 -1.3259 -2.1235 -1.4203
 7667TIP3    H244417   2.677   3.367   6.132 -0.7011  3.0608 -1.1111
 7668TIP3   OH244418   5.181   0.581   2.013  0.2062 -0.2704 -0.0281
 7668TIP3    H144419   5.262   0.562   1.967  0.0879 -0.1328 -0.2950
 7668TIP3    H244420   5.204   0.575   2.106  0.6293  0.2096 -0.0976
 7669TIP3   OH244421   1.156   5.690  12.059 -0.3609 -0.6359 -0.1482
 7669TIP3    H144422   1.099   5.687  12.136  0.9769 -0.8185  0.8733
 7669TIP3    H244423   1.179   5.782  12.050 -0.6365 -0.5944 -0.4191
 7670TIP3   OH244424   6.324   1.057   3.018  0.3936  0.3889  0.3272
 7670TIP3    H144425   6.382   0.981   3.016 -0.9326 -0.6571 -0.0729
 7670TIP3    H244426   6.343   1.100   3.101 -0.2205 -1.5331  1.5206
 7671TIP3   OH244427   1.044   4.189   5.560 -0.6803  0.0266  0.4736
 7671TIP3    H144428   1.116   4.183   5.622 -0.1007  0.7943 -0.1100
 7671TIP3    H244429   1.046   4.106   5.512 -0.4524 -0.1256  0.7458
 7672TIP3   OH244430   1.644   6.486  11.953 -0.2074  0.1177  0.2929
 7672TIP3    H144431   1.567   6.465  12.006 -0.2995 -0.8551 -0.2150
 7672TIP3    H244432   1.637   6.430  11.876  1.1468 -0.1916  0.3643
 7673TIP3   OH244433   3.616   5.576  11.135  0.1970  0.5549  0.6770
 7673TIP3    H144434   3.611   5.571  11.231 -1.2861 -2.0341  0.5403
 7673TIP3    H244435   3.527   5.558  11.105  0.3210  2.6830 -1.2219
 7674TIP3   OH244436   0.416   1.623  11.096  0.0625 -0.2690  0.1798
 7674TIP3    H144437   0.447   1.636  11.006  2.3452 -0.5566  0.8530
 7674TIP3    H244438   0.381   1.534  11.097 -0.4264 -0.0949 -0.5198
 7675TIP3   OH244439   6.555   1.994   4.240  0.3506 -0.0580 -0.0198
 7675TIP3    H144440   6.609   1.937   4.296  0.2066 -0.3476 -0.1786
 7675TIP3    H244441   6.549   2.076   4.289  0.5638 -0.1759  0.2059
 7676TIP3   OH244442   4.983   3.663  10.965  0.2568  0.3100  0.1937
 7676TIP3    H144443   4.926   3.602  10.918  1.3344  0.8661 -1.9711
 7676TIP3    H244444   4.936   3.746  10.963  0.5195  0.4459 -0.3376
 7677TIP3   OH244445   3.766   4.994  16.676 -0.2545  0.1772  0.4321
 7677TIP3    H144446   3.788   4.931  16.607  0.3495 -0.9257  1.5950
 7677TIP3    H244447   3.839   4.989  16.738 -0.0560  2.2473  0.4425
 7678TIP3   OH244448   3.678   0.764  15.383  0.5090  0.1942  0.2835
 7678TIP3    H144449   3.738   0.807  15.322 -0.6951  0.5362 -0.6917
 7678TIP3    H244450   3.714   0.675  15.393  1.1571  0.3858 -0.3028
 7679TIP3   OH244451   2.611   1.376  13.640  0.5685  0.2040  0.2662
 7679TIP3    H144452   2.703   1.353  13.652  0.5909  0.9242  1.6304
 7679TIP3    H244453   2.570   1.296  13.607  1.2409 -0.8697  1.8906
 7680TIP3   OH244454   2.383   4.105   2.914 -0.8223  0.1007 -0.1211
 7680TIP3    H144455   2.419   4.068   2.833 -3.2011 -0.9599 -0.8058
 7680TIP3    H244456   2.453   4.096   2.978  0.5906 -0.5125 -1.6677
 7681TIP3   OH244457   3.546   3.409  12.200  0.6764  0.5046  0.2504
 7681TIP3    H144458   3.623   3.439  12.151  0.7240  0.5310  0.3399
 7681TIP3    H244459   3.565   3.318  12.220  1.1404  0.7864  1.1412
 7682TIP3   OH244460   6.676   2.294  10.962 -0.8258  0.5174 -0.0948
 7682TIP3    H144461   6.666   2.219  10.904 -0.9150 -0.7869  1.5684
 7682TIP3    H244462   6.590   2.305  11.003  0.0494 -0.6391  2.1926
 7683TIP3   OH244463   3.255   4.020  12.869 -0.6042 -0.5278 -0.9060
 7683TIP3    H144464   3.345   4.023  12.902 -0.6327  0.3862 -0.8899
 7683TIP3    H244465   3.224   3.932  12.892 -0.3411 -0.2234  0.7735
 7684TIP3   OH244466   6.218   1.246   3.267  0.1720  0.1141 -0.2050
 7684TIP3    H144467   6.231   1.291   3.184  2.7510  1.3335  0.7405
 7684TIP3    H244468   6.196   1.315   3.329  2.6247 -0.0302  0.9483
 7685TIP3   OH244469   1.547   0.195   3.996  0.2719  0.0225 -0.3476
 7685TIP3    H144470   1.643   0.196   3.996  0.2856  1.6581  0.8286
 7685TIP3    H244471   1.523   0.239   4.077 -1.4991 -1.1502 -0.1828
 7686TIP3   OH244472   0.640   3.636  10.342  0.2374 -0.2229  0.2370
 7686TIP3    H144473   0.641   3.724  10.305 -1.4707 -0.9683 -1.8311
 7686TIP3    H244474   0.728   3.602  10.326  0.7614  0.9024  0.6128
 7687TIP3   OH244475   6.570   2.656   4.724 -0.1072 -0.4144  0.2149
 7687TIP3    H144476   6.515   2.627   4.652  1.9466 -2.0015 -0.8415
 7687TIP3    H244477   6.544   2.601   4.798  0.4810 -1.6784 -0.4755
 7688TIP3   OH244478   4.614   1.720   6.414  0.1520  0.1002  0.2310
 7688TIP3    H144479   4.590   1.645   6.360  0.9922  1.7526 -2.6649
 7688TIP3    H244480   4.540   1.780   6.406  1.2454  1.3418 -1.1297
 7689TIP3   OH244481   6.175   2.215   1.673 -0.1029  0.0051 -0.1597
 7689TIP3    H144482   6.149   2.156   1.602 -2.5229 -0.8544  1.3145
 7689TIP3    H244483   6.114   2.289   1.666 -0.7263 -0.3522  1.3187
 7690TIP3   OH244484   6.473   5.084  16.186  0.2511 -0.1837 -0.0857
 7690TIP3    H144485   6.462   5.176  16.160 -0.9158 -0.2073  0.2388
 7690TIP3    H244486   6.567   5.074  16.201  0.1816  1.5963  2.1136
 7691TIP3   OH244487   6.384   5.843  16.046 -0.3262 -0.4159  0.0689
 7691TIP3    H144488   6.432   5.807  15.971 -2.6383  1.4289 -2.4797
 7691TIP3    H244489   6.316   5.778  16.065  0.0926 -0.7566  0.4412
 7692TIP3   OH244490   1.605   4.003  15.677  0.6734  0.4739 -0.0793
 7692TIP3    H144491   1.629   3.965  15.592  1.0371 -1.6562  0.9183
 7692TIP3    H244492   1.511   3.988  15.684  0.9485 -1.1980  0.6879
 7693TIP3   OH244493   1.156   4.101   0.874  0.1594 -0.0494 -0.4798
 7693TIP3    H144494   1.202   4.024   0.906  0.1331  0.0780 -0.1227
 7693TIP3    H244495   1.167   4.166   0.944 -3.2274 -1.0038  1.1212
 7694TIP3   OH244496   1.236   4.560  12.605  0.3136  0.3998  0.4154
 7694TIP3    H144497   1.156   4.507  12.605  1.5211 -1.5094  0.1420
 7694TIP3    H244498   1.239   4.598  12.693 -2.2615  2.8160 -0.3762
 7695TIP3   OH244499   3.732   5.201  16.115  0.4166 -0.5345 -0.0138
 7695TIP3    H144500   3.792   5.132  16.146 -1.1030 -2.7308 -1.6683
 7695TIP3    H244501   3.775   5.238  16.038  0.5022 -0.7803 -0.0837
 7696TIP3   OH244502   2.543   0.729  13.811 -0.0964  0.2916 -0.0001
 7696TIP3    H144503   2.548   0.759  13.720 -0.6227 -0.9357 -0.4495
 7696TIP3    H244504   2.513   0.806  13.859 -1.8970  0.3911 -1.2014
 7697TIP3   OH244505   4.791   4.036  16.182  0.5622 -1.0889  0.2622
 7697TIP3    H144506   4.743   4.109  16.143  1.1856 -0.9589 -0.2794
 7697TIP3    H244507   4.725   3.969  16.197  0.0026 -0.4536  0.6632
 7698TIP3   OH244508   6.763   1.903  15.531 -0.0656  0.0584 -0.1913
 7698TIP3    H144509   6.773   1.820  15.485 -2.4354  0.4044 -1.4941
 7698TIP3    H244510   6.845   1.950  15.515  0.5764 -1.2791 -0.9891
 7699TIP3   OH244511   1.914   2.583   0.103 -0.4705  0.0169 -0.0779
 7699TIP3    H144512   1.894   2.615   0.191 -0.2482  1.7246 -0.6100
 7699TIP3    H244513   2.005   2.610   0.087 -0.9031  0.8685 -1.2828
 7700TIP3   OH244514   3.522   3.005   4.185  0.2192  0.0845 -0.7119
 7700TIP3    H144515   3.552   3.048   4.265  1.4036 -1.4938 -0.2777
 7700TIP3    H244516   3.594   3.018   4.123  1.0469 -2.0521 -0.2678
 7701TIP3   OH244517   4.809   1.612   2.266  0.1127 -0.3003 -0.2575
 7701TIP3    H144518   4.715   1.607   2.279 -0.1333  0.5769 -1.4990
 7701TIP3    H244519   4.833   1.700   2.295  0.8215 -1.0118  1.4376
 7702TIP3   OH244520   5.147   3.706   4.433 -0.6295 -0.4431  0.6750
 7702TIP3    H144521   5.183   3.779   4.483  0.0635 -1.2992  1.4600
 7702TIP3    H244522   5.092   3.659   4.495 -0.9071 -0.7135  0.2304
 7703TIP3   OH244523   4.037   3.245  15.375  0.4058 -0.0896  0.2982
 7703TIP3    H144524   4.054   3.339  15.371  0.4078 -0.0696  0.7304
 7703TIP3    H244525   4.042   3.224  15.468 -0.8996 -0.2654  0.3457
 7704TIP3   OH244526   5.593   4.913   3.755  0.1698 -0.2497  0.5664
 7704TIP3    H144527   5.637   4.997   3.766 -1.1929  0.3018  2.0042
 7704TIP3    H244528   5.656   4.860   3.705  0.4132  2.0927 -1.8040
 7705TIP3   OH244529   4.087   3.383   4.428  0.2284  0.1433 -0.9499
 7705TIP3    H144530   4.155   3.450   4.426 -0.3891  0.7783 -1.6686
 7705TIP3    H244531   4.014   3.423   4.380 -2.4623  1.3965  3.5733
 7706TIP3   OH244532   2.905   6.320   2.414  0.1918  0.0433 -0.1873
 7706TIP3    H144533   2.826   6.274   2.443 -0.5191  0.8891 -0.7263
 7706TIP3    H244534   2.900   6.319   2.318  0.6179  0.4770 -0.2199
 7707TIP3   OH244535   0.287   2.032   1.824 -0.1367  0.4900 -0.0352
 7707TIP3    H144536   0.316   1.942   1.812 -0.7980  0.3830 -0.9687
 7707TIP3    H244537   0.299   2.073   1.738  1.4885  1.7135  0.7189
 7708TIP3   OH244538   6.318   0.791  14.612  0.0749 -0.2176 -0.3443
 7708TIP3    H144539   6.359   0.724  14.558 -1.7942 -2.1702  0.5053
 7708TIP3    H244540   6.385   0.816  14.675  0.7771 -1.3753 -0.5993
 7709TIP3   OH244541   5.365   2.526   0.995  0.3241 -0.4931  0.2901
 7709TIP3    H144542   5.331   2.525   1.085  0.0304 -0.2605  0.1826
 7709TIP3    H244543   5.415   2.445   0.988 -0.9745 -1.3058  0.1551
 7710TIP3   OH244544   0.015   0.492   2.042  0.3246 -0.3956 -0.3130
 7710TIP3    H144545   0.081   0.434   2.080  1.7699  0.8524 -0.8212
 7710TIP3    H244546   0.061   0.540   1.973 -0.7601  1.4409  0.1503
 7711TIP3   OH244547   3.558   3.400  16.723  0.5685  0.6705  0.1781
 7711TIP3    H144548   3.524   3.318  16.758  3.5040 -1.2393 -1.0512
 7711TIP3    H244549   3.604   3.440  16.797  3.3391 -1.3700 -0.2952
 7712TIP3   OH244550   4.393   2.636   3.955 -0.0813 -0.0307  0.2938
 7712TIP3    H144551   4.385   2.719   4.002 -2.6758  0.0961 -0.2513
 7712TIP3    H244552   4.408   2.661   3.864 -1.9306 -0.0948 -0.0529
 7713TIP3   OH244553   4.876   3.962  10.386 -0.0085  0.6733 -0.4283
 7713TIP3    H144554   4.822   3.883  10.389  0.4752  0.3475 -0.1257
 7713TIP3    H244555   4.816   4.033  10.410 -0.1512  0.2309  0.5722
 7714TIP3   OH244556   6.356   0.622   2.339 -0.0762  0.5023  0.1955
 7714TIP3    H144557   6.429   0.606   2.279 -0.9658 -0.7160 -0.5916
 7714TIP3    H244558   6.339   0.538   2.380 -2.1968  0.2857 -0.9864
 7715TIP3   OH244559   5.365   1.317  16.101 -0.2645  0.0735  0.1174
 7715TIP3    H144560   5.387   1.323  16.008  1.7315  0.0317  0.5299
 7715TIP3    H244561   5.388   1.228  16.126  3.0242  1.1130  1.4201
 7716TIP3   OH244562   6.270   6.143  12.690 -0.1900  0.7124 -0.4835
 7716TIP3    H144563   6.196   6.084  12.707  0.7177 -0.5902 -0.8956
 7716TIP3    H244564   6.346   6.094  12.721  0.6437  1.4898 -1.2660
 7717TIP3   OH244565   1.020   6.175   3.541 -0.1129 -0.4587 -0.2491
 7717TIP3    H144566   1.045   6.134   3.624  0.1715  1.2117  0.5282
 7717TIP3    H244567   1.036   6.107   3.475  0.7859 -1.4256  0.9182
 7718TIP3   OH244568   5.166   0.700  12.248 -0.3419  0.3235  0.4941
 7718TIP3    H144569   5.094   0.641  12.223  1.5839 -1.5666 -1.0343
 7718TIP3    H244570   5.208   0.722  12.165  1.4106  0.5661  1.4009
 7719TIP3   OH244571   5.098   6.481  13.502 -0.7700 -0.0275  0.6716
 7719TIP3    H144572   5.135   6.489  13.414  1.2043  1.1478  1.5593
 7719TIP3    H244573   5.143   6.405  13.540 -1.5715 -0.4957  0.7061
 7720TIP3   OH244574   3.969   0.813   4.607 -0.2774  0.4777  0.7716
 7720TIP3    H144575   3.996   0.882   4.546  0.4660 -0.0726  0.4676
 7720TIP3    H244576   4.031   0.742   4.592 -0.3426  0.1735  1.8816
 7721TIP3   OH244577   3.416   3.505   0.239 -0.1218  0.7177 -0.6604
 7721TIP3    H144578   3.380   3.552   0.164 -1.1892 -0.2534 -0.7930
 7721TIP3    H244579   3.368   3.541   0.314 -2.9769 -1.9032 -1.0226
 7722TIP3   OH244580   6.071   1.953  12.978  0.2276 -0.2547  0.0623
 7722TIP3    H144581   6.104   2.010  13.047 -0.4655  0.7503 -0.4196
 7722TIP3    H244582   5.982   1.932  13.006  0.2086 -0.4683 -0.1542
 7723TIP3   OH244583   2.511   0.510  16.581 -0.6086  0.5116 -0.2015
 7723TIP3    H144584   2.538   0.569  16.511  1.4511 -2.4637 -2.0973
 7723TIP3    H244585   2.572   0.528  16.653  0.3904  0.2599 -0.9823
 7724TIP3   OH244586   5.125   6.225   2.173  0.2094  0.0183  0.4204
 7724TIP3    H144587   5.035   6.200   2.194 -0.5277  2.2773  0.2235
 7724TIP3    H244588   5.172   6.217   2.256 -0.5074  0.1220  0.8416
 7725TIP3   OH244589   4.879   1.431  11.515  0.0103 -0.2242 -0.0176
 7725TIP3    H144590   4.867   1.376  11.592  0.9705 -1.7243 -0.9028
 7725TIP3    H244591   4.811   1.499  11.523 -1.2853 -1.5837  1.0415
 7726TIP3   OH244592   3.621   2.169  14.914 -0.1470 -0.1315  0.0106
 7726TIP3    H144593   3.586   2.081  14.905  0.2360 -0.2922  0.0485
 7726TIP3    H244594   3.585   2.200  14.997 -0.4306 -0.1814 -0.0930
 7727TIP3   OH244595   3.896   2.609  16.202  0.6189  0.0329 -0.6262
 7727TIP3    H144596   3.863   2.637  16.288  0.6358 -1.6441 -0.0451
 7727TIP3    H244597   3.835   2.649  16.140 -0.8304 -0.6535  0.2870
 7728TIP3   OH244598   6.147   2.504   4.205 -0.1924  0.3546  0.1526
 7728TIP3    H144599   6.188   2.435   4.256 -0.3067 -0.0900 -0.3618
 7728TIP3    H244600   6.135   2.575   4.268 -0.5913 -0.2960  0.8250
 7729TIP3   OH244601   2.294   2.997  10.798 -0.1862  0.2530  0.0684
 7729TIP3    H144602   2.239   3.023  10.724 -0.3032  3.2534  1.0773
 7729TIP3    H244603   2.233   2.989  10.872  0.2214 -0.4608  0.3349
 7730TIP3   OH244604   3.108   5.434   2.270  0.1092 -0.2675 -0.6668
 7730TIP3    H144605   3.013   5.447   2.270  0.3060  1.3792 -0.6884
 7730TIP3    H244606   3.145   5.523   2.264  1.6617 -0.6682  1.4599
 7731TIP3   OH244607   1.465   4.073  13.478  0.1171  0.0193 -0.7136
 7731TIP3    H144608   1.503   4.119  13.553 -0.8468  0.4349 -0.4645
 7731TIP3    H244609   1.390   4.126  13.453 -1.8276 -2.0672  0.3966
 7732TIP3   OH244610   3.625   6.336  11.639  0.2123  0.1814  0.5360
 7732TIP3    H144611   3.690   6.266  11.644  0.9908  0.6971 -1.4707
 7732TIP3    H244612   3.666   6.409  11.686  1.0125  0.4353 -0.5338
 7733TIP3   OH244613   3.625   0.799  17.091  0.2321  0.1984  0.1724
 7733TIP3    H144614   3.685   0.794  17.016 -1.7689 -0.0307 -1.5229
 7733TIP3    H244615   3.596   0.890  17.092 -2.0484 -0.4223 -1.3484
 7734TIP3   OH244616   0.137   3.565  15.562 -0.6166  0.2684  0.4422
 7734TIP3    H144617   0.076   3.544  15.491  0.1073 -0.3868  0.0029
 7734TIP3    H244618   0.219   3.586  15.518 -0.3289  0.4589  1.0602
 7735TIP3   OH244619   5.282   0.780   3.570 -0.1457  0.0543  0.8745
 7735TIP3    H144620   5.237   0.755   3.489 -2.2313 -1.0890  2.3300
 7735TIP3    H244621   5.265   0.874   3.578  1.5296  0.5644 -0.8319
 7736TIP3   OH244622   6.040   5.915  14.528 -0.8497  0.7391  0.2267
 7736TIP3    H144623   6.130   5.946  14.518 -0.5245 -0.3821 -0.4117
 7736TIP3    H244624   5.987   5.985  14.490 -0.5066  2.7827  3.1761
 7737TIP3   OH244625   2.010   0.812  11.045  0.0348  0.4363 -0.0093
 7737TIP3    H144626   1.980   0.726  11.015 -1.3233  1.0026 -0.3676
 7737TIP3    H244627   1.995   0.810  11.140 -0.0963  0.3194 -0.0315
 7738TIP3   OH244628   0.071   4.351   5.418  0.9208 -0.0867 -0.0383
 7738TIP3    H144629   0.069   4.259   5.443  0.5883  0.0990  0.6500
 7738TIP3    H244630   0.101   4.397   5.496 -1.4548  0.6529  0.5170
 7739TIP3   OH244631   2.099   6.172  12.903 -0.0268 -0.2803  0.6122
 7739TIP3    H144632   2.004   6.188  12.903 -0.2438 -1.3165 -0.8084
 7739TIP3    H244633   2.109   6.083  12.935  0.4246 -0.3587  0.2660
 7740TIP3   OH244634   2.514   3.205  14.089  0.5149 -0.3347  0.4600
 7740TIP3    H144635   2.511   3.137  14.155  0.6271 -0.6138  0.1787
 7740TIP3    H244636   2.551   3.163  14.011  1.8666  0.3907  0.6820
 7741TIP3   OH244637   2.245   2.874   2.917  0.2432  0.3552  0.0176
 7741TIP3    H144638   2.319   2.875   2.978  2.0331  0.5282 -2.0624
 7741TIP3    H244639   2.234   2.965   2.891  0.7514  0.0412 -1.3387
 7742TIP3   OH244640   4.769   0.423  10.681 -0.5189  0.0954 -0.2730
 7742TIP3    H144641   4.693   0.378  10.716 -0.4746  0.8470  0.8400
 7742TIP3    H244642   4.838   0.409  10.747  0.9180 -2.1257 -2.0691
 7743TIP3   OH244643   2.224   0.946  13.017 -0.4463  0.4621  0.6642
 7743TIP3    H144644   2.131   0.967  13.029 -0.9884 -1.1874 -0.3255
 7743TIP3    H244645   2.225   0.852  13.003  1.3751  0.4990  0.3924
 7744TIP3   OH244646   4.803   0.606  11.869  0.0663 -0.0208  0.1635
 7744TIP3    H144647   4.739   0.549  11.912  1.6291 -0.0917  2.6104
 7744TIP3    H244648   4.760   0.691  11.864 -0.7818 -0.4281  0.3441
 7745TIP3   OH244649   1.350   2.619   2.147 -0.8419 -0.2629  0.3984
 7745TIP3    H144650   1.355   2.527   2.123 -0.5690  0.2023 -1.5446
 7745TIP3    H244651   1.261   2.631   2.178 -1.1809 -0.9919 -0.2630
 7746TIP3   OH244652   5.596   0.716   6.561 -0.1758  0.1114  0.5536
 7746TIP3    H144653   5.606   0.690   6.653 -0.2977  1.1771  0.8801
 7746TIP3    H244654   5.510   0.758   6.558 -0.3986 -0.3821 -0.1720
 7747TIP3   OH244655   4.861   2.007  15.447  0.3455  0.4223 -0.7058
 7747TIP3    H144656   4.944   1.987  15.490 -0.4776 -0.1610  0.6931
 7747TIP3    H244657   4.884   2.023  15.356  2.0337  0.6488 -0.2703
 7748TIP3   OH244658   6.396   0.574  11.644 -0.0521  0.0430 -0.0233
 7748TIP3    H144659   6.484   0.600  11.671 -0.4486  0.9571  0.4229
 7748TIP3    H244660   6.405   0.482  11.620  1.1109  0.2292 -0.3763
 7749TIP3   OH244661   2.388   1.369  12.276 -0.1852  0.3084 -0.1778
 7749TIP3    H144662   2.299   1.342  12.299 -0.4965  2.1969  1.0826
 7749TIP3    H244663   2.440   1.350  12.354  0.3273  0.0973 -0.5639
 7750TIP3   OH244664   0.255   4.595  12.167 -0.1164  0.4369  0.4047
 7750TIP3    H144665   0.289   4.667  12.221  0.6797  0.3508  0.0330
 7750TIP3    H244666   0.172   4.628  12.132  0.0878  1.0519  0.4939
 7751TIP3   OH244667   0.541   6.659   2.164 -1.1039  0.1548 -0.0778
 7751TIP3    H144668   0.549   6.632   2.073  2.8516  0.1954  0.1020
 7751TIP3    H244669   0.492   6.741   2.161 -1.0040  0.1763 -2.1393
 7752TIP3   OH244670   4.799   2.452   4.821  0.3488 -0.3894 -0.1586
 7752TIP3    H144671   4.820   2.408   4.738  0.0269 -0.0669 -0.4083
 7752TIP3    H244672   4.772   2.540   4.796  2.0551  0.3449  0.4126
 7753TIP3   OH244673   0.001   2.991   4.903  0.2409  0.5791  0.3029
 7753TIP3    H144674   0.016   3.049   4.827  0.4775 -0.7843 -0.7256
 7753TIP3    H244675   0.075   2.931   4.901 -1.2902 -1.3859 -0.2172
 7754TIP3   OH244676   1.547   0.101  16.093 -0.4044  0.4346 -0.2391
 7754TIP3    H144677   1.628   0.152  16.092 -0.2268  0.1691  0.2156
 7754TIP3    H244678   1.509   0.119  16.179 -0.8151  0.5384 -0.4428
 7755TIP3   OH244679   1.373   5.997   4.638  0.2301 -0.1641  0.1294
 7755TIP3    H144680   1.399   5.945   4.562  0.4432  0.1358 -0.0060
 7755TIP3    H244681   1.333   5.934   4.697  0.8695 -0.5606  0.1524
 7756TIP3   OH244682   3.866   2.460   3.308  0.3620  0.0859  0.1171
 7756TIP3    H144683   3.925   2.534   3.319  1.1319 -0.5493  0.3204
 7756TIP3    H244684   3.906   2.389   3.358 -0.6371 -0.3258  0.3636
 7757TIP3   OH244685   6.424   3.276   2.177 -0.0224 -0.1558 -0.0584
 7757TIP3    H144686   6.403   3.354   2.127  0.3188 -0.0602 -0.0578
 7757TIP3    H244687   6.370   3.282   2.256 -0.1625 -0.0339 -0.1658
 7758TIP3   OH244688   3.556   5.942   0.368 -0.5089 -0.4643  0.2712
 7758TIP3    H144689   3.469   5.903   0.374 -0.6268 -0.6200 -1.8586
 7758TIP3    H244690   3.583   5.929   0.277  1.1703  0.8064  0.5289
 7759TIP3   OH244691   0.539   0.452   4.197 -0.1181 -0.3630 -0.3564
 7759TIP3    H144692   0.598   0.520   4.166 -0.4090  0.2739  0.4452
 7759TIP3    H244693   0.474   0.443   4.127 -1.5617  2.0262  0.5545
 7760TIP3   OH244694   3.855   1.702  16.660 -0.1284  0.2313 -0.3995
 7760TIP3    H144695   3.815   1.666  16.581 -0.2291 -0.1230 -0.1865
 7760TIP3    H244696   3.921   1.638  16.685  1.0060  1.0871 -1.0875
 7761TIP3   OH244697   4.117   5.953  15.892  0.5861  0.2464  0.3309
 7761TIP3    H144698   4.034   5.970  15.847  0.7886  0.4763  0.0409
 7761TIP3    H244699   4.093   5.945  15.984  0.0885 -0.7549  0.1293
 7762TIP3   OH244700   5.070   2.437   3.746  0.0528  0.1283  0.0561
 7762TIP3    H144701   5.100   2.351   3.720 -0.0515  0.1291 -0.0694
 7762TIP3    H244702   5.032   2.424   3.834 -0.0086  0.0365  0.0162
 7763TIP3   OH244703   4.382   2.318  15.252  0.1140 -0.2296 -0.4440
 7763TIP3    H144704   4.339   2.269  15.323 -0.5751 -0.2217 -0.8421
 7763TIP3    H244705   4.397   2.252  15.184 -0.3910  0.0053 -0.7937
 7764TIP3   OH244706   1.082   1.812  11.563 -0.3966  0.1175 -0.0321
 7764TIP3    H144707   1.029   1.770  11.630 -0.7567  1.5847  0.6492
 7764TIP3    H244708   1.113   1.893  11.604 -0.5113  0.9846 -1.5795
 7765TIP3   OH244709   5.600   4.077   0.709  0.2267 -0.1797 -0.4939
 7765TIP3    H144710   5.527   4.117   0.662  0.9268  0.5243 -1.0148
 7765TIP3    H244711   5.649   4.152   0.744 -0.9794 -0.6712  2.5296
 7766TIP3   OH244712   5.215   1.744   5.647 -0.4230  0.1209 -0.4418
 7766TIP3    H144713   5.189   1.797   5.723 -0.9229  0.2634 -0.7144
 7766TIP3    H244714   5.140   1.747   5.588 -0.2666 -0.4900 -0.6793
 7767TIP3   OH244715   0.031   0.554   1.246 -0.0962 -0.2964  0.3027
 7767TIP3    H144716   0.112   0.551   1.196  0.8347  0.0411  1.7539
 7767TIP3    H244717   0.017   0.464   1.275  0.0435 -0.2574  0.4914
 7768TIP3   OH244718   0.174   0.923  15.126  0.6135 -0.3477  0.0984
 7768TIP3    H144719   0.207   1.010  15.150 -0.9007  0.1216  0.5673
 7768TIP3    H244720   0.124   0.937  15.045  1.6776 -1.0868 -0.7237
 7769TIP3   OH244721   3.930   3.794  12.817  0.4801 -0.6478  0.1520
 7769TIP3    H144722   4.018   3.825  12.840 -0.4025  1.5319  0.8247
 7769TIP3    H244723   3.907   3.842  12.737  0.0499 -1.5410 -0.2803
 7770TIP3   OH244724   3.182   1.079   2.301 -0.1515  0.2807 -0.7434
 7770TIP3    H144725   3.261   1.026   2.310  1.9732  3.4109  0.9864
 7770TIP3    H244726   3.178   1.101   2.208  0.9740 -0.0041 -0.8657
 7771TIP3   OH244727   5.598   2.799  15.138 -0.1452  0.4483 -0.3332
 7771TIP3    H144728   5.656   2.875  15.140 -0.5677  0.7620  0.9808
 7771TIP3    H244729   5.604   2.767  15.048  1.9515  0.5436 -0.2867
 7772TIP3   OH244730   5.912   3.272   0.452  0.5667  0.2757 -0.0791
 7772TIP3    H144731   6.005   3.268   0.478  0.5678 -1.2837 -0.2120
 7772TIP3    H244732   5.901   3.198   0.392 -0.9042  0.1005  0.3742
 7773TIP3   OH244733   1.838   3.806  16.957  0.0078 -0.0350 -0.2886
 7773TIP3    H144734   1.864   3.887  16.999 -1.0363  0.1825 -0.0239
 7773TIP3    H244735   1.919   3.758  16.943  0.6732  1.1750 -0.7211
 7774TIP3   OH244736   4.650   3.067  13.690 -0.1566 -0.0593  0.0842
 7774TIP3    H144737   4.626   3.020  13.770 -2.7446  1.3020  0.2146
 7774TIP3    H244738   4.588   3.036  13.624  0.1905  0.8032 -0.6744
 7775TIP3   OH244739   2.729   3.621  12.365 -0.4173 -0.8991 -0.4969
 7775TIP3    H144740   2.746   3.567  12.288  1.0295  0.3676 -1.1371
 7775TIP3    H244741   2.736   3.560  12.439  1.1298 -1.6217 -1.1863
 7776TIP3   OH244742   2.332   1.259   0.514  0.0840 -0.9699 -0.5272
 7776TIP3    H144743   2.290   1.252   0.599 -0.1946  0.8668 -0.4715
 7776TIP3    H244744   2.423   1.282   0.533  0.2875 -1.5906 -0.7180
 7777TIP3   OH244745   0.687   2.048  11.527 -0.1539  0.3470 -0.3503
 7777TIP3    H144746   0.748   2.062  11.455 -0.0503  2.2407  0.0505
 7777TIP3    H244747   0.742   2.034  11.603 -0.2555 -2.3248 -0.6624
 7778TIP3   OH244748   2.598   3.503  14.147 -0.2344 -0.1746 -0.2930
 7778TIP3    H144749   2.535   3.440  14.184  1.1011 -0.2650  1.9535
 7778TIP3    H244750   2.651   3.451  14.087 -0.3426 -0.7979  0.1395
 7779TIP3   OH244751   3.606   1.178   4.580  0.0237 -0.0748 -0.1558
 7779TIP3    H144752   3.546   1.230   4.527  0.0798 -0.7608 -0.9073
 7779TIP3    H244753   3.549   1.123   4.634 -0.0286 -0.1486 -0.2856
 7780TIP3   OH244754   2.183   0.826  14.704 -0.0487  0.4718  0.1815
 7780TIP3    H144755   2.204   0.908  14.748  2.1959 -0.3868  0.8243
 7780TIP3    H244756   2.087   0.824  14.702 -0.1795  3.1378  0.0284
 7781TIP3   OH244757   3.315   6.772   0.118  0.2395  0.8565 -0.1887
 7781TIP3    H144758   3.334   6.711   0.189  0.0302 -0.1588 -0.9851
 7781TIP3    H244759   3.400   6.808   0.094  0.1784  2.2642  1.4511
 7782TIP3   OH244760   0.936   4.684   0.218 -0.5246  0.0612  0.2991
 7782TIP3    H144761   0.867   4.661   0.155  0.3434 -1.5791 -0.1217
 7782TIP3    H244762   1.013   4.637   0.186  1.0142  2.3860  0.3483
 7783TIP3   OH244763   6.780   4.572   2.126  0.5686 -0.3702  0.2124
 7783TIP3    H144764   6.813   4.503   2.070 -0.4872 -0.2071 -0.6555
 7783TIP3    H244765   6.685   4.558   2.128  0.6067 -0.6871  2.3978
 7784TIP3   OH244766   5.955   0.012  16.192  0.1402  0.1801 -0.1822
 7784TIP3    H144767   5.944   0.008  16.287 -0.3451 -0.3776 -0.2521
 7784TIP3    H244768   5.911   0.093  16.166  0.4241  0.4207  0.0882
 7785TIP3   OH244769   2.078   0.961   0.114  0.2867  0.7462  0.3929
 7785TIP3    H144770   2.048   0.871   0.103 -1.4512  1.4784 -1.2476
 7785TIP3    H244771   2.132   0.959   0.194  1.5044 -2.0133 -0.4029
 7786TIP3   OH244772   0.183   5.157   1.384 -0.3102  0.0691 -0.0684
 7786TIP3    H144773   0.181   5.249   1.356  1.3110  0.7193  1.7376
 7786TIP3    H244774   0.093   5.138   1.411 -0.7212  1.0386 -0.7043
 7787TIP3   OH244775   6.730   2.261   4.658 -0.0951 -0.0137  0.1942
 7787TIP3    H144776   6.731   2.313   4.739  1.3528 -0.9652  0.8485
 7787TIP3    H244777   6.725   2.170   4.689  1.3714 -0.4432 -0.7079
 7788TIP3   OH244778   6.029   5.871  15.778  0.0402  0.8149  0.6754
 7788TIP3    H144779   6.075   5.787  15.782  0.8826  1.1774 -0.6763
 7788TIP3    H244780   5.984   5.878  15.862  0.3220 -0.7754  0.9919
 7789TIP3   OH244781   1.484   1.791  14.452 -0.2823 -0.1341 -0.5298
 7789TIP3    H144782   1.470   1.812  14.359  0.2645  0.7393 -0.4306
 7789TIP3    H244783   1.443   1.864  14.499  2.5602  1.3770 -0.1759
 7790TIP3   OH244784   2.223   3.322  16.086  0.5004  0.2281 -0.0320
 7790TIP3    H144785   2.283   3.367  16.146 -0.6105  1.8553 -0.0877
 7790TIP3    H244786   2.276   3.302  16.009  0.6860  2.9933 -0.7144
 7791TIP3   OH244787   2.230   6.231  16.086  0.5678 -0.5655 -0.6318
 7791TIP3    H144788   2.303   6.283  16.119 -1.1492  1.9041 -0.4439
 7791TIP3    H244789   2.192   6.284  16.016 -1.6085 -1.2852 -0.0754
 7792TIP3   OH244790   4.367   0.853   0.738  0.2111  0.1301 -0.4178
 7792TIP3    H144791   4.395   0.768   0.772 -1.1704 -0.7132 -1.2974
 7792TIP3    H244792   4.293   0.833   0.680 -0.6153  2.0046 -0.0936
 7793TIP3   OH244793   4.462   2.335   4.870 -0.1109 -0.4152  0.1251
 7793TIP3    H144794   4.418   2.336   4.954  0.6449 -0.2263  0.5260
 7793TIP3    H244795   4.496   2.424   4.859 -0.3711 -0.3828 -0.4678
 7794TIP3   OH244796   4.213   6.491  12.917  0.2522 -0.3650  0.6954
 7794TIP3    H144797   4.162   6.568  12.891  0.0885  0.0087  2.0470
 7794TIP3    H244798   4.163   6.417  12.884 -0.1024  0.0590  0.2475
 7795TIP3   OH244799   0.857   0.127   3.521  0.0443 -0.4665 -0.7317
 7795TIP3    H144800   0.775   0.176   3.518 -0.4034 -1.2140 -1.1548
 7795TIP3    H244801   0.830   0.036   3.533  0.8101 -0.7233 -0.9018
 7796TIP3   OH244802   1.361   2.247  15.356 -0.2334 -0.4319 -0.1000
 7796TIP3    H144803   1.273   2.225  15.325 -0.1213 -3.0129  1.1412
 7796TIP3    H244804   1.416   2.175  15.325  1.1494  0.3642  0.4321
 7797TIP3   OH244805   3.191   3.542   4.385 -0.5452  0.0221 -0.3201
 7797TIP3    H144806   3.167   3.451   4.399  0.0552 -0.0443  0.3186
 7797TIP3    H244807   3.286   3.542   4.384 -0.5337  0.7228  0.2403
 7798TIP3   OH244808   1.460   1.394   4.185 -0.0196  0.2309 -0.0838
 7798TIP3    H144809   1.470   1.302   4.159  1.4354  0.7203 -1.3996
 7798TIP3    H244810   1.499   1.444   4.113 -0.8563  1.8954  0.5699
 7799TIP3   OH244811   1.120   5.823  14.465  0.2568 -0.1776  0.1940
 7799TIP3    H144812   1.110   5.916  14.483  0.7948 -0.3516  1.4836
 7799TIP3    H244813   1.135   5.818  14.370 -0.8071  0.9427 -0.0498
 7800TIP3   OH244814   3.074   4.155   4.540  0.6058  0.0711 -0.0115
 7800TIP3    H144815   2.986   4.126   4.514  0.1307  1.1137  0.3687
 7800TIP3    H244816   3.130   4.132   4.466  0.1218 -1.1116 -0.0347
 7801TIP3   OH244817   2.896   5.311   4.853 -0.3144 -0.3642 -0.1799
 7801TIP3    H144818   2.907   5.358   4.935 -0.6488 -0.0136 -0.3314
 7801TIP3    H244819   2.922   5.374   4.786  1.5445 -1.1699 -0.2773
 7802TIP3   OH244820   5.515   1.686   3.109 -0.3959 -0.5214 -0.5090
 7802TIP3    H144821   5.464   1.706   3.187  0.1050  1.0223 -0.5397
 7802TIP3    H244822   5.491   1.596   3.087 -1.1507 -0.7073  0.9454
 7803TIP3   OH244823   2.964   0.972   1.738 -0.0333  0.5393 -0.6643
 7803TIP3    H144824   2.896   0.998   1.676 -1.1929  0.0844  0.3815
 7803TIP3    H244825   2.998   0.889   1.704 -1.1396 -0.0562 -0.3506
 7804TIP3   OH244826   5.118   3.571   4.200  0.1338  0.4238 -0.2822
 7804TIP3    H144827   5.024   3.556   4.199  0.1939  0.0412 -0.0232
 7804TIP3    H244828   5.136   3.608   4.286  0.7154 -2.6976  1.0514
 7805TIP3   OH244829   6.278   6.444  14.394 -0.4484  0.0793  0.5951
 7805TIP3    H144830   6.189   6.409  14.387 -0.5321  0.5427 -1.2470
 7805TIP3    H244831   6.320   6.389  14.460 -1.6708 -1.0695  0.4660
 7806TIP3   OH244832   4.963   1.212   4.253  0.5624 -0.1212  0.5296
 7806TIP3    H144833   4.930   1.271   4.185  2.5558 -0.1181 -0.5237
 7806TIP3    H244834   4.927   1.126   4.230  0.9690 -0.0592 -0.3954
 7807TIP3   OH244835   1.280   1.450  15.770 -0.1548 -0.5840 -0.1091
 7807TIP3    H144836   1.361   1.493  15.745  0.5769 -0.8885  1.5692
 7807TIP3    H244837   1.257   1.395  15.695  1.9751 -1.5683 -0.1131
 7808TIP3   OH244838   1.186   4.591   0.148 -0.1725  0.1656 -0.4417
 7808TIP3    H144839   1.264   4.551   0.187  0.4205  0.4244 -1.3340
 7808TIP3    H244840   1.217   4.674   0.112 -0.5461 -0.3364 -1.9936
 7809TIP3   OH244841   2.301   1.758   5.689  0.0669  0.2383 -0.0001
 7809TIP3    H144842   2.383   1.710   5.703 -0.6668 -1.4552 -1.1471
 7809TIP3    H244843   2.316   1.806   5.607 -0.5724 -1.3194 -1.0779
 7810TIP3   OH244844   3.696   3.334   4.286 -0.3995 -0.0130  0.5192
 7810TIP3    H144845   3.764   3.268   4.304  1.6486  1.3751 -1.4764
 7810TIP3    H244846   3.715   3.405   4.347  1.2800  1.1694 -1.2353
 7811TIP3   OH244847   5.031   3.849  16.261 -0.5103 -0.4324  0.4320
 7811TIP3    H144848   4.989   3.844  16.175 -0.7168 -0.9421  0.5572
 7811TIP3    H244849   5.037   3.943  16.279 -0.7186 -0.3285 -0.0148
 7812TIP3   OH244850   6.514   4.304  16.484  0.2406  0.0754  0.4035
 7812TIP3    H144851   6.531   4.220  16.527  1.0983  0.1973  0.3271
 7812TIP3    H244852   6.527   4.286  16.391 -0.1253  0.1668  0.3339
 7813TIP3   OH244853   4.840   6.669  14.681  0.3469  0.5242 -0.6459
 7813TIP3    H144854   4.826   6.611  14.606 -0.4151 -2.0002  1.3187
 7813TIP3    H244855   4.905   6.624  14.735  0.0680  1.7264  0.7432
 7814TIP3   OH244856   4.892   6.153   2.245  0.3262 -0.3072 -0.1332
 7814TIP3    H144857   4.813   6.124   2.198  1.4569 -2.7946 -0.6718
 7814TIP3    H244858   4.884   6.112   2.331  0.9450 -0.4429 -0.1377
 7815TIP3   OH244859   6.421   1.567   2.455  0.3154  1.2336 -0.3432
 7815TIP3    H144860   6.507   1.563   2.412  0.4824 -1.1441  0.0432
 7815TIP3    H244861   6.359   1.578   2.384  0.7916  0.2123 -0.9502
 7816TIP3   OH244862   0.399   1.187  16.541  0.8334  0.7598  0.2545
 7816TIP3    H144863   0.478   1.235  16.564  0.6491  0.6605  1.1130
 7816TIP3    H244864   0.426   1.095  16.538  0.4277  0.5372  2.1588
 7817TIP3   OH244865   4.972   0.324   5.683  0.6060 -0.6620 -0.3495
 7817TIP3    H144866   4.959   0.386   5.611 -1.3798 -0.4635  0.1324
 7817TIP3    H244867   4.945   0.240   5.646  1.3227 -0.8909 -0.3681
 7818TIP3   OH244868   2.779   6.696   1.065 -0.0946 -0.2718 -0.1731
 7818TIP3    H144869   2.722   6.737   0.999  1.3956 -0.3299 -1.5503
 7818TIP3    H244870   2.753   6.604   1.065 -0.7303 -0.0968  0.0026
 7819TIP3   OH244871   6.096   0.877   3.628 -0.0221  0.0202  0.4658
 7819TIP3    H144872   6.169   0.902   3.685 -0.2305 -0.4026  0.9257
 7819TIP3    H244873   6.112   0.923   3.546 -0.2406  1.4420  1.1964
 7820TIP3   OH244874   6.727   0.697   4.247  0.0162 -0.4286 -0.4278
 7820TIP3    H144875   6.690   0.663   4.328  0.6124  0.0142  0.0407
 7820TIP3    H244876   6.758   0.619   4.201 -1.4867 -0.8042 -0.8401
 7821TIP3   OH244877   4.037   2.993   0.622  0.1216  0.0084  0.4444
 7821TIP3    H144878   4.122   2.960   0.650  1.4301  2.7211 -0.0011
 7821TIP3    H244879   4.042   3.088   0.634 -2.9485  0.2768  0.6176
 7822TIP3   OH244880   3.903   2.097   4.505 -0.3371  0.2841  0.6364
 7822TIP3    H144881   3.842   2.119   4.434 -1.0679  0.9062  1.4319
 7822TIP3    H244882   3.868   2.015   4.541  1.6022 -1.6097 -1.4392
 7823TIP3   OH244883   2.049   1.720  15.511 -0.0358 -0.0460  0.0988
 7823TIP3    H144884   2.111   1.791  15.494  2.3355 -1.7955  0.9419
 7823TIP3    H244885   2.049   1.669  15.430 -0.2379 -0.1772  0.1812
 7824TIP3   OH244886   2.704   1.166  11.785 -0.4454  0.3455  0.1814
 7824TIP3    H144887   2.748   1.247  11.760  0.4861 -0.7135 -1.8444
 7824TIP3    H244888   2.614   1.178  11.756 -0.9438  1.5058  2.0120
 7825TIP3   OH244889   0.178   2.203  17.187 -0.0230  0.3892 -0.0859
 7825TIP3    H144890   0.172   2.291  17.225  0.0862  0.7732 -0.9364
 7825TIP3    H244891   0.171   2.217  17.092  0.1658 -0.5053 -0.2433
 7826TIP3   OH244892   2.332   0.960   5.699  0.3458 -0.9570  0.2288
 7826TIP3    H144893   2.333   1.034   5.760  2.1115 -1.1334  0.4719
 7826TIP3    H244894   2.245   0.922   5.708  0.0654 -0.0591  1.5116
 7827TIP3   OH244895   1.221   0.981  12.366  0.0365  0.2936 -0.0113
 7827TIP3    H144896   1.315   0.996  12.379  0.6408 -1.8224 -1.3518
 7827TIP3    H244897   1.208   0.993  12.272 -0.5432 -1.4946 -0.1974
 7828TIP3   OH244898   5.696   0.216  14.806  0.1115  0.1875 -0.4016
 7828TIP3    H144899   5.755   0.284  14.838 -1.1895  1.1723 -0.0143
 7828TIP3    H244900   5.608   0.250  14.822 -0.6722  0.4092 -4.2314
 7829TIP3   OH244901   5.265   0.219   0.654 -0.0729  0.0562 -0.2188
 7829TIP3    H144902   5.195   0.277   0.627 -0.9015 -0.3705  0.9292
 7829TIP3    H244903   5.229   0.131   0.647  0.6720 -0.2360 -0.5332
 7830TIP3   OH244904   2.746   5.047   1.333 -0.0097  0.1156 -0.1727
 7830TIP3    H144905   2.708   4.985   1.396 -2.3463  0.0014 -1.5856
 7830TIP3    H244906   2.812   5.094   1.384 -0.8002 -0.9295  1.9770
 7831TIP3   OH244907   4.885   5.557  16.170  0.7683  0.1293 -0.2159
 7831TIP3    H144908   4.790   5.565  16.177  0.4100 -0.8982 -2.5978
 7831TIP3    H244909   4.917   5.561  16.260 -1.5857 -0.1376  0.6991
 7832TIP3   OH244910   0.196   3.160  12.217  0.4215  0.6185 -0.3359
 7832TIP3    H144911   0.292   3.160  12.217  0.4293  0.4469  0.6519
 7832TIP3    H244912   0.172   3.091  12.156  0.9013  1.7723 -1.9016
 7833TIP3   OH244913   4.157   5.413  15.142 -0.2104  0.2128 -0.3826
 7833TIP3    H144914   4.200   5.478  15.198  0.4440  0.7149 -1.4188
 7833TIP3    H244915   4.228   5.354  15.116 -0.8307 -1.0093  0.6505
 7834TIP3   OH244916   5.047   6.252  16.352  0.0394 -0.1103  0.3044
 7834TIP3    H144917   4.976   6.227  16.293 -1.2542  1.7677  0.9556
 7834TIP3    H244918   5.093   6.323  16.306  0.6314 -0.3802  0.4719
 7835TIP3   OH244919   0.588   5.070   4.760  0.1277 -0.2866  0.1382
 7835TIP3    H144920   0.595   5.096   4.852  0.3938 -1.1484  0.3724
 7835TIP3    H244921   0.607   5.150   4.711  1.8342 -0.2298  0.8178
 7836TIP3   OH244922   5.513   3.088  16.629  0.4485 -0.4967 -0.3836
 7836TIP3    H144923   5.464   3.023  16.578 -0.8832 -0.3332  0.6355
 7836TIP3    H244924   5.533   3.157  16.566  0.2315 -1.0316 -1.0570
 7837TIP3   OH244925   0.832   4.629   4.224 -0.5077 -0.0206  0.2449
 7837TIP3    H144926   0.787   4.549   4.252  0.7636 -0.4703  1.0823
 7837TIP3    H244927   0.807   4.694   4.289  0.1734 -0.3190  0.8190
 7838TIP3   OH244928   4.274   1.412   5.870  0.0403 -0.5911 -0.2526
 7838TIP3    H144929   4.347   1.364   5.908  0.3341 -0.4238 -0.6020
 7838TIP3    H244930   4.200   1.352   5.875 -0.3262 -0.0257  2.0235
 7839TIP3   OH244931   1.378   2.102   1.228  0.0359  0.1623 -0.1614
 7839TIP3    H144932   1.388   2.161   1.153 -2.3348 -0.9568 -1.4749
 7839TIP3    H244933   1.308   2.140   1.281  0.6750  0.1705  0.6929
 7840TIP3   OH244934   0.559   0.227  11.508  0.4268  0.8301  0.2067
 7840TIP3    H144935   0.603   0.254  11.588  1.7252 -0.4699 -0.0125
 7840TIP3    H244936   0.579   0.296  11.445 -0.0211  1.5164  0.8078
 7841TIP3   OH244937   1.494   1.620   4.311  0.3267  0.2593 -0.5907
 7841TIP3    H144938   1.501   1.554   4.380  0.6130  1.3577  0.4464
 7841TIP3    H244939   1.468   1.570   4.233 -0.3734 -0.9460  0.3852
 7842TIP3   OH244940   3.425   0.491   0.633  0.2620  0.7399 -0.1875
 7842TIP3    H144941   3.445   0.479   0.725  1.7915 -1.1804 -0.7071
 7842TIP3    H244942   3.406   0.584   0.624  1.7590  1.2879  1.7542
 7843TIP3   OH244943   1.738   4.535  16.518  0.3503  0.1699 -0.3788
 7843TIP3    H144944   1.764   4.621  16.553 -1.1048  1.2418 -1.7808
 7843TIP3    H244945   1.665   4.508  16.575  0.5981 -0.0029 -0.1373
 7844TIP3   OH244946   0.838   6.213  14.582  0.0453 -0.1944 -0.0895
 7844TIP3    H144947   0.834   6.257  14.497 -1.0855 -1.6272 -0.8326
 7844TIP3    H244948   0.784   6.266  14.640 -0.8360 -0.2723 -0.8184
 7845TIP3   OH244949   4.736   0.145   4.596  0.2125  0.3877 -0.1789
 7845TIP3    H144950   4.655   0.138   4.546 -0.1432 -0.3629  0.4886
 7845TIP3    H244951   4.798   0.186   4.535 -0.9630  2.0282 -0.3319
 7846TIP3   OH244952   2.961   3.275  11.598  0.6981  0.2862 -0.3974
 7846TIP3    H144953   2.890   3.311  11.545  0.8458  0.5806 -0.3985
 7846TIP3    H244954   2.922   3.201  11.643  0.8195 -0.6009 -1.6764
 7847TIP3   OH244955   6.763   6.593   0.297 -0.3933  0.1259  0.0759
 7847TIP3    H144956   6.808   6.645   0.231 -2.3941 -0.7646 -2.1427
 7847TIP3    H244957   6.694   6.650   0.330  0.5284  0.5272  1.4004
 7848TIP3   OH244958   5.484   3.676   2.101 -0.1368  0.1775  0.0119
 7848TIP3    H144959   5.467   3.679   2.007 -0.1971 -1.8478 -0.0992
 7848TIP3    H244960   5.404   3.710   2.141  0.2327  1.8936 -0.6635
 7849TIP3   OH244961   4.904   5.089   5.739 -0.9140  0.2731 -0.1516
 7849TIP3    H144962   4.915   4.998   5.711  0.6452  0.1221  0.8059
 7849TIP3    H244963   4.985   5.132   5.712 -0.6485  0.8169  1.4131
 7850TIP3   OH244964   4.663   5.625  11.154 -0.0408 -0.3045 -0.2373
 7850TIP3    H144965   4.708   5.652  11.075  0.2371  1.2051  0.4007
 7850TIP3    H244966   4.588   5.574  11.123  1.4620 -1.9680 -1.3540
 7851TIP3   OH244967   6.032   2.580  12.750 -0.0187  0.2929 -0.4116
 7851TIP3    H144968   6.102   2.554  12.810 -0.2015  1.1378  0.1842
 7851TIP3    H244969   6.060   2.549  12.664  0.8564  0.2027 -0.0969
 7852TIP3   OH244970   0.284   5.007  12.544  0.2753  0.2482  0.4520
 7852TIP3    H144971   0.229   5.001  12.623  0.0191 -0.7268  0.2130
 7852TIP3    H244972   0.373   5.013  12.577  0.0931  0.9530  0.8321
 7853TIP3   OH244973   3.619   1.839   3.853 -0.2059  0.2825  0.3454
 7853TIP3    H144974   3.633   1.895   3.930 -0.2331 -1.5874  1.7660
 7853TIP3    H244975   3.691   1.777   3.854  1.6701  2.1088 -3.0535
 7854TIP3   OH244976   2.642   2.473  16.317 -0.0003 -0.5505  0.4096
 7854TIP3    H144977   2.583   2.452  16.244 -0.1074 -2.0935  0.9147
 7854TIP3    H244978   2.618   2.563  16.342 -0.6145 -0.3533 -0.8188
 7855TIP3   OH244979   2.473   4.743  15.202 -0.5383 -0.5849 -0.1611
 7855TIP3    H144980   2.536   4.797  15.249 -0.3903 -0.2794 -0.7108
 7855TIP3    H244981   2.494   4.653  15.228 -0.0884 -0.4588 -0.0969
 7856TIP3   OH244982   0.241   6.496   2.330  0.2489 -0.2220  0.1240
 7856TIP3    H144983   0.272   6.412   2.364 -0.7095 -1.2230 -1.3518
 7856TIP3    H244984   0.307   6.521   2.266 -0.2513 -0.6468 -0.5648
 7857TIP3   OH244985   1.931   2.193   4.100  0.3934  0.4520 -0.2073
 7857TIP3    H144986   1.927   2.285   4.126  2.0241  0.1961  1.0810
 7857TIP3    H244987   1.847   2.157   4.128 -0.7421  1.7532 -1.7385
 7858TIP3   OH244988   5.869   1.959   4.576 -0.4147  0.7646 -0.1258
 7858TIP3    H144989   5.952   2.008   4.583  0.7766 -1.2452  0.6346
 7858TIP3    H244990   5.823   1.979   4.657  1.7399 -2.0942  2.0174
 7859TIP3   OH244991   6.021   2.930   5.639 -0.2195 -0.1945  0.3637
 7859TIP3    H144992   5.949   2.986   5.609  0.1311 -1.2225 -2.7870
 7859TIP3    H244993   5.979   2.845   5.655  0.1921 -0.7184 -1.2045
 7860TIP3   OH244994   1.604   4.930   2.418 -0.0211 -0.1780  0.0470
 7860TIP3    H144995   1.641   4.995   2.358  1.2452  0.8325  1.8357
 7860TIP3    H244996   1.681   4.885   2.454 -0.7127 -0.2857  1.4233
 7861TIP3   OH244997   5.236   4.502   4.771 -0.6645 -0.4357  0.0550
 7861TIP3    H144998   5.267   4.437   4.708 -0.0016 -0.3094  0.2350
 7861TIP3    H244999   5.169   4.456   4.821 -0.0610 -1.0626  0.3147
 7862TIP3   OH245000   3.969   2.425  13.928 -0.0559  0.3338 -0.2649
 7862TIP3    H145001   3.887   2.471  13.947  0.8186  1.0758  2.1803
 7862TIP3    H245002   3.943   2.333  13.921 -1.0762  0.4828  1.0507
 7863TIP3   OH245003   0.017   2.114   0.163  0.1046 -0.3841  0.0944
 7863TIP3    H145004   0.085   2.114   0.095  0.5154  0.2575  0.4981
 7863TIP3    H245005  -0.062   2.085   0.118  0.8792 -2.2903 -0.1471
 7864TIP3   OH245006   0.560   2.187   1.569  0.1805 -0.6257  0.2661
 7864TIP3    H145007   0.593   2.277   1.568 -1.1733 -0.0416  2.6432
 7864TIP3    H245008   0.630   2.137   1.611  1.5474 -1.0563 -2.2864
 7865TIP3   OH245009   1.920   1.307   3.255 -0.0434  0.5008  0.5028
 7865TIP3    H145010   2.009   1.307   3.219 -0.5975  2.3579 -1.0360
 7865TIP3    H245011   1.878   1.231   3.216 -0.6473  2.4860 -3.1210
 7866TIP3   OH245012   1.867   2.803  13.365  0.5854 -0.8045 -0.1580
 7866TIP3    H145013   1.817   2.752  13.302 -3.8753  1.5242  1.0801
 7866TIP3    H245014   1.848   2.762  13.449  1.1943 -0.1448  0.3152
 7867TIP3   OH245015   1.867   4.346  12.977  0.2086  0.2792  0.6132
 7867TIP3    H145016   1.903   4.409  13.039  1.0800 -1.0119  1.5021
 7867TIP3    H245017   1.942   4.323  12.922 -0.3600  0.7956 -0.3959
 7868TIP3   OH245018   2.576   6.598  16.464 -0.2462 -0.2040  0.2645
 7868TIP3    H145019   2.656   6.587  16.515  0.1066  0.5878 -0.1003
 7868TIP3    H245020   2.505   6.584  16.527  0.1720  1.5014  1.1921
 7869TIP3   OH245021   4.722   0.284  16.645  0.1746 -0.2073 -0.4521
 7869TIP3    H145022   4.631   0.305  16.668  0.4138  1.8093 -1.1933
 7869TIP3    H245023   4.733   0.320  16.557  1.4072 -1.3652 -0.8009
 7870TIP3   OH245024   0.815   3.130   1.054 -0.1948  0.1696  0.3951
 7870TIP3    H145025   0.752   3.079   1.002  0.3352  0.0879 -0.1805
 7870TIP3    H245026   0.896   3.126   1.003  0.6385 -0.7833  1.7397
 7871TIP3   OH245027   2.392   4.314  11.931  0.2763  0.6338  0.0201
 7871TIP3    H145028   2.348   4.254  11.869  0.6346  1.8162 -1.4498
 7871TIP3    H245029   2.476   4.332  11.890 -0.6419  3.8050 -0.7509
 7872TIP3   OH245030   4.000   5.996   4.785  0.6244 -0.6638  0.0326
 7872TIP3    H145031   4.057   5.978   4.710  0.7983 -0.5247  0.1304
 7872TIP3    H245032   3.938   5.924   4.786  1.1220 -1.0949  0.2366
 7873TIP3   OH245033   5.759   5.441   4.865 -0.4216 -0.4073  0.4666
 7873TIP3    H145034   5.703   5.446   4.788 -1.4852 -1.7347  1.1139
 7873TIP3    H245035   5.845   5.413   4.831 -0.4399  0.5604 -0.4007
 7874TIP3   OH245036   1.476   4.959   4.283 -0.2810  0.2679 -0.1291
 7874TIP3    H145037   1.469   4.863   4.280 -0.3638  0.2442  0.6011
 7874TIP3    H245038   1.395   4.987   4.326  0.6693  0.5210  1.5499
 7875TIP3   OH245039   5.848   5.464   0.053  0.3296 -0.2678  0.1950
 7875TIP3    H145040   5.766   5.414   0.051 -0.9232  1.5462  1.7603
 7875TIP3    H245041   5.905   5.415   0.112 -0.4930 -0.4238  0.8812
 7876TIP3   OH245042   1.659   3.532   1.371 -0.1258  0.6756  0.0408
 7876TIP3    H145043   1.690   3.473   1.303 -1.8156  0.2961 -0.4585
 7876TIP3    H245044   1.667   3.620   1.334 -2.7423  0.3778 -1.4783
 7877TIP3   OH245045   2.357   5.664  16.382 -0.7028 -0.2371 -0.2891
 7877TIP3    H145046   2.417   5.591  16.366 -0.1151  0.4014 -1.0783
 7877TIP3    H245047   2.353   5.672  16.477 -3.1656 -3.2478  0.0480
 7878TIP3   OH245048   3.654   5.741   0.686  0.4380 -0.3168  0.2392
 7878TIP3    H145049   3.691   5.658   0.655 -0.1524 -0.5622  0.1884
 7878TIP3    H245050   3.582   5.760   0.626  1.3203  0.8663 -0.5002
 7879TIP3   OH245051   2.319   2.777  13.616 -0.3183 -0.7668  0.1044
 7879TIP3    H145052   2.321   2.696  13.565 -1.3860 -1.0437  0.4820
 7879TIP3    H245053   2.282   2.752  13.700 -0.0365 -0.0122  0.4570
 7880TIP3   OH245054   5.734   2.020   1.776 -0.4449  0.0190  0.2954
 7880TIP3    H145055   5.750   2.107   1.738 -1.9126  0.6336  0.9719
 7880TIP3    H245056   5.657   1.987   1.730  0.1517 -0.9812 -0.0126
 7881TIP3   OH245057   4.960   4.201  15.037 -0.7440 -0.0811  0.0987
 7881TIP3    H145058   5.044   4.207  14.992 -0.2877  1.4573  1.0673
 7881TIP3    H245059   4.925   4.116  15.012  0.4175 -0.1266 -1.4951
 7882TIP3   OH245060   4.421   2.923  14.873  0.1094  0.0771 -0.0844
 7882TIP3    H145061   4.363   2.881  14.937  0.3047 -0.9978 -0.5827
 7882TIP3    H245062   4.453   2.851  14.819 -0.0725  0.9656 -1.4207
 7883TIP3   OH245063   3.893   0.963   5.506 -0.3215  0.2417  0.4387
 7883TIP3    H145064   3.825   0.899   5.486 -0.8068  0.2655  1.8718
 7883TIP3    H245065   3.942   0.924   5.578  0.2204  0.8989  0.4405
 7884TIP3   OH245066   2.279   6.261  15.690  0.5992 -0.6646 -0.1507
 7884TIP3    H145067   2.289   6.323  15.762 -0.4691 -0.1046 -0.4749
 7884TIP3    H245068   2.215   6.197  15.722  0.7392 -0.8796 -0.2999
 7885TIP3   OH245069   0.095   4.383   2.392 -0.2771  0.3861 -0.2706
 7885TIP3    H145070   0.114   4.337   2.474 -0.5127 -0.8158 -0.8769
 7885TIP3    H245071   0.179   4.385   2.346  0.3686  2.8760  0.8266
 7886TIP3   OH245072   5.767   0.052   5.973  0.1094  0.1991  0.1033
 7886TIP3    H145073   5.719   0.015   6.047  0.0406 -0.9295 -0.4890
 7886TIP3    H245074   5.776   0.145   5.995 -1.8071  0.3335  0.5165
 7887TIP3   OH245075   3.541   0.093  11.836 -0.4956 -0.0374 -0.2563
 7887TIP3    H145076   3.468   0.074  11.895  0.4990  1.2282  1.4788
 7887TIP3    H245077   3.593   0.013  11.834 -0.2300  0.0804  1.1075
 7888TIP3   OH245078   6.118   6.358  14.976 -0.6805  0.1719 -0.2037
 7888TIP3    H145079   6.100   6.359  14.882  2.5648  0.2119 -0.9397
 7888TIP3    H245080   6.133   6.265  14.996 -2.0620  0.0638  0.5164
 7889TIP3   OH245081   3.271   3.907   4.910  0.3197 -0.8096 -0.3564
 7889TIP3    H145082   3.256   3.846   4.838 -0.3967 -1.1852  0.0944
 7889TIP3    H245083   3.250   3.993   4.873 -0.6140 -1.0612 -0.4471
 7890TIP3   OH245084   1.765   5.123  11.605 -0.9916 -0.0451  0.4067
 7890TIP3    H145085   1.671   5.138  11.615 -0.9631  2.4588 -1.8612
 7890TIP3    H245086   1.773   5.071  11.525 -0.4535 -0.3581  0.6607
 7891TIP3   OH245087   1.474   3.237  14.822  0.7159 -0.2002  0.3149
 7891TIP3    H145088   1.498   3.154  14.863 -0.0145 -1.0111 -0.8308
 7891TIP3    H245089   1.558   3.275  14.796  1.0386 -0.8571  0.3515
 7892TIP3   OH245090   6.475   3.559   2.117 -0.1951 -0.2536 -0.6229
 7892TIP3    H145091   6.532   3.617   2.067  0.7286 -0.7076 -0.1125
 7892TIP3    H245092   6.404   3.616   2.148  0.9397  0.7246  0.2807
 7893TIP3   OH245093   6.484   5.208  12.419  0.0569  0.7673  0.2466
 7893TIP3    H145094   6.550   5.248  12.362  1.1630 -2.1144 -0.6856
 7893TIP3    H245095   6.405   5.204  12.365  0.6631 -0.5313 -0.5931
 7894TIP3   OH245096   0.601   4.154  13.936  0.5905  0.6867 -0.1416
 7894TIP3    H145097   0.574   4.176  14.025  1.3633 -1.8276  0.7902
 7894TIP3    H245098   0.519   4.138  13.889  0.2207 -0.1193  0.7493
 7895TIP3   OH245099   1.172   2.220   1.428  0.0365  0.2130 -0.0419
 7895TIP3    H145100   1.133   2.295   1.382 -0.5374 -0.0235  0.0493
 7895TIP3    H245101   1.219   2.258   1.502 -1.4217  0.4016  0.8330
 7896TIP3   OH245102   1.859   3.568  15.569  0.3355  0.4671 -0.4250
 7896TIP3    H145103   1.867   3.513  15.646  0.5584  0.3355 -0.5406
 7896TIP3    H245104   1.884   3.655  15.599 -1.1770  0.7715  0.0562
 7897TIP3   OH245105   0.808   5.502   3.256  0.3065 -0.0336 -0.6196
 7897TIP3    H145106   0.807   5.429   3.194  2.7440 -0.5000 -0.2168
 7897TIP3    H245107   0.892   5.545   3.240  0.3384  0.7155  1.3652
 7898TIP3   OH245108   4.015   0.795   1.048  0.2363 -0.4544 -0.4086
 7898TIP3    H145109   4.041   0.875   1.003  0.5439 -0.0052  0.5303
 7898TIP3    H245110   3.950   0.754   0.990 -2.8495  2.3894  0.7077
 7899TIP3   OH245111   4.655   1.411   5.865 -0.1213 -0.4413  0.2145
 7899TIP3    H145112   4.601   1.341   5.903  0.9786 -0.4339  1.8853
 7899TIP3    H245113   4.631   1.489   5.914 -0.1965  0.0491 -0.5799
 7900TIP3   OH245114   4.420   4.937   3.746 -0.6381  0.0107  0.4262
 7900TIP3    H145115   4.387   4.864   3.799 -1.1955 -0.5969 -0.7122
 7900TIP3    H245116   4.443   4.897   3.662 -0.9388  1.1393 -0.2162
 7901TIP3   OH245117   4.768   2.359  13.268  0.3283  0.3535  0.3673
 7901TIP3    H145118   4.766   2.454  13.278 -1.5132  0.3572  0.3914
 7901TIP3    H245119   4.742   2.344  13.177 -1.1218 -0.1372  0.8310
 7902TIP3   OH245120   2.493   6.561  13.971  0.2110  0.4660  0.2837
 7902TIP3    H145121   2.588   6.561  13.955  0.0121 -0.2204 -1.0709
 7902TIP3    H245122   2.482   6.612  14.051  1.5890  1.8813 -0.3804
 7903TIP3   OH245123   5.418   1.932   4.988 -0.2802  0.6176  0.4277
 7903TIP3    H145124   5.343   1.981   5.022 -2.6368 -0.4136 -2.8446
 7903TIP3    H245125   5.393   1.840   4.997  1.2691  0.1784  0.5720
 7904TIP3   OH245126   3.508   4.068  16.923  0.3527  0.5779 -0.1432
 7904TIP3    H145127   3.562   4.084  16.846  1.6037  0.0749  0.5930
 7904TIP3    H245128   3.559   4.006  16.976 -1.0667 -0.0936  0.4764
 7905TIP3   OH245129   3.750   2.564  15.418  0.1327 -0.0893 -0.0005
 7905TIP3    H145130   3.690   2.568  15.492  0.9818 -0.6834  0.7500
 7905TIP3    H245131   3.814   2.633  15.435  0.7392 -0.6824  0.2247
 7906TIP3   OH245132   3.414   2.797   3.189  0.2556 -0.5994 -1.0658
 7906TIP3    H145133   3.354   2.871   3.181  0.6442 -0.1164  0.1423
 7906TIP3    H245134   3.370   2.737   3.250  1.3087  0.1273  0.4637
 7907TIP3   OH245135   4.597   0.204   4.832 -0.1817 -0.4106  0.6573
 7907TIP3    H145136   4.645   0.140   4.886  2.7523  0.9740 -0.0949
 7907TIP3    H245137   4.635   0.194   4.745 -1.3862  0.7387 -0.0246
 7908TIP3   OH245138   6.433   4.160   5.523 -0.1907  0.2086  0.3274
 7908TIP3    H145139   6.345   4.127   5.505 -0.7519  0.2306  2.7126
 7908TIP3    H245140   6.426   4.254   5.507 -0.2585  0.0496 -0.6325
 7909TIP3   OH245141   5.943   5.034  11.260  0.1435 -0.2838 -0.1302
 7909TIP3    H145142   5.936   4.966  11.193 -0.6894 -1.0046  0.6501
 7909TIP3    H245143   5.972   5.112  11.213  2.7873 -1.5536 -0.7932
 7910TIP3   OH245144   5.157   3.447  13.459  0.6877 -0.1872 -0.4394
 7910TIP3    H145145   5.061   3.446  13.460  0.6526  0.8412 -1.2325
 7910TIP3    H245146   5.181   3.370  13.408  0.3350 -1.1634  0.8134
 7911TIP3   OH245147   3.448   2.832   1.161 -0.1477  0.5147  0.5738
 7911TIP3    H145148   3.454   2.921   1.196  1.2549  0.1984  1.2208
 7911TIP3    H245149   3.524   2.823   1.104 -0.2188 -0.2903  0.5895
 7912TIP3   OH245150   2.677   1.963  12.973 -0.0582  0.4265 -0.2916
 7912TIP3    H145151   2.711   1.924  12.892  0.4356  1.4890 -0.6113
 7912TIP3    H245152   2.713   1.907  13.043  0.6736  0.3280 -0.7375
 7913TIP3   OH245153   5.902   3.880  12.753  0.5075 -0.0348  0.2182
 7913TIP3    H145154   5.836   3.815  12.731  1.0567 -0.6913  0.4761
 7913TIP3    H245155   5.945   3.901  12.670  0.4910 -0.1885  0.1701
 7914TIP3   OH245156   4.179   2.298  12.258  0.5376 -0.7804  0.3626
 7914TIP3    H145157   4.272   2.277  12.269  0.0659 -2.9505  0.5227
 7914TIP3    H245158   4.167   2.304  12.163  0.7610 -0.8411  0.3310
 7915TIP3   OH245159   5.767   0.515  14.750 -0.0832 -0.5459  0.1162
 7915TIP3    H145160   5.825   0.458  14.700 -1.8077  0.5646 -3.5759
 7915TIP3    H245161   5.686   0.465  14.759 -0.3508 -0.0953  0.2554
 7916TIP3   OH245162   1.095   2.346   5.384  0.0307  0.4373 -0.5324
 7916TIP3    H145163   1.076   2.253   5.385 -0.1685  0.4688 -0.8791
 7916TIP3    H245164   1.186   2.352   5.354  0.2776  0.3264  0.1820
 7917TIP3   OH245165   4.951   4.803   5.810  0.4684 -0.2526 -0.3227
 7917TIP3    H145166   4.987   4.733   5.755  2.1889 -1.8535  2.5240
 7917TIP3    H245167   5.028   4.853   5.837 -0.2249  0.1640  0.9506
 7918TIP3   OH245168   5.012   1.651   1.036 -0.2534 -0.6818  0.2483
 7918TIP3    H145169   4.999   1.710   1.111  0.1273  0.3480 -0.4715
 7918TIP3    H245170   4.952   1.684   0.969  0.3880 -0.7418 -0.3658
 7919TIP3   OH245171   0.590   1.869   1.049 -0.1011 -0.1540  0.3861
 7919TIP3    H145172   0.511   1.914   1.079 -0.7438  1.3397 -3.1408
 7919TIP3    H245173   0.661   1.915   1.095 -1.0247  1.5266  0.2184
 7920TIP3   OH245174   0.259   3.362   3.823 -0.1232 -0.2687 -0.3435
 7920TIP3    H145175   0.222   3.437   3.869  0.9529 -0.3772  0.7292
 7920TIP3    H245176   0.248   3.383   3.730  1.3094  1.8219 -0.0974
 7921TIP3   OH245177   1.608   5.040   4.696  0.0236 -0.2859 -0.7999
 7921TIP3    H145178   1.599   4.952   4.659 -0.8394 -0.6052  0.1398
 7921TIP3    H245179   1.667   5.085   4.635 -1.0634 -0.8947 -2.3718
 7922TIP3   OH245180   3.485   0.097  15.487  0.1129 -1.3036 -0.6015
 7922TIP3    H145181   3.458   0.184  15.456  1.9512  0.2138  1.6694
 7922TIP3    H245182   3.415   0.070  15.545  0.1729 -0.6511 -0.2105
 7923TIP3   OH245183   0.643   0.269  14.990 -0.8160  0.1702  0.7373
 7923TIP3    H145184   0.673   0.232  14.907  1.0925 -0.3841  1.6169
 7923TIP3    H245185   0.585   0.341  14.965  0.7943  0.9057 -1.1048
 7924TIP3   OH245186   1.164   3.578  14.892 -0.0542 -0.1715 -0.9467
 7924TIP3    H145187   1.208   3.498  14.863 -0.5386 -0.2151 -1.5769
 7924TIP3    H245188   1.073   3.551  14.905  0.1876 -0.2362  0.9451
 7925TIP3   OH245189   6.496   0.934   6.501 -0.6622 -0.1720  0.6718
 7925TIP3    H145190   6.464   0.946   6.591  1.2872 -1.6334  1.6466
 7925TIP3    H245191   6.587   0.908   6.512 -0.0872  0.5791 -1.8083
 7926TIP3   OH245192   1.850   2.814  12.931  0.0046 -0.5196  0.3287
 7926TIP3    H145193   1.783   2.847  12.991 -1.5095  0.4542 -1.7721
 7926TIP3    H245194   1.853   2.879  12.861  2.4553 -1.0771 -0.1611
 7927TIP3   OH245195   1.041   1.690  11.845  0.2455 -0.5477  0.7310
 7927TIP3    H145196   1.066   1.606  11.807  1.4349  0.3244 -0.4886
 7927TIP3    H245197   1.106   1.706  11.914  1.3376  0.3400 -0.4668
 7928TIP3   OH245198   5.108   4.615  12.731  0.0155 -0.1468  0.5591
 7928TIP3    H145199   5.078   4.652  12.814 -1.0588 -2.9651  1.5294
 7928TIP3    H245200   5.032   4.619  12.673  0.5382  1.0837 -0.0946
 7929TIP3   OH245201   5.138   4.743   1.160  0.0883 -0.4320 -0.7811
 7929TIP3    H145202   5.224   4.702   1.162 -0.2441 -1.2315 -1.9045
 7929TIP3    H245203   5.133   4.784   1.074 -0.1150  0.8617 -0.1847
 7930TIP3   OH245204   3.782   0.709   0.610 -0.6668 -0.3228 -0.6475
 7930TIP3    H145205   3.845   0.637   0.614 -0.5741 -0.2031  1.9086
 7930TIP3    H245206   3.771   0.727   0.517  2.3212 -0.9892 -1.2293
 7931TIP3   OH245207   3.823   4.625   2.767 -0.0120  0.3301 -0.4332
 7931TIP3    H145208   3.820   4.539   2.809  0.3639  0.3953 -0.2737
 7931TIP3    H245209   3.731   4.650   2.757 -0.1289 -0.1639 -0.6363
 7932TIP3   OH245210   4.249   0.771   6.319 -0.3709 -0.3003  0.5350
 7932TIP3    H145211   4.327   0.717   6.329 -0.0953 -0.3364 -1.4292
 7932TIP3    H245212   4.189   0.717   6.268 -0.7608  0.6044  0.0098
 7933TIP3   OH245213   1.372   0.210  15.939 -0.3323 -0.3063  0.2152
 7933TIP3    H145214   1.432   0.260  15.884  1.7161 -2.5270  0.2791
 7933TIP3    H245215   1.421   0.192  16.019 -1.4840 -1.2940  0.7333
 7934TIP3   OH245216   3.756   5.208  14.125  1.1155  0.1474  0.8348
 7934TIP3    H145217   3.816   5.157  14.071  0.5265  0.9172 -0.6147
 7934TIP3    H245218   3.773   5.299  14.100 -1.0009  0.3546 -0.0544
 7935TIP3   OH245219   1.467   2.989  12.762  0.1044  0.0592 -0.3583
 7935TIP3    H145220   1.548   2.957  12.724  0.2116  0.1872 -0.2405
 7935TIP3    H245221   1.452   3.073  12.719 -1.2148 -1.0023 -2.1268
 7936TIP3   OH245222   2.269   3.106  11.653  0.2346 -0.4629  0.5120
 7936TIP3    H145223   2.176   3.093  11.670  0.0636 -2.3127 -1.4714
 7936TIP3    H245224   2.285   3.064  11.569  2.8222  0.0693  0.6362
 7937TIP3   OH245225   5.548   2.865   3.199  0.1545  0.2679 -0.1780
 7937TIP3    H145226   5.549   2.936   3.264  2.4747  0.8365 -0.7366
 7937TIP3    H245227   5.578   2.907   3.118  1.2619 -1.2621 -0.6037
 7938TIP3   OH245228   3.964   2.684  13.725 -0.3775 -0.1744  0.7547
 7938TIP3    H145229   4.041   2.741  13.723 -1.0012  0.7764 -2.3592
 7938TIP3    H245230   3.979   2.625  13.799  4.0445 -1.0078 -0.5187
 7939TIP3   OH245231   5.800   2.168   3.867 -0.0334 -0.0622 -0.5328
 7939TIP3    H145232   5.871   2.231   3.853 -1.0021  0.7207 -2.3117
 7939TIP3    H245233   5.844   2.085   3.887  1.2932  0.9069  0.8191
 7940TIP3   OH245234   0.123   0.066  13.972  0.2253 -0.2820  1.0081
 7940TIP3    H145235   0.157   0.015  14.045  0.2455  1.1737  2.0450
 7940TIP3    H245236   0.069   0.134  14.012  0.0586  0.4313 -0.3359
 7941TIP3   OH245237   6.654   3.997   0.838  0.0233  0.2954 -0.2085
 7941TIP3    H145238   6.611   4.021   0.920 -0.0664 -1.6320  0.3349
 7941TIP3    H245239   6.603   4.041   0.771 -1.8773 -0.6743  0.5421
 7942TIP3   OH245240   3.119   4.504  15.360 -0.4834  0.7031 -0.3191
 7942TIP3    H145241   3.051   4.439  15.377 -0.0410  0.6118  1.1812
 7942TIP3    H245242   3.073   4.588  15.358 -0.7251  0.5814  0.1092
 7943TIP3   OH245243   2.394   1.881  16.066  0.0409  0.4478  0.2372
 7943TIP3    H145244   2.403   1.797  16.111  1.2182  0.2997 -0.2297
 7943TIP3    H245245   2.353   1.859  15.982  0.1829  0.3511  0.1915
 7944TIP3   OH245246   4.643   5.708  16.725 -0.0353  0.2006  0.3218
 7944TIP3    H145247   4.729   5.697  16.764  0.5278  1.2415 -0.5599
 7944TIP3    H245248   4.643   5.798  16.690  0.0574 -1.0294 -3.2417
 7945TIP3   OH245249   0.418   0.787  16.918  0.2901 -0.6380  0.4343
 7945TIP3    H145250   0.439   0.812  17.007  0.9761 -1.8320  0.6275
 7945TIP3    H245251   0.447   0.860  16.864 -0.0152  0.0344  1.1675
 7946TIP3   OH245252   6.347   1.281  12.953  0.5773 -0.1985  0.0839
 7946TIP3    H145253   6.340   1.376  12.945  1.6292 -0.1240 -0.1489
 7946TIP3    H245254   6.331   1.264  13.045  0.6376  0.2397  0.1798
 7947TIP3   OH245255   1.953   6.029   1.352 -0.2744 -0.5893  0.2977
 7947TIP3    H145256   1.865   6.009   1.384 -0.9946  0.8536 -0.6384
 7947TIP3    H245257   1.981   5.950   1.307 -2.8287  0.0950 -2.9370
 7948TIP3   OH245258   6.151   5.432   0.670  0.1195 -0.2009 -0.3838
 7948TIP3    H145259   6.076   5.480   0.634  1.3163  1.3350 -0.9565
 7948TIP3    H245260   6.121   5.400   0.755 -1.4171 -0.2792 -0.9289
 7949TIP3   OH245261   5.623   2.214  12.234 -0.3231 -0.3278 -0.2918
 7949TIP3    H145262   5.528   2.202  12.232 -0.1656 -1.6340 -1.3551
 7949TIP3    H245263   5.658   2.128  12.210  1.1032  0.4116 -0.9678
 7950TIP3   OH245264   4.523   4.145  12.058 -0.5167  0.4112  0.6745
 7950TIP3    H145265   4.576   4.087  12.002  2.7482  2.1816  1.6629
 7950TIP3    H245266   4.474   4.200  11.996 -0.5081 -0.6585 -0.3195
 7951TIP3   OH245267   0.989   5.068  16.907  0.1372  0.0059  0.4869
 7951TIP3    H145268   1.047   5.134  16.869  0.4985 -0.0699  0.8922
 7951TIP3    H245269   0.907   5.115  16.923  0.2985  0.2844  0.5103
 7952TIP3   OH245270   4.861   1.322  16.115  0.0410 -0.4941  0.3648
 7952TIP3    H145271   4.861   1.417  16.118 -0.3380 -0.4392 -0.9684
 7952TIP3    H245272   4.952   1.298  16.097  0.4855 -0.4842  2.3514
 7953TIP3   OH245273   6.635   3.230  14.364 -0.2340  0.3653 -0.0456
 7953TIP3    H145274   6.609   3.310  14.318  2.9725  1.6096  0.0922
 7953TIP3    H245275   6.638   3.255  14.456  0.8742  0.1153 -0.0079
 7954TIP3   OH245276   0.792   5.992  14.389  0.1445  0.5632  0.4378
 7954TIP3    H145277   0.720   5.964  14.333  0.2176 -0.5288  0.8485
 7954TIP3    H245278   0.801   5.921  14.454  1.3476  0.8385  0.6056
 7955TIP3   OH245279   1.764   1.260  14.605 -0.0578 -0.0703 -0.1212
 7955TIP3    H145280   1.769   1.333  14.666 -2.0043  2.4436 -2.7126
 7955TIP3    H245281   1.691   1.207  14.636 -1.3982  1.4921 -0.4954
 7956TIP3   OH245282   5.340   1.315  12.830  0.2114  0.3215 -0.5142
 7956TIP3    H145283   5.245   1.306  12.839  0.3891 -0.8398  0.5518
 7956TIP3    H245284   5.361   1.397  12.876 -0.1636  0.0472  0.1542
 7957TIP3   OH245285   0.624   5.637  15.509 -0.0471 -0.6939 -0.5400
 7957TIP3    H145286   0.617   5.547  15.477  0.2011 -1.7283  2.0645
 7957TIP3    H245287   0.709   5.667  15.477  0.2872 -1.7255 -0.6623
 7958TIP3   OH245288   0.453   4.715   3.817  0.1653  0.4713  0.0162
 7958TIP3    H145289   0.402   4.794   3.834 -0.8089 -0.4059  1.3922
 7958TIP3    H245290   0.494   4.694   3.901  0.6353 -0.3287 -0.3980
 7959TIP3   OH245291   3.758   6.154  11.203  0.4844 -0.2713 -0.1045
 7959TIP3    H145292   3.788   6.066  11.224 -1.0153 -1.1019 -1.1890
 7959TIP3    H245293   3.718   6.186  11.283  2.9126  0.3185  0.9424
 7960TIP3   OH245294   2.505   4.453   3.586  0.0868  0.2723 -0.0513
 7960TIP3    H145295   2.451   4.489   3.656 -1.1202  0.5004 -1.0805
 7960TIP3    H245296   2.593   4.485   3.606 -0.3024  0.6556  1.1414
 7961TIP3   OH245297   2.517   2.507  13.268  0.2213 -0.5329  0.1152
 7961TIP3    H145298   2.445   2.546  13.218  1.1437  0.7927 -0.2120
 7961TIP3    H245299   2.493   2.414  13.275  0.1284 -0.8576 -3.0154
 7962TIP3   OH245300   6.762   0.510   0.950  0.0258  0.8921  0.0953
 7962TIP3    H145301   6.697   0.442   0.967  2.0453 -0.8219  1.5105
 7962TIP3    H245302   6.755   0.570   1.024  0.2317  0.5377  0.4063
 7963TIP3   OH245303   3.115   3.651  15.499  0.5407  0.2768  0.3605
 7963TIP3    H145304   3.144   3.703  15.423  0.4771  0.5697  0.5372
 7963TIP3    H245305   3.194   3.605  15.527  0.7319  0.7102  0.5473
 7964TIP3   OH245306   0.473   3.517  15.907 -0.2356 -0.1432 -0.4263
 7964TIP3    H145307   0.528   3.509  15.985 -1.2028 -1.8181  0.1468
 7964TIP3    H245308   0.451   3.426  15.884 -1.8155  0.4190 -1.3037
 7965TIP3   OH245309   0.345   4.714  12.703  0.6339  0.0201  0.2941
 7965TIP3    H145310   0.258   4.717  12.662  0.4810 -0.8489  0.5305
 7965TIP3    H245311   0.332   4.662  12.782  1.1035  0.9675  1.0286
 7966TIP3   OH245312   4.603   6.380  10.644  0.0475 -0.5951 -0.3983
 7966TIP3    H145313   4.524   6.330  10.668 -0.7796  0.9726  0.2949
 7966TIP3    H245314   4.578   6.427  10.564  0.7064 -1.0269 -0.8634
 7967TIP3   OH245315   0.768   0.710  12.907  0.5673 -0.0525  0.1686
 7967TIP3    H145316   0.709   0.720  12.982  0.3476 -0.0802  0.0014
 7967TIP3    H245317   0.782   0.616  12.899  0.9758 -0.0175  0.4694
 7968TIP3   OH245318   3.595   6.181   1.372  0.0492  0.1081 -0.4468
 7968TIP3    H145319   3.631   6.219   1.452  1.1325 -1.3933 -0.1737
 7968TIP3    H245320   3.539   6.110   1.403 -2.0109  1.4154 -0.9384
 7969TIP3   OH245321   3.753   3.052   0.174 -0.4251  0.2485  0.8231
 7969TIP3    H145322   3.659   3.048   0.188 -0.8780  0.6211 -1.6431
 7969TIP3    H245323   3.788   2.979   0.225 -2.1447 -0.4227  1.1164
 7970TIP3   OH245324   6.446   5.217  11.978  0.4287  0.3135  0.4237
 7970TIP3    H145325   6.386   5.166  12.032  0.2025  0.7141  0.5561
 7970TIP3    H245326   6.398   5.297  11.958  0.6795  0.3605 -0.0041
 7971TIP3   OH245327   1.663   2.750  11.139 -0.3978  0.1287  0.3034
 7971TIP3    H145328   1.622   2.710  11.215 -1.8379 -1.1916 -1.1073
 7971TIP3    H245329   1.593   2.759  11.075  0.9268  0.4677 -1.1697
 7972TIP3   OH245330   3.385   4.372  12.908 -0.7344 -0.3853  0.5699
 7972TIP3    H145331   3.424   4.286  12.921 -0.9485 -0.1836  3.0300
 7972TIP3    H245332   3.458   4.433  12.918 -0.8066 -0.2113  0.0773
 7973TIP3   OH245333   1.129   0.630  16.566 -0.0269  0.0046  0.7034
 7973TIP3    H145334   1.214   0.672  16.555 -0.0733  0.4554  1.9310
 7973TIP3    H245335   1.124   0.611  16.660 -1.4510  0.3427  0.7094
 7974TIP3   OH245336   2.984   5.942  13.494  0.8761 -0.0383 -0.7932
 7974TIP3    H145337   3.056   5.888  13.527 -0.3588 -1.2293  0.0827
 7974TIP3    H245338   2.924   5.951  13.568  0.0371  0.7829 -1.5383
 7975TIP3   OH245339   1.912   5.088  13.712 -0.2070 -0.4800 -0.0253
 7975TIP3    H145340   1.866   5.163  13.676  1.0115 -0.1636 -1.0218
 7975TIP3    H245341   1.889   5.086  13.804 -1.6719  0.0348 -0.3648
 7976TIP3   OH245342   0.369   0.075   5.774 -0.1339 -0.2056 -0.5651
 7976TIP3    H145343   0.412   0.127   5.842 -0.6199 -1.4092  0.6991
 7976TIP3    H245344   0.423  -0.004   5.767 -1.8327 -1.5502  0.7425
 7977TIP3   OH245345   4.405   3.995   4.838 -0.0687 -0.5594 -0.2196
 7977TIP3    H145346   4.487   3.962   4.876  0.0528 -0.0737 -0.0514
 7977TIP3    H245347   4.431   4.075   4.792 -0.5919  0.1268  0.6326
 7978TIP3   OH245348   0.087   3.430  13.191 -0.3645  0.7109  0.1849
 7978TIP3    H145349   0.155   3.410  13.255  0.2023  2.7996  0.3181
 7978TIP3    H245350   0.135   3.443  13.109 -1.2246 -3.6854 -1.2521
 7979TIP3   OH245351   1.063   1.622   5.748  0.2372 -0.1599  0.1064
 7979TIP3    H145352   1.154   1.630   5.775  0.2255 -1.5730  0.6554
 7979TIP3    H245353   1.021   1.702   5.780  1.2836  0.5474 -0.2327
 7980TIP3   OH245354   2.260   3.126   6.332  0.0085 -0.4849 -0.6642
 7980TIP3    H145355   2.310   3.089   6.404  1.1740  0.9492 -0.6725
 7980TIP3    H245356   2.204   3.192   6.373  0.7826  0.4414 -1.0503
 7981TIP3   OH245357   0.420   3.276  14.744  0.7361  0.3214 -0.1683
 7981TIP3    H145358   0.326   3.286  14.753  0.3135 -1.8814 -1.2995
 7981TIP3    H245359   0.446   3.223  14.820  0.8067 -0.1658 -0.5214
 7982TIP3   OH245360   3.697   1.222  10.714 -0.0649 -0.1511  0.4802
 7982TIP3    H145361   3.706   1.173  10.795  1.5750 -2.0318 -0.7494
 7982TIP3    H245362   3.669   1.310  10.741 -1.2121 -1.1790  2.9072
 7983TIP3   OH245363   0.075   0.563  13.778  0.4496  0.0678  0.1732
 7983TIP3    H145364   0.071   0.645  13.828 -0.3978 -0.7484  1.5152
 7983TIP3    H245365   0.169   0.548  13.765  0.6206  1.1945 -0.0313
 7984TIP3   OH245366   6.720   5.678   0.850 -0.3699  0.1691  0.0731
 7984TIP3    H145367   6.738   5.732   0.773 -0.1718  2.7603  1.8240
 7984TIP3    H245368   6.795   5.618   0.855  0.3881  0.9939 -0.8959
 7985TIP3   OH245369   1.492   0.668  15.280  0.3469  0.0174  0.4754
 7985TIP3    H145370   1.491   0.582  15.322  1.3982  0.9915  2.6713
 7985TIP3    H245371   1.582   0.678  15.248  0.3189  0.4260  0.5266
 7986TIP3   OH245372   6.120   5.593   4.436  0.4520  0.1376 -0.0948
 7986TIP3    H145373   6.099   5.507   4.471  1.1660 -0.0034 -0.0011
 7986TIP3    H245374   6.049   5.650   4.468 -0.5402 -0.5843 -0.9299
 7987TIP3   OH245375   1.646   4.219  11.491 -0.5104  0.2118 -0.2180
 7987TIP3    H145376   1.656   4.249  11.401  0.1416 -0.8599 -0.5093
 7987TIP3    H245377   1.704   4.144  11.499 -2.6504 -1.5091  0.2549
 7988TIP3   OH245378   1.707   5.531   3.921  0.6820  0.0477 -0.2290
 7988TIP3    H145379   1.765   5.572   3.857  0.9180  0.0986  0.0153
 7988TIP3    H245380   1.766   5.491   3.984  0.4498 -0.0157 -0.0515
 7989TIP3   OH245381   3.300   1.006  14.578 -0.0744 -0.5162  0.3923
 7989TIP3    H145382   3.258   0.920  14.572 -0.2379 -0.3840 -0.4040
 7989TIP3    H245383   3.274   1.051  14.498 -1.9503  1.1627  1.8326
 7990TIP3   OH245384   5.116   0.608   4.561 -0.4036  0.0519 -0.3618
 7990TIP3    H145385   5.105   0.541   4.629 -2.3836 -0.2506 -0.9193
 7990TIP3    H245386   5.029   0.617   4.522  0.1795  1.8540 -1.3457
 7991TIP3   OH245387   3.939   4.067   4.759  0.2245 -0.1093  0.7011
 7991TIP3    H145388   3.911   4.017   4.835 -3.9054 -0.7195 -0.9799
 7991TIP3    H245389   3.874   4.136   4.750  0.4145 -0.1871 -2.3177
 7992TIP3   OH245390   2.596   0.612   3.945 -0.1626  0.1378 -0.2595
 7992TIP3    H145391   2.687   0.584   3.934 -0.8187 -3.2319  1.6396
 7992TIP3    H245392   2.601   0.688   4.003  1.4156 -0.7709  0.8614
 7993TIP3   OH245393   5.660   3.586   3.730 -0.4619 -0.0903  0.3124
 7993TIP3    H145394   5.574   3.562   3.696 -0.7819  0.3394  0.7999
 7993TIP3    H245395   5.674   3.675   3.699  0.4013 -0.6148 -0.8778
 7994TIP3   OH245396   4.651   1.700   5.192  0.2037  0.1049 -0.7806
 7994TIP3    H145397   4.742   1.684   5.169  0.3829 -0.0616  0.0048
 7994TIP3    H245398   4.655   1.762   5.265 -0.3879  1.6883 -2.0384
 7995TIP3   OH245399   2.521   1.251   0.207 -0.2118 -0.3203  0.0918
 7995TIP3    H145400   2.608   1.214   0.205 -0.0248  0.1410 -0.7724
 7995TIP3    H245401   2.524   1.317   0.277 -0.3635 -1.4371  1.1848
 7996TIP3   OH245402   5.020   3.833   4.005  0.3532 -0.1885  0.2293
 7996TIP3    H145403   5.049   3.838   3.914  3.1279 -0.6297  0.9820
 7996TIP3    H245404   4.964   3.755   4.008 -1.0990  0.7361 -1.3612
 7997TIP3   OH245405   0.648   3.450  16.132 -0.5503  0.2312  0.6035
 7997TIP3    H145406   0.722   3.395  16.108 -0.3110  0.0768  1.6386
 7997TIP3    H245407   0.668   3.480  16.221 -0.3682  2.4991 -0.1264
 7998TIP3   OH245408   6.024   5.796  12.141 -0.0911  0.2721 -0.9790
 7998TIP3    H145409   6.119   5.804  12.147 -0.0072 -0.8260 -0.6423
 7998TIP3    H245410   5.994   5.790  12.232 -0.5660  1.4022 -1.0509
 7999TIP3   OH245411   2.531   2.570  12.872  0.6466  0.0341 -1.0673
 7999TIP3    H145412   2.567   2.482  12.881 -0.1518 -0.2121 -0.1399
 7999TIP3    H245413   2.459   2.574  12.935 -1.2778  0.3452 -3.1502
 8000TIP3   OH245414   5.991   3.028   1.823 -0.1759  0.3600 -0.4067
 8000TIP3    H145415   6.030   3.098   1.876  0.1405  1.0889 -1.5709
 8000TIP3    H245416   5.935   3.074   1.761  1.1246 -0.2915 -2.1344
 8001TIP3   OH245417   2.853   1.120  14.595 -0.1108  0.6282 -0.2436
 8001TIP3    H145418   2.899   1.049  14.551 -0.6493 -0.5764  1.0660
 8001TIP3    H245419   2.768   1.124  14.552  0.1752  0.9512 -0.7811
 8002TIP3   OH245420   6.765   1.076  11.835  0.0582  0.1688  0.0940
 8002TIP3    H145421   6.836   1.023  11.798  0.3938  1.1823 -0.7779
 8002TIP3    H245422   6.755   1.148  11.773 -1.2554  0.4328  0.5849
 8003TIP3   OH245423   6.082   4.641   5.637 -0.1063  0.0941  0.4197
 8003TIP3    H145424   5.989   4.620   5.632  0.0244 -0.2802 -1.0631
 8003TIP3    H245425   6.121   4.592   5.564  1.3816 -0.4115  1.5081
 8004TIP3   OH245426   4.967   1.578   2.540 -0.7467 -0.1650  0.0970
 8004TIP3    H145427   4.968   1.673   2.548  0.7079  0.1177 -2.3786
 8004TIP3    H245428   5.023   1.559   2.465 -1.7327 -2.9338 -0.0877
 8005TIP3   OH245429   0.749   4.625  15.648  0.3289 -0.6163  1.1349
 8005TIP3    H145430   0.690   4.608  15.722 -0.8408 -1.6368  0.0101
 8005TIP3    H245431   0.793   4.541  15.633 -0.4897 -0.8292 -0.2058
 8006TIP3   OH245432   3.528   4.174  14.246  0.3154  0.2618  0.1714
 8006TIP3    H145433   3.588   4.107  14.213 -0.6688  0.2297 -1.7369
 8006TIP3    H245434   3.584   4.236  14.292  1.9781  0.6040 -2.1230
 8007TIP3   OH245435   1.640   2.786  12.481 -0.2679 -0.2516  0.0479
 8007TIP3    H145436   1.605   2.707  12.523 -1.4604  0.3219  0.1732
 8007TIP3    H245437   1.663   2.844  12.553  2.1749 -1.0581  0.0283
 8008TIP3   OH245438   2.805   2.141  16.711 -0.2640  0.5091 -0.3205
 8008TIP3    H145439   2.719   2.172  16.682 -0.3124 -0.1429 -0.9166
 8008TIP3    H245440   2.859   2.145  16.632  0.6293  2.1124  0.3204
 8009TIP3   OH245441   3.773   6.059  16.376 -0.0811 -0.2705 -0.6193
 8009TIP3    H145442   3.850   6.002  16.369  0.7248  0.6890  0.1852
 8009TIP3    H245443   3.798   6.139  16.330  0.2962  0.9209  1.5344
 8010TIP3   OH245444   5.835   4.165  14.725  0.3746 -0.1190 -0.0906
 8010TIP3    H145445   5.913   4.114  14.707  1.0976  1.2579 -1.0415
 8010TIP3    H245446   5.773   4.140  14.657  0.3593 -0.4351  0.0364
 8011TIP3   OH245447   5.027   3.224   5.750 -0.2000 -0.4076  0.1717
 8011TIP3    H145448   4.995   3.153   5.806 -0.1549  0.0616  0.8065
 8011TIP3    H245449   4.991   3.204   5.664 -0.4860 -1.0071  0.4192
 8012TIP3   OH245450   0.812   4.180  11.695 -0.2275 -0.3657  0.1052
 8012TIP3    H145451   0.850   4.146  11.776  1.8021  0.2405 -0.5078
 8012TIP3    H245452   0.808   4.104  11.637  1.9752 -0.1447 -0.4462
 8013TIP3   OH245453   2.353   5.714   4.515  0.4818  0.0581  0.3528
 8013TIP3    H145454   2.378   5.623   4.533 -1.4775 -0.6223 -0.0902
 8013TIP3    H245455   2.345   5.754   4.602  2.5354  0.2088  0.5284
 8014TIP3   OH245456   6.466   1.875   5.356  0.4936 -0.1756 -0.2697
 8014TIP3    H145457   6.445   1.788   5.322  3.0563 -0.5573 -1.0667
 8014TIP3    H245458   6.519   1.858   5.434 -0.9416  0.7304  0.9621
 8015TIP3   OH245459   2.468   4.920   2.470 -0.4237 -0.0571  0.5529
 8015TIP3    H145460   2.431   4.978   2.535 -3.1415 -1.6001  0.5380
 8015TIP3    H245461   2.437   4.833   2.494 -0.7576 -0.8180 -2.2407
 8016TIP3   OH245462   5.748   2.657  13.047 -0.3014 -0.1876  0.6527
 8016TIP3    H145463   5.742   2.635  12.954 -0.6734 -0.2228  0.6828
 8016TIP3    H245464   5.686   2.598  13.090  0.1413 -0.4300  0.9702
 8017TIP3   OH245465   4.939   4.760   0.438  0.2517 -0.8966  0.5885
 8017TIP3    H145466   4.940   4.758   0.534  2.3146 -0.5559  0.6245
 8017TIP3    H245467   5.016   4.812   0.414 -1.1233  0.4242 -1.2610
 8018TIP3   OH245468   4.630   5.568  16.229  0.5314  0.1641 -0.1658
 8018TIP3    H145469   4.541   5.561  16.194 -0.3947 -3.4575  2.4112
 8018TIP3    H245470   4.617   5.592  16.321  1.9675 -2.3564  0.7839
 8019TIP3   OH245471   1.803   6.144   3.977 -0.1005 -0.0704 -0.1708
 8019TIP3    H145472   1.715   6.151   4.015 -0.2160  0.9268 -0.5895
 8019TIP3    H245473   1.790   6.098   3.895 -0.0017 -1.2967  0.4879
 8020TIP3   OH245474   3.175   0.011  13.770 -0.0576  0.1434 -0.6351
 8020TIP3    H145475   3.097   0.058  13.741  0.2466  0.4969 -0.8977
 8020TIP3    H245476   3.232   0.010  13.692  2.0454  3.6531  0.6211
 8021TIP3   OH245477   3.994   0.047  15.996  0.3113 -0.3773  0.2709
 8021TIP3    H145478   3.924   0.015  15.939  0.1693 -0.5594  0.5441
 8021TIP3    H245479   3.986   0.142  15.993  1.1566 -0.3254 -1.0751
 8022TIP3   OH245480   0.790   4.991  11.124 -0.3141 -0.1260  0.2270
 8022TIP3    H145481   0.879   4.998  11.158 -0.1371 -2.1975  0.2823
 8022TIP3    H245482   0.799   4.947  11.039 -1.3731 -1.7223  0.8879
 8023TIP3   OH245483   3.437   2.000  17.144 -0.5458 -0.3074  0.0944
 8023TIP3    H145484   3.389   1.920  17.165 -2.6632  0.9999  0.4738
 8023TIP3    H245485   3.507   2.003  17.210 -1.0079 -1.3461  0.6607
 8024TIP3   OH245486   3.785   0.062   4.810 -0.1934 -0.0386  0.3207
 8024TIP3    H145487   3.690   0.051   4.806 -0.2785 -0.0653  1.8571
 8024TIP3    H245488   3.820  -0.008   4.754 -1.0542 -0.2458  0.0320
 8025TIP3   OH245489   2.500   6.216  15.539 -0.1228 -0.1510  0.4707
 8025TIP3    H145490   2.434   6.256  15.596 -0.9502 -0.5528 -0.1793
 8025TIP3    H245491   2.536   6.144  15.591  1.3631  1.3661  1.6371
 8026TIP3   OH245492   1.138   6.731  10.695  0.2981 -0.0871  0.0155
 8026TIP3    H145493   1.110   6.817  10.726  0.0205  0.0050 -0.4811
 8026TIP3    H245494   1.232   6.742  10.677  0.2115  0.1906 -0.2904
 8027TIP3   OH245495   3.926   3.672   3.757 -0.2926  0.1689 -0.6495
 8027TIP3    H145496   3.917   3.765   3.738 -0.2014  0.1870 -0.6058
 8027TIP3    H245497   3.872   3.658   3.835 -0.5374  0.1265 -0.8234
 8028TIP3   OH245498   0.846   0.714  13.699 -0.1887 -0.0636  0.1439
 8028TIP3    H145499   0.864   0.657  13.774 -0.1274 -0.3841 -0.1133
 8028TIP3    H245500   0.840   0.802  13.737 -0.3362 -0.2444  0.5498
 8029TIP3   OH245501   1.576   1.678   1.314 -0.2229  0.0619  0.5295
 8029TIP3    H145502   1.515   1.751   1.314  0.8580  1.1129  2.9738
 8029TIP3    H245503   1.605   1.671   1.406  0.5084 -2.7785  0.1951
 8030TIP3   OH245504   3.735   0.547   4.899 -0.4526 -0.3919 -0.6109
 8030TIP3    H145505   3.726   0.570   4.991  0.6124  1.5725 -0.9531
 8030TIP3    H245506   3.644   0.543   4.867 -0.7956  1.4143 -0.0129
 8031TIP3   OH245507   6.250   6.577   2.304  0.3333 -0.4860 -0.2862
 8031TIP3    H145508   6.311   6.650   2.319 -1.4175  1.2916 -1.2852
 8031TIP3    H245509   6.261   6.555   2.211 -1.8711  1.2544 -1.0424
 8032TIP3   OH245510   4.010   1.481  12.903  0.4551  0.8048  0.1589
 8032TIP3    H145511   4.050   1.563  12.931  1.2430  0.9114 -1.2077
 8032TIP3    H245512   4.080   1.433  12.860 -0.3808  0.0718 -0.4205
 8033TIP3   OH245513   5.527   1.007  13.404 -0.0505  0.0706 -0.6600
 8033TIP3    H145514   5.550   0.982  13.493  0.6911 -0.5359 -1.0090
 8033TIP3    H245515   5.450   0.954  13.383 -1.6087  1.7831  0.3529
 8034TIP3   OH245516   0.067   5.097  14.238  0.5778 -0.4177  0.5062
 8034TIP3    H145517   0.026   5.183  14.232 -0.5404 -0.8214  1.7752
 8034TIP3    H245518   0.134   5.106  14.306  2.6166  0.1944 -1.4442
 8035TIP3   OH245519   6.777   2.235   4.033 -0.3850  0.3460 -0.4878
 8035TIP3    H145520   6.759   2.220   3.940  1.7113  0.1949 -0.9075
 8035TIP3    H245521   6.704   2.192   4.078 -1.6430  0.7350 -2.0440
 8036TIP3   OH245522   5.750   1.473   3.421  0.1328 -0.1141 -0.3794
 8036TIP3    H145523   5.788   1.388   3.398  1.0384 -0.5505  2.3308
 8036TIP3    H245524   5.706   1.457   3.504 -1.9352  1.5229 -1.0883
 8037TIP3   OH245525   3.358   2.919  13.093 -0.0041 -0.0690  0.6383
 8037TIP3    H145526   3.305   2.951  13.021 -0.5492  1.5328  1.6969
 8037TIP3    H245527   3.298   2.913  13.167  0.5751 -1.5100  1.0274
 8038TIP3   OH245528   4.800   1.914  12.265 -0.4299 -0.1105 -1.2722
 8038TIP3    H145529   4.785   1.820  12.266 -0.9435 -0.0733 -2.7482
 8038TIP3    H245530   4.797   1.940  12.357 -1.5542 -1.3259 -0.9366
 8039TIP3   OH245531   5.233   0.077  12.530 -0.2466 -0.3528 -0.5267
 8039TIP3    H145532   5.288   0.039  12.462  0.1247  0.3709 -0.6294
 8039TIP3    H245533   5.289   0.140  12.575 -0.4502 -0.9021  0.5327
 8040TIP3   OH245534   1.934   1.935   3.543  0.4424 -0.1289 -0.7214
 8040TIP3    H145535   2.014   1.960   3.588  0.4590  2.4562 -1.9816
 8040TIP3    H245536   1.933   1.990   3.465 -3.5745  1.5404  0.2805
 8041TIP3   OH245537   0.352   2.025   0.138 -0.1781 -0.5018 -0.0350
 8041TIP3    H145538   0.306   2.076   0.072  0.5797  0.5963  0.2446
 8041TIP3    H245539   0.378   2.089   0.204 -0.0859 -1.4237  0.8553
 8042TIP3   OH245540   1.347   0.931  13.432 -0.4024 -0.3170 -0.5056
 8042TIP3    H145541   1.336   0.843  13.469 -2.3046 -0.0740 -0.3993
 8042TIP3    H245542   1.262   0.973  13.445 -0.1053  0.9133 -2.2238
 8043TIP3   OH245543   2.721   4.327  13.173  0.5639  0.8599  0.2367
 8043TIP3    H145544   2.726   4.244  13.127 -2.2260  0.7874 -0.0884
 8043TIP3    H245545   2.759   4.391  13.113  0.5179  0.1784 -0.5305
 8044TIP3   OH245546   3.987   3.245  14.793 -0.8583  0.6954  0.0375
 8044TIP3    H145547   3.920   3.269  14.857 -0.5670  2.5342 -0.3029
 8044TIP3    H245548   3.940   3.240  14.710 -0.5894  2.1529 -0.2304
 8045TIP3   OH245549   4.933   0.794   3.730  0.5412 -0.3063  0.1500
 8045TIP3    H145550   4.877   0.809   3.654 -1.1005  2.1069  1.6980
 8045TIP3    H245551   4.986   0.873   3.737  1.1329 -0.7719  1.1662
 8046TIP3   OH245552   4.483   6.036   2.005 -0.1307  0.6935 -0.0492
 8046TIP3    H145553   4.487   6.058   1.912  2.6238 -1.2658 -0.5244
 8046TIP3    H245554   4.512   5.945   2.009 -1.7118  0.1820  2.6312
 8047TIP3   OH245555   4.159   0.685  14.530 -0.0216  0.0487 -0.2211
 8047TIP3    H145556   4.082   0.732  14.564  0.9656  1.3815  0.2778
 8047TIP3    H245557   4.180   0.622  14.599  1.3391  2.0301  1.3311
 8048TIP3   OH245558   0.477   0.176  12.365 -0.3588 -0.4404  0.1063
 8048TIP3    H145559   0.512   0.108  12.423  0.8080 -1.2892 -1.5286
 8048TIP3    H245560   0.505   0.258  12.406  1.3326 -1.0389  0.2464
 8049TIP3   OH245561   4.186   6.428  11.120 -0.0483 -0.3023 -0.1254
 8049TIP3    H145562   4.132   6.350  11.124 -0.4329 -0.2173 -2.2112
 8049TIP3    H245563   4.210   6.436  11.027 -0.8980  2.6152 -0.2047
 8050TIP3   OH245564   0.723   3.227   3.785 -0.0169 -0.6287  0.6716
 8050TIP3    H145565   0.761   3.208   3.699 -0.1047  0.3139  0.4076
 8050TIP3    H245566   0.628   3.221   3.772 -0.1052  1.0506  0.2802
 8051TIP3   OH245567   4.724   2.833   1.390 -0.4223  0.0532  0.0850
 8051TIP3    H145568   4.669   2.810   1.466  0.5327 -2.6124  0.1040
 8051TIP3    H245569   4.813   2.811   1.418 -0.0667 -1.1839 -1.8159
 8052TIP3   OH245570   6.307   1.648  16.192  0.2542 -0.3963  0.4011
 8052TIP3    H145571   6.301   1.648  16.288  0.0829  0.2641  0.3935
 8052TIP3    H245572   6.393   1.609  16.174  0.8528  0.6486  0.8754
 8053TIP3   OH245573   2.147   5.531   1.676 -0.1193  0.2255  0.2752
 8053TIP3    H145574   2.066   5.579   1.696 -1.0502 -1.2429  0.1681
 8053TIP3    H245575   2.215   5.598   1.678 -1.0345  1.1995  2.3801
 8054TIP3   OH245576   5.383   1.089   1.793 -0.5074 -0.5135  0.3737
 8054TIP3    H145577   5.316   1.022   1.803 -0.9686 -0.2490 -0.8239
 8054TIP3    H245578   5.341   1.158   1.741  0.5739 -0.1791 -0.0872
 8055TIP3   OH245579   5.997   5.080   4.810  0.3540 -0.2480  0.2874
 8055TIP3    H145580   6.006   5.024   4.887  0.3614  0.0989  0.5448
 8055TIP3    H245581   6.018   5.023   4.736  1.6839 -0.2619  0.6378
 8056TIP3   OH245582   4.455   4.060  11.540 -0.1959 -0.4519  0.0824
 8056TIP3    H145583   4.387   4.114  11.499  0.7223  2.2504  1.8895
 8056TIP3    H245584   4.535   4.084  11.495  0.3057  0.1503  1.2581
 8057TIP3   OH245585   4.439   4.809   0.758  1.3845 -0.4967 -0.3107
 8057TIP3    H145586   4.401   4.742   0.815 -0.7397 -0.9786 -2.1533
 8057TIP3    H245587   4.471   4.760   0.682  2.3823  0.3228 -0.4401
 8058TIP3   OH245588   2.111   3.308  11.246 -0.6070  0.1036 -0.1431
 8058TIP3    H145589   2.188   3.306  11.304  0.2408  2.5977 -1.0776
 8058TIP3    H245590   2.143   3.273  11.163 -0.3706  1.3573 -0.6026
 8059TIP3   OH245591   5.416   1.029  15.144 -0.1022 -0.6002 -0.3872
 8059TIP3    H145592   5.349   0.992  15.086 -0.0758  0.1796 -0.9265
 8059TIP3    H245593   5.412   1.123  15.128 -0.3543 -0.3105  1.1478
 8060TIP3   OH245594   4.773   1.646  12.307  0.7180  0.3340 -0.1147
 8060TIP3    H145595   4.819   1.584  12.363  0.1996  0.5308  0.5339
 8060TIP3    H245596   4.755   1.597  12.226  3.0869  0.5930 -0.8829
 8061TIP3   OH245597   3.081   5.249   5.214  0.5458 -0.2311 -0.3762
 8061TIP3    H145598   3.131   5.204   5.147  1.0045  0.6923 -0.6687
 8061TIP3    H245599   3.105   5.205   5.296  2.6626  0.8525 -0.3577
 8062TIP3   OH245600   6.773   5.539  16.920  0.1255 -0.3242 -0.0392
 8062TIP3    H145601   6.768   5.544  17.015 -1.7223 -2.5124  0.0842
 8062TIP3    H245602   6.842   5.476  16.902  1.0316  0.6958 -0.2089
 8063TIP3   OH245603   1.042   1.752   1.342 -0.3771 -0.1567  0.3156
 8063TIP3    H145604   1.021   1.830   1.395 -0.7657  0.1644 -0.2996
 8063TIP3    H245605   1.010   1.679   1.395  0.6820  0.0288  1.2541
 8064TIP3   OH245606   5.929   5.103   4.061 -0.3891 -0.6489  0.3986
 8064TIP3    H145607   5.877   5.041   4.010 -0.0872 -0.3385 -0.3023
 8064TIP3    H245608   5.864   5.155   4.109 -0.9383  1.1970 -2.1214
 8065TIP3   OH245609   6.065   0.869  15.540  0.3543  0.1908 -0.0847
 8065TIP3    H145610   6.032   0.816  15.613  4.2073 -1.4917  0.6450
 8065TIP3    H245611   6.066   0.810  15.465 -0.5957  0.9949 -0.7648
 8066TIP3   OH245612   0.533   3.956  16.409  0.5799 -0.4878  0.1177
 8066TIP3    H145613   0.456   3.967  16.355 -0.7462 -0.4130  1.9218
 8066TIP3    H245614   0.551   3.862  16.407  1.0003 -0.3899 -1.0173
 8067TIP3   OH245615   4.977   4.499   4.174  0.4341 -0.2043 -0.3544
 8067TIP3    H145616   5.015   4.577   4.214 -2.0926  0.1461  1.6060
 8067TIP3    H245617   5.036   4.428   4.198  0.3335  0.4163  1.9620
 8068TIP3   OH245618   6.607   4.025   0.221 -0.4376  0.0689 -0.4671
 8068TIP3    H145619   6.528   4.050   0.269 -0.1989 -1.0824  0.6042
 8068TIP3    H245620   6.584   4.035   0.129 -1.2001  1.5381 -0.1448
 8069TIP3   OH245621   1.759   2.564   2.384 -0.6368  0.0572  0.3048
 8069TIP3    H145622   1.750   2.607   2.469 -3.0680  0.3919 -0.0543
 8069TIP3    H245623   1.727   2.629   2.321 -0.8669 -0.9498 -0.6413
 8070TIP3   OH245624   6.696   1.276   4.911 -0.2020 -0.0380 -0.8173
 8070TIP3    H145625   6.648   1.332   4.972 -2.6386 -1.5489 -1.2175
 8070TIP3    H245626   6.743   1.214   4.966  2.2808  2.0606 -0.3815
 8071TIP3   OH245627   3.382   5.047   2.094 -0.5021 -0.0192  0.2261
 8071TIP3    H145628   3.393   5.015   2.184  1.2641 -0.3401 -0.0717
 8071TIP3    H245629   3.315   5.115   2.101  0.3414  0.7026  1.9800
 8072TIP3   OH245630   0.499   4.063  16.650  0.3616  0.0603  0.2956
 8072TIP3    H145631   0.536   4.021  16.572 -0.1566  1.3645 -0.6890
 8072TIP3    H245632   0.433   4.122  16.616  0.7661  1.3596  1.6692
 8073TIP3   OH245633   3.158   1.981  16.241 -0.8704  0.0834 -0.2857
 8073TIP3    H145634   3.094   1.912  16.222 -1.0597 -0.0495  0.7707
 8073TIP3    H245635   3.240   1.935  16.254 -1.2787 -0.1502  1.8896
 8074TIP3   OH245636   0.312   3.344   2.020 -0.2262  0.2805 -0.2200
 8074TIP3    H145637   0.294   3.251   2.009 -0.1764  0.3131 -0.6067
 8074TIP3    H245638   0.293   3.382   1.934 -0.6597  0.6916  0.0474
 8075TIP3   OH245639   5.093   5.268   5.608 -0.8229  0.0928  0.5522
 8075TIP3    H145640   5.163   5.330   5.628 -1.1378  1.3105 -1.7621
 8075TIP3    H245641   5.109   5.242   5.517 -2.5141 -0.7780  0.4601
 8076TIP3   OH245642   5.548   2.087  12.655  0.0211 -0.4549  0.3131
 8076TIP3    H145643   5.468   2.066  12.607 -0.3178 -1.0293  1.1116
 8076TIP3    H245644   5.601   2.007  12.650  1.3209  0.4538 -1.6667
 8077TIP3   OH245645   0.441   5.222  11.231  0.5218  0.3682  0.1264
 8077TIP3    H145646   0.422   5.268  11.313 -2.9949 -0.8656  0.1702
 8077TIP3    H245647   0.473   5.291  11.173  1.0282  1.6909  1.8802
 8078TIP3   OH245648   5.366   6.567   3.640 -0.1891  0.1850  0.4333
 8078TIP3    H145649   5.279   6.528   3.636  0.1463 -0.6226  0.7368
 8078TIP3    H245650   5.356   6.654   3.601 -1.1712  0.1805  0.6620
 8079TIP3   OH245651   4.940   0.231   4.451 -0.3074 -0.4699 -0.0134
 8079TIP3    H145652   5.020   0.195   4.488  0.3967  3.0891  2.4017
 8079TIP3    H245653   4.968   0.276   4.372 -0.3118 -0.8144 -0.2163
 8080TIP3   OH245654   6.359   5.592  14.293 -0.4170  0.1856  0.9552
 8080TIP3    H145655   6.288   5.578  14.357 -0.0035  1.7431  1.8124
 8080TIP3    H245656   6.408   5.510  14.294 -1.4251 -0.4386  1.3519
 8081TIP3   OH245657   4.295   0.139   2.278 -0.3289  0.2379 -0.2679
 8081TIP3    H145658   4.252   0.053   2.277 -1.6084  0.8591 -0.4504
 8081TIP3    H245659   4.321   0.154   2.187  4.0517 -1.8896  0.3606
 8082TIP3   OH245660   5.377   3.405   4.818 -0.4475 -0.6953  0.4042
 8082TIP3    H145661   5.456   3.378   4.771  1.0670  2.5870  0.7658
 8082TIP3    H245662   5.402   3.402   4.911 -0.9227 -0.1775  0.5580
 8083TIP3   OH245663   5.335   5.482   1.632  0.2340 -0.2238  0.2261
 8083TIP3    H145664   5.275   5.514   1.564  0.5949  0.6390  0.2938
 8083TIP3    H245665   5.372   5.402   1.596  0.4411  0.2402 -0.6173
 8084TIP3   OH245666   2.045   6.081  13.474 -0.1235  0.4319  0.6837
 8084TIP3    H145667   2.123   6.057  13.425 -1.3833 -0.8171 -0.8443
 8084TIP3    H245668   2.077   6.110  13.559  1.9047 -1.2840  0.5733
 8085TIP3   OH245669   6.304   0.313  14.590  0.2308 -0.5893  0.2218
 8085TIP3    H145670   6.264   0.238  14.546 -1.2272 -0.1612  0.7771
 8085TIP3    H245671   6.233   0.353  14.640  1.0652  0.9490  0.2469
 8086TIP3   OH245672   6.601   6.602   6.427  0.5533 -0.4197  0.1223
 8086TIP3    H145673   6.543   6.676   6.444  0.9791  0.3788 -1.6135
 8086TIP3    H245674   6.678   6.642   6.385  0.6000 -1.8747 -1.2708
 8087TIP3   OH245675   3.500   1.751   0.939  0.0593 -0.5657  0.0469
 8087TIP3    H145676   3.439   1.706   0.998  1.3114 -1.2570  0.8630
 8087TIP3    H245677   3.465   1.735   0.851 -0.8335 -1.1052  0.4929
 8088TIP3   OH245678   6.259   3.896  16.788  0.2066  0.0470 -0.3657
 8088TIP3    H145679   6.195   3.848  16.735 -0.6366  1.8618 -1.0850
 8088TIP3    H245680   6.344   3.878  16.746  0.0444 -1.4402 -0.1018
 8089TIP3   OH245681   4.767   3.608  14.540 -0.5430  0.2112 -0.0143
 8089TIP3    H145682   4.801   3.674  14.479  0.3282 -0.3089 -0.0999
 8089TIP3    H245683   4.684   3.581  14.502 -1.0254  1.4015  0.1259
 8090TIP3   OH245684   5.472   3.451   5.862 -0.3251 -0.0391  0.1520
 8090TIP3    H145685   5.406   3.409   5.807 -0.9183 -1.1230  1.6110
 8090TIP3    H245686   5.477   3.541   5.830 -2.5996  0.1057  0.0340
 8091TIP3   OH245687   1.600   2.474  13.025  0.0707  0.3515 -0.1464
 8091TIP3    H145688   1.520   2.526  13.020 -0.5096 -0.1994  2.1583
 8091TIP3    H245689   1.664   2.532  13.066 -0.9827 -0.9676  3.8108
 8092TIP3   OH245690   1.280   5.413  15.417 -0.3007 -0.5170  0.6961
 8092TIP3    H145691   1.261   5.322  15.396 -1.1321 -0.8209  2.6078
 8092TIP3    H245692   1.218   5.436  15.486  1.1858  0.8969  1.6477
 8093TIP3   OH245693   3.657   1.980  15.841  1.0638  0.5410 -0.4018
 8093TIP3    H145694   3.696   2.051  15.789 -0.7465  0.5599 -1.8744
 8093TIP3    H245695   3.621   2.024  15.918  0.6284  1.1468 -0.9281
 8094TIP3   OH245696   4.280   2.480   3.261  0.1760 -0.4087 -0.2323
 8094TIP3    H145697   4.370   2.452   3.274 -0.0369 -0.9776  0.0869
 8094TIP3    H245698   4.236   2.402   3.227 -0.4279 -0.4688  0.6471
 8095TIP3   OH245699   5.192   2.310   1.478  0.4540 -0.1093  0.1406
 8095TIP3    H145700   5.201   2.215   1.477 -0.9155 -0.2826  1.2697
 8095TIP3    H245701   5.098   2.326   1.473  0.5077  1.1006  1.8040
 8096TIP3   OH245702   4.535   4.115   6.525 -0.2207 -0.0307 -0.6270
 8096TIP3    H145703   4.461   4.165   6.493 -2.1018 -0.9541  1.9087
 8096TIP3    H245704   4.608   4.139   6.468 -2.2573  1.5367 -2.7160
 8097TIP3   OH245705   0.453   6.501  14.568 -0.1931  0.1152 -0.1002
 8097TIP3    H145706   0.499   6.470  14.646 -0.2238  0.8047  0.2020
 8097TIP3    H245707   0.523   6.517  14.504 -0.2182 -1.0398 -0.4383
 8098TIP3   OH245708   4.765   3.698  14.808  0.5414  0.2635  0.4728
 8098TIP3    H145709   4.750   3.636  14.737 -0.7710 -0.0763  1.0188
 8098TIP3    H245710   4.737   3.651  14.887  3.1782  0.1409  1.4373
 8099TIP3   OH245711   4.805   4.356  15.685 -0.0214  0.2683 -0.3104
 8099TIP3    H145712   4.754   4.437  15.679  2.2989  1.7413 -2.0322
 8099TIP3    H245713   4.769   4.300  15.617 -4.6098 -2.2627  3.5761
 8100TIP3   OH245714   5.014   3.309   3.820  0.0649  0.1574 -0.0384
 8100TIP3    H145715   4.956   3.242   3.856 -1.8821  1.4644 -0.5602
 8100TIP3    H245716   5.032   3.280   3.730  1.0956 -0.7558  0.4416
 8101TIP3   OH245717   2.764   1.201   5.378 -0.0836 -0.4084 -0.3627
 8101TIP3    H145718   2.830   1.234   5.316 -1.6717  0.7104 -1.5254
 8101TIP3    H245719   2.736   1.279   5.426 -1.8176 -0.5408 -1.1123
 8102TIP3   OH245720   4.348   0.466  15.129 -0.0036  0.6330  0.5041
 8102TIP3    H145721   4.311   0.391  15.176  0.5761 -0.1906 -0.3394
 8102TIP3    H245722   4.434   0.479  15.170  0.4827 -0.0563 -0.2801
 8103TIP3   OH245723   2.894   1.850   5.534 -0.2701  0.1322  0.0554
 8103TIP3    H145724   2.810   1.807   5.550 -0.4311  0.7484  0.9430
 8103TIP3    H245725   2.880   1.900   5.453 -1.3049  1.5085  1.0321
 8104TIP3   OH245726   2.802   0.142   4.351 -0.0132  0.0276  0.1605
 8104TIP3    H145727   2.801   0.109   4.441  1.5273 -2.4494 -0.6245
 8104TIP3    H245728   2.739   0.086   4.305 -1.2955  1.7140 -0.2057
 8105TIP3   OH245729   4.807   1.335   3.425 -0.4420 -0.2320  0.3959
 8105TIP3    H145730   4.896   1.369   3.411 -0.7205  1.7691  2.7454
 8105TIP3    H245731   4.781   1.299   3.340  2.3097 -0.1876 -0.5595
 8106TIP3   OH245732   3.579   6.313  16.376 -0.4867 -0.6011 -0.1781
 8106TIP3    H145733   3.603   6.369  16.450 -1.5799  1.1732 -1.0942
 8106TIP3    H245734   3.658   6.310  16.321 -0.7399  1.0003 -0.6673
 8107TIP3   OH245735   0.109   1.602   2.272  0.1068  0.0384  0.4644
 8107TIP3    H145736   0.047   1.655   2.221 -0.5240 -0.1503  1.0166
 8107TIP3    H245737   0.062   1.520   2.288  1.5288 -1.2546 -1.4938
 8108TIP3   OH245738   0.213   2.385  15.814 -0.6544  0.7412 -0.0428
 8108TIP3    H145739   0.258   2.437  15.748 -0.1647 -0.5025 -0.7389
 8108TIP3    H245740   0.282   2.355  15.873 -0.6907 -0.2432 -0.4650
 8109TIP3   OH245741   1.699   5.528  14.919 -0.0530 -0.5462  0.2363
 8109TIP3    H145742   1.766   5.472  14.880  0.8589 -0.9570  2.2844
 8109TIP3    H245743   1.649   5.561  14.844  0.1600 -3.0782 -1.1255
 8110TIP3   OH245744   4.679   5.275   5.431 -0.7471  0.4837  0.5141
 8110TIP3    H145745   4.758   5.330   5.431  1.4084 -2.3108 -1.8675
 8110TIP3    H245746   4.612   5.330   5.391  0.9449  1.8290 -0.6325
 8111TIP3   OH245747   2.820   4.551   4.010  0.1207 -1.0458 -0.3857
 8111TIP3    H145748   2.803   4.470   3.963 -0.9747 -0.1864 -1.5278
 8111TIP3    H245749   2.761   4.548   4.086  0.9688 -1.8486  0.2612
 8112TIP3   OH245750   0.502   1.847  10.421 -0.0794 -0.3602  0.6351
 8112TIP3    H145751   0.489   1.759  10.455  2.8018 -0.1144  2.7397
 8112TIP3    H245752   0.449   1.903  10.478 -1.6128 -0.6307 -0.4686
 8113TIP3   OH245753   2.116   4.719  16.838  0.4053 -1.5704 -0.8095
 8113TIP3    H145754   2.088   4.671  16.916  0.1404  0.1103  0.1886
 8113TIP3    H245755   2.209   4.700  16.829  0.4708 -1.6410  0.0227
 8114TIP3   OH245756   3.016   2.658  14.856  0.1016 -0.2639 -0.4147
 8114TIP3    H145757   3.096   2.707  14.837 -0.0935  0.1034 -0.3036
 8114TIP3    H245758   3.021   2.640  14.950 -0.2029  0.2363 -0.2976
 8115TIP3   OH245759   3.686   4.595   4.708  0.0792  0.4252 -0.0199
 8115TIP3    H145760   3.747   4.606   4.635  0.8181 -0.0052  0.5154
 8115TIP3    H245761   3.703   4.506   4.740 -0.9242  0.2549  0.0613
 8116TIP3   OH245762   4.074   5.582  10.655 -0.2497  0.2406  0.0621
 8116TIP3    H145763   3.998   5.533  10.686  0.0832 -1.7653 -2.0164
 8116TIP3    H245764   4.140   5.515  10.636  1.2435  1.7415 -0.2713
 8117TIP3   OH245765   0.402   0.021  12.941  0.0005  0.0730 -0.1436
 8117TIP3    H145766   0.408  -0.014  12.852  0.5612 -1.9244  0.6150
 8117TIP3    H245767   0.409   0.116  12.931 -0.7985 -0.0538 -2.2849
 8118TIP3   OH245768   4.413   4.107   6.237 -0.3108  0.4399  0.3891
 8118TIP3    H145769   4.361   4.029   6.215 -1.5979  1.6287 -1.0295
 8118TIP3    H245770   4.382   4.133   6.324  0.9308 -1.2067  1.3909
 8119TIP3   OH245771   0.575   2.527  13.442  0.3265  0.2495  0.0131
 8119TIP3    H145772   0.581   2.579  13.522  1.1845  0.6462 -0.2975
 8119TIP3    H245773   0.609   2.441  13.467  1.3991  0.6215 -0.1267
 8120TIP3   OH245774   3.325   2.102   5.287  0.5983  0.0128  0.8133
 8120TIP3    H145775   3.405   2.075   5.332 -0.2632  2.2171  3.9714
 8120TIP3    H245776   3.263   2.031   5.303  0.6434  0.2733  2.2505
 8121TIP3   OH245777   1.750   2.810  10.704 -0.6578 -0.3235 -0.3324
 8121TIP3    H145778   1.845   2.797  10.701 -0.5243 -0.4230  2.4221
 8121TIP3    H245779   1.739   2.904  10.688 -0.2899 -0.5636 -2.3241
 8122TIP3   OH245780   6.438   1.992  11.577  0.2790 -0.6178  0.2527
 8122TIP3    H145781   6.433   1.897  11.568  0.8578 -0.5758 -0.7907
 8122TIP3    H245782   6.417   2.025  11.489  1.8594  0.1285  0.1164
 8123TIP3   OH245783   4.053   3.419   4.043 -0.2227  0.3452 -0.0526
 8123TIP3    H145784   4.095   3.333   4.049 -0.4629  0.1204 -1.4306
 8123TIP3    H245785   4.008   3.419   3.959  0.5482  2.1680 -0.5249
 8124TIP3   OH245786   6.381   0.443  17.035  0.0295  0.2469  0.2615
 8124TIP3    H145787   6.365   0.402  17.120 -0.3859  1.9877  1.0647
 8124TIP3    H245788   6.294   0.459  16.999  0.1967 -1.6262 -1.1289
 8125TIP3   OH245789   4.123   1.421  16.086 -0.2412 -0.5873 -0.0521
 8125TIP3    H145790   4.085   1.348  16.038 -2.6367  0.6163 -0.1157
 8125TIP3    H245791   4.153   1.482  16.018  0.3810 -0.8305 -0.0002
 8126TIP3   OH245792   6.204   2.260  11.450  0.0341 -0.3965  0.7500
 8126TIP3    H145793   6.113   2.256  11.477  0.1184  1.7420  1.5498
 8126TIP3    H245794   6.209   2.334  11.389  1.0521 -1.1326 -0.1083
 8127TIP3   OH245795   5.830   4.080  17.042  0.4530  0.0692  0.7187
 8127TIP3    H145796   5.889   4.053  16.971 -1.0919 -0.9202 -0.2560
 8127TIP3    H245797   5.887   4.090  17.118  1.8355 -1.1956 -0.0885
 8128TIP3   OH245798   1.399   4.328  11.624 -0.1451 -0.7135  0.0082
 8128TIP3    H145799   1.469   4.278  11.582 -1.2286 -3.0692  0.8710
 8128TIP3    H245800   1.441   4.409  11.652  1.4944 -0.7228 -2.1636
 8129TIP3   OH245801   6.333   6.032   3.378  0.2046  0.1504 -0.3767
 8129TIP3    H145802   6.379   6.101   3.427  0.9292 -0.6778  0.1320
 8129TIP3    H245803   6.353   6.052   3.286  1.5103 -0.1132 -0.1797
 8130TIP3   OH245804   2.892   0.572   3.487  0.3109  0.4597 -0.6792
 8130TIP3    H145805   2.817   0.631   3.480 -0.3701 -0.1603  1.0019
 8130TIP3    H245806   2.853   0.484   3.485  0.8492  0.1429  1.3485
 8131TIP3   OH245807   5.427   4.088  11.469 -0.0622 -0.5760 -0.2471
 8131TIP3    H145808   5.402   4.020  11.406 -0.4355 -0.6773  0.0081
 8131TIP3    H245809   5.452   4.163  11.415  1.2757 -1.2126 -0.5645
 8132TIP3   OH245810   4.506   3.292   1.081  0.1728  0.0700 -0.5429
 8132TIP3    H145811   4.499   3.388   1.078 -5.5487 -0.0023 -0.8522
 8132TIP3    H245812   4.501   3.265   0.989  0.6781 -0.5591 -0.3917
 8133TIP3   OH245813   1.023   5.969   3.309  0.4362 -0.0441 -0.3173
 8133TIP3    H145814   1.003   5.877   3.324  0.2439 -0.3355 -2.1883
 8133TIP3    H245815   0.972   5.993   3.232  1.2652  1.3499 -0.4725
 8134TIP3   OH245816   1.596   2.275  16.422 -0.2206 -0.0938 -0.1815
 8134TIP3    H145817   1.636   2.218  16.488 -2.9624 -1.2294  0.6551
 8134TIP3    H245818   1.540   2.216  16.372  0.7353  1.0127 -2.7000
 8135TIP3   OH245819   6.418   4.650   5.620  0.0413  0.2746 -0.0617
 8135TIP3    H145820   6.513   4.641   5.620  0.1632  0.1929  3.6987
 8135TIP3    H245821   6.403   4.744   5.624 -0.1460  0.3347 -1.4177
 8136TIP3   OH245822   2.044   4.556  14.531 -0.2812  0.0631 -0.3196
 8136TIP3    H145823   1.966   4.503  14.512 -0.4905  0.6811 -1.2898
 8136TIP3    H245824   2.020   4.608  14.607 -1.4469  1.4373 -1.5734
 8137TIP3   OH245825   2.524   4.969  16.092  0.3989 -0.3796 -0.5463
 8137TIP3    H145826   2.579   4.963  16.014  3.2287  1.9975  1.0601
 8137TIP3    H245827   2.523   4.880  16.127 -1.0952 -1.5388 -3.2779
 8138TIP3   OH245828   4.202   4.556  12.669 -0.0458 -0.3142  0.3074
 8138TIP3    H145829   4.215   4.630  12.728  2.3507 -0.4249  0.0392
 8138TIP3    H245830   4.274   4.496  12.690 -1.2238 -2.0308 -0.3004
 8139TIP3   OH245831   0.130   4.764  10.383  0.1449 -0.5669 -0.0549
 8139TIP3    H145832   0.069   4.734  10.450 -0.1483 -1.3467 -0.6643
 8139TIP3    H245833   0.150   4.855  10.408  1.3028 -1.3183  2.0063
 8140TIP3   OH245834   5.762   5.218  11.393 -0.0805 -0.3006  0.2419
 8140TIP3    H145835   5.822   5.173  11.333 -1.2112 -0.2181 -1.0022
 8140TIP3    H245836   5.682   5.230  11.342 -0.3646  1.6810  1.0634
 8141TIP3   OH245837   0.731   6.717   4.231  0.0719  0.0296 -0.2675
 8141TIP3    H145838   0.766   6.745   4.315 -2.6359  0.6348  0.7531
 8141TIP3    H245839   0.700   6.627   4.246  0.1069 -0.0750 -0.7981
 8142TIP3   OH245840   1.034   2.715  12.852 -0.2990  0.0358 -0.2209
 8142TIP3    H145841   1.005   2.671  12.932 -0.0944  0.8038  0.2832
 8142TIP3    H245842   1.102   2.775  12.881 -1.7188  1.9304 -0.6183
 8143TIP3   OH245843   6.030   1.978  13.569  0.2424 -0.1869 -0.6258
 8143TIP3    H145844   5.935   1.982  13.585  0.3208 -1.3394  0.2457
 8143TIP3    H245845   6.037   1.946  13.479 -0.1842  1.2036 -1.1810
 8144TIP3   OH245846   1.252   6.186  14.160 -0.3961  0.1481 -0.3096
 8144TIP3    H145847   1.182   6.161  14.221  0.2543  1.3682  0.9907
 8144TIP3    H245848   1.251   6.281  14.160  0.7613  0.1787 -0.8885
 8145TIP3   OH245849   5.682   4.857  14.161 -0.5161 -0.4187  0.3144
 8145TIP3    H145850   5.704   4.851  14.068  0.6566  0.1945  0.5355
 8145TIP3    H245851   5.696   4.768  14.195  1.6429 -0.0959  0.4193
 8146TIP3   OH245852   6.228   5.130   2.342  0.0246 -0.0956 -0.6412
 8146TIP3    H145853   6.149   5.183   2.347 -0.9664 -1.2413 -2.7806
 8146TIP3    H245854   6.200   5.048   2.302  2.4149 -0.2782 -2.1743
 8147TIP3   OH245855   5.832   4.481  15.180 -0.1028  0.0872  0.5653
 8147TIP3    H145856   5.772   4.555  15.181 -0.9327 -0.5292  2.4119
 8147TIP3    H245857   5.820   4.441  15.094 -0.2726  1.5789 -0.1251
 8148TIP3   OH245858   3.948   3.094  16.812  0.0406  0.3752  0.0069
 8148TIP3    H145859   3.978   3.051  16.892  0.7516  1.4382  0.3443
 8148TIP3    H245860   3.982   3.041  16.741  0.5894  0.1802  0.4121
 8149TIP3   OH245861   2.566   5.219  12.613 -0.1726 -0.3678 -0.7870
 8149TIP3    H145862   2.474   5.198  12.626 -0.7367  1.7089 -0.9748
 8149TIP3    H245863   2.602   5.227  12.701  0.0244 -1.8199 -0.7130
 8150TIP3   OH245864   2.677   5.368  11.938 -0.0859 -0.6405 -0.3388
 8150TIP3    H145865   2.645   5.332  12.021 -0.6427 -0.7792 -0.6058
 8150TIP3    H245866   2.619   5.330  11.872 -0.6683  0.6995 -0.6399
 8151TIP3   OH245867   0.870   1.381   3.402 -0.0680 -0.1198  0.3121
 8151TIP3    H145868   0.826   1.408   3.483 -0.3716  0.9533 -0.1990
 8151TIP3    H245869   0.903   1.293   3.421  0.7862  0.5069  1.9737
 8152TIP3   OH245870   4.802   1.240  11.754  0.5992 -0.5896 -0.2595
 8152TIP3    H145871   4.881   1.191  11.730  0.5690 -0.6559 -0.2257
 8152TIP3    H245872   4.730   1.189  11.717  0.5464 -0.7442  0.0499
 8153TIP3   OH245873   6.697   6.180   0.982  0.2316 -0.5204  0.0297
 8153TIP3    H145874   6.755   6.116   0.941  0.1500 -0.4550 -0.1891
 8153TIP3    H245875   6.756   6.249   1.012  0.4356 -1.1809  1.1982
 8154TIP3   OH245876   5.473   6.537  12.829 -0.1019  0.3899  0.0003
 8154TIP3    H145877   5.451   6.622  12.865 -0.7031  0.8448 -1.3675
 8154TIP3    H245878   5.560   6.548  12.791 -0.1241  0.3623 -0.0601
 8155TIP3   OH245879   0.711   5.479   6.045  0.1373  0.0827 -0.8505
 8155TIP3    H145880   0.787   5.422   6.037  0.4044  0.3463 -0.2833
 8155TIP3    H245881   0.636   5.422   6.030  0.4356 -0.2462 -1.0958
 8156TIP3   OH245882   3.590   4.170  14.993 -0.4121  0.3925 -0.4860
 8156TIP3    H145883   3.612   4.168  15.086 -0.1213  2.8501 -0.4282
 8156TIP3    H245884   3.643   4.241  14.957 -0.0213 -0.9245 -2.7068
 8157TIP3   OH245885   0.260   5.762  12.663  0.4423 -0.2963 -0.1145
 8157TIP3    H145886   0.181   5.717  12.633  1.0189 -1.6003  0.2376
 8157TIP3    H245887   0.327   5.693  12.666  1.3175  0.5544  0.6297
 8158TIP3   OH245888   1.711   0.860  15.662  0.2574  0.4208 -0.1791
 8158TIP3    H145889   1.783   0.812  15.621 -0.5179 -0.4075 -0.6035
 8158TIP3    H245890   1.662   0.899  15.590  0.0045  0.5890  0.0778
 8159TIP3   OH245891   1.618   4.442  10.919  0.5508  0.0133 -0.3202
 8159TIP3    H145892   1.694   4.446  10.861  1.5508  0.7532  0.9794
 8159TIP3    H245893   1.591   4.533  10.930 -0.2260 -0.2004 -0.3674
 8160TIP3   OH245894   3.774   5.442   5.581 -0.3844  0.2207 -0.5928
 8160TIP3    H145895   3.679   5.446   5.597 -0.4251  1.1413 -1.0369
 8160TIP3    H245896   3.802   5.533   5.580  0.8961 -0.0912  1.7247
 8161TIP3   OH245897   1.287   1.322  16.476  0.3578  0.7743 -0.3227
 8161TIP3    H145898   1.287   1.389  16.408  1.4964  0.6006 -0.5245
 8161TIP3    H245899   1.361   1.345  16.533 -0.8312  1.1591  1.1290
 8162TIP3   OH245900   3.062   0.020  16.888  0.3694 -0.0819  1.0259
 8162TIP3    H145901   3.109   0.092  16.930 -0.1940 -0.6776  2.7525
 8162TIP3    H245902   3.006   0.063  16.823  0.4175  0.9866  1.6651
 8163TIP3   OH245903   6.029   0.757  13.428 -0.2061 -0.0448 -0.3078
 8163TIP3    H145904   5.985   0.773  13.344 -0.0489  0.5810 -0.2734
 8163TIP3    H245905   6.114   0.800  13.419  0.9048 -2.2322 -0.8107
 8164TIP3   OH245906   1.812   1.904   2.574  0.1867  0.1968  1.0629
 8164TIP3    H145907   1.834   1.994   2.549 -0.7540  0.0667 -0.3230
 8164TIP3    H245908   1.799   1.859   2.491 -0.0956 -1.0445  1.7628
 8165TIP3   OH245909   0.705   5.019   3.474 -0.1432 -0.1142  0.0971
 8165TIP3    H145910   0.665   5.022   3.561  0.4836 -0.9930  0.4344
 8165TIP3    H245911   0.774   4.952   3.481  1.5748  1.5157 -0.3857
 8166TIP3   OH245912   4.510   1.923   3.458 -0.0958 -0.1472 -0.3644
 8166TIP3    H145913   4.501   1.829   3.444  1.0364 -0.1504 -1.2099
 8166TIP3    H245914   4.571   1.931   3.532 -1.4527 -0.0637  0.7971
 8167TIP3   OH245915   4.296   3.171  13.690  0.1099 -0.0924  0.2232
 8167TIP3    H145916   4.235   3.151  13.760 -1.2582 -1.1296 -1.1789
 8167TIP3    H245917   4.253   3.139  13.611  1.4439  1.3076 -1.1517
 8168TIP3   OH245918   4.476   2.537   2.638 -0.1895 -0.2012 -0.4692
 8168TIP3    H145919   4.499   2.539   2.731  1.1448 -0.5484 -0.7755
 8168TIP3    H245920   4.559   2.528   2.593 -0.7337  0.9615 -1.7612
 8169TIP3   OH245921   2.190   3.940   5.541  0.2359  0.2212 -0.3911
 8169TIP3    H145922   2.254   4.012   5.541  1.5833 -0.9162  0.7212
 8169TIP3    H245923   2.239   3.864   5.510 -1.4464 -0.0576 -2.5893
 8170TIP3   OH245924   1.541   6.043   0.942 -0.0474 -0.0661  0.8650
 8170TIP3    H145925   1.630   6.074   0.927  0.6658 -1.6202  1.6237
 8170TIP3    H245926   1.497   6.055   0.858  1.2773 -0.5275  0.0769
 8171TIP3   OH245927   5.266   0.214   7.102 -0.0187  0.2282  0.2399
 8171TIP3    H145928   5.351   0.183   7.071  0.5190  1.1842  0.7010
 8171TIP3    H245929   5.272   0.208   7.198 -0.2508  0.8370  0.2963
 8172TIP3   OH245930   3.603   3.246   1.111  0.2094 -0.8523 -0.5425
 8172TIP3    H145931   3.639   3.239   1.023  0.3396 -2.1302 -0.4136
 8172TIP3    H245932   3.571   3.336   1.118  2.3035 -0.0128 -1.0691
 8173TIP3   OH245933   1.702   0.525   1.109  0.0515  0.9187  0.3866
 8173TIP3    H145934   1.669   0.594   1.165 -0.3922  2.8562 -2.0958
 8173TIP3    H245935   1.665   0.543   1.023  0.2196 -2.2248 -0.4984
 8174TIP3   OH245936   3.245   0.241   0.218  0.0682  0.0291  0.1606
 8174TIP3    H145937   3.210   0.218   0.304  1.0699 -0.7156  0.3813
 8174TIP3    H245938   3.230   0.163   0.164 -0.2592  0.3751 -0.2548
 8175TIP3   OH245939   2.326   3.818   4.616  0.0192 -0.9133 -0.0885
 8175TIP3    H145940   2.315   3.848   4.706  1.0845 -0.9332  0.0538
 8175TIP3    H245941   2.239   3.826   4.577 -0.0553  0.8502  0.3997
 8176TIP3   OH245942   5.840   0.862   3.756 -0.4288 -0.3443  1.0806
 8176TIP3    H145943   5.916   0.843   3.702 -1.4157 -0.6663 -0.2381
 8176TIP3    H245944   5.871   0.849   3.846  1.5784  1.3760  0.7134
 8177TIP3   OH245945   5.624   0.242   0.192  0.2308  0.9956 -0.0264
 8177TIP3    H145946   5.606   0.297   0.116  0.5324  0.4100 -0.5263
 8177TIP3    H245947   5.538   0.229   0.233 -0.1622  0.1145 -1.0874
 8178TIP3   OH245948   0.785   1.606  13.487 -0.3577  0.8953 -0.0020
 8178TIP3    H145949   0.866   1.585  13.533 -0.8033 -1.1883 -0.0512
 8178TIP3    H245950   0.804   1.587  13.395 -1.5603 -2.3080  0.2575
 8179TIP3   OH245951   0.321   0.542  16.312  0.3277 -0.0282 -0.0465
 8179TIP3    H145952   0.373   0.463  16.326 -0.3747 -0.2769  1.3712
 8179TIP3    H245953   0.348   0.601  16.383  0.7540  0.9599 -1.0128
 8180TIP3   OH245954   0.573   5.079   5.908 -0.1556  0.0089  0.4251
 8180TIP3    H145955   0.623   4.998   5.896  0.4256  0.4343 -0.0420
 8180TIP3    H245956   0.616   5.143   5.851  0.7858  1.2576  2.4089
 8181TIP3   OH245957   6.608   4.110   1.339 -0.5083 -0.2030 -0.4709
 8181TIP3    H145958   6.621   4.055   1.416 -1.2177  0.9238  0.4944
 8181TIP3    H245959   6.637   4.056   1.265  1.7268 -0.7394  0.7087
 8182TIP3   OH245960   3.882   0.706  12.918 -0.0765 -0.4132 -0.7385
 8182TIP3    H145961   3.918   0.645  12.854 -0.7057 -0.6009 -0.9144
 8182TIP3    H245962   3.954   0.720  12.980 -0.4170 -2.6411  0.2692
 8183TIP3   OH245963   1.174   5.160  14.429 -0.0179  0.1974  0.2091
 8183TIP3    H145964   1.095   5.155  14.482  0.0761 -0.4052  0.3076
 8183TIP3    H245965   1.160   5.096  14.359  0.0435  0.6721 -0.2450
 8184TIP3   OH245966   1.441   5.024   2.629 -0.7356  0.4671 -0.6640
 8184TIP3    H145967   1.497   5.101   2.623  3.4982 -2.1207  1.1513
 8184TIP3    H245968   1.478   4.962   2.567 -1.7863 -1.3354  0.4098
 8185TIP3   OH245969   4.717   4.737   0.301 -0.4922 -0.3139  0.0942
 8185TIP3    H145970   4.722   4.653   0.255 -1.4681 -1.5974  2.1679
 8185TIP3    H245971   4.794   4.738   0.357 -0.2559  0.3993 -0.2339
 8186TIP3   OH245972   4.570   3.668   3.966 -0.3191 -0.2065 -0.7010
 8186TIP3    H145973   4.522   3.634   4.042 -0.2412  1.8402  0.3423
 8186TIP3    H245974   4.561   3.599   3.899 -1.3629 -1.5758  0.7639
 8187TIP3   OH245975   2.094   5.547   0.262 -0.2342  0.3616 -0.0713
 8187TIP3    H145976   2.050   5.575   0.182 -0.5124  0.2940  0.0593
 8187TIP3    H245977   2.085   5.621   0.322 -3.7297 -1.0581  1.4178
 8188TIP3   OH245978   5.367   4.726   3.715  0.5058  0.0196  0.6563
 8188TIP3    H145979   5.301   4.795   3.730  0.2807 -0.4995  2.2972
 8188TIP3    H245980   5.451   4.772   3.723  0.3514  0.3105  0.6496
 8189TIP3   OH245981   5.974   5.439   3.505 -0.2783 -0.6726  0.4601
 8189TIP3    H145982   5.913   5.447   3.432  0.7790  0.0971 -0.3653
 8189TIP3    H245983   5.918   5.435   3.582 -1.4015  2.8078  0.0048
 8190TIP3   OH245984   4.207   0.960  12.097  0.3172 -0.8453 -0.5396
 8190TIP3    H145985   4.224   0.939  12.189  1.4848  1.9398 -0.0170
 8190TIP3    H245986   4.114   0.979  12.094 -0.1449 -2.8473 -0.4129
 8191TIP3   OH245987   5.513   4.211  12.072  0.4747 -0.4431 -0.0429
 8191TIP3    H145988   5.506   4.240  12.163 -0.6975  1.0837 -0.5762
 8191TIP3    H245989   5.475   4.123  12.072  0.8100 -0.5993  1.0028
 8192TIP3   OH245990   4.291   5.620   4.704 -0.3126  0.1148  0.4385
 8192TIP3    H145991   4.221   5.576   4.656 -1.2235  0.6053  1.2899
 8192TIP3    H245992   4.334   5.550   4.753  0.5193 -0.3643 -0.9411
 8193TIP3   OH245993   5.785   0.201  16.032 -0.1720 -0.4071  0.1030
 8193TIP3    H145994   5.787   0.196  15.936  1.5248  0.2871  0.0585
 8193TIP3    H245995   5.698   0.233  16.053 -0.1627  0.6379 -1.2996
 8194TIP3   OH245996   5.219   0.705   1.659 -0.3515  0.0379  0.1621
 8194TIP3    H145997   5.215   0.789   1.613  0.2131 -0.1452 -0.2218
 8194TIP3    H245998   5.304   0.668   1.635 -0.6195 -0.6712  0.2864
 8195TIP3   OH245999   6.379   6.699  11.074 -0.1738 -0.6231 -0.0795
 8195TIP3    H146000   6.405   6.633  11.139 -1.2028 -0.5939  0.3973
 8195TIP3    H246001   6.386   6.782  11.120 -4.8505 -0.8191  1.5758
 8196TIP3   OH246002   1.632   5.918   5.817  0.6503  0.3258 -0.1598
 8196TIP3    H146003   1.652   5.885   5.905 -0.1558  0.4458  0.0759
 8196TIP3    H246004   1.633   5.840   5.762 -0.7277 -0.0494  0.3036
 8197TIP3   OH246005   1.741   5.619   1.265 -0.4274  0.4227  0.2579
 8197TIP3    H146006   1.825   5.659   1.285  0.4529 -1.0889 -0.2739
 8197TIP3    H246007   1.737   5.618   1.169 -0.9440  0.2573  0.2763
 8198TIP3   OH246008   3.808   4.787   2.290 -0.1452  0.4154 -0.3340
 8198TIP3    H146009   3.720   4.755   2.306 -0.2875 -0.0415 -1.9523
 8198TIP3    H246010   3.856   4.766   2.371 -1.6828  1.4000  0.8896
 8199TIP3   OH246011   1.275   3.486  11.788 -0.1616 -0.2494 -0.5427
 8199TIP3    H146012   1.349   3.426  11.776 -0.7948 -0.9338 -1.1479
 8199TIP3    H246013   1.199   3.436  11.759 -0.7916  0.6344 -0.4515
 8200TIP3   OH246014   3.556   0.145  12.931  0.2170 -0.3644  0.2182
 8200TIP3    H146015   3.560   0.127  13.025  0.6291  0.0110  0.2740
 8200TIP3    H246016   3.580   0.237  12.923  1.7333 -0.7809 -0.3870
 8201TIP3   OH246017   4.192   2.932  15.948 -0.1851 -0.1029 -0.0705
 8201TIP3    H146018   4.263   2.936  16.012  0.6466  0.1032 -0.9923
 8201TIP3    H246019   4.156   3.020  15.947  0.6656  0.2508 -0.8337
 8202TIP3   OH246020   5.322   6.580   4.472 -0.0451 -0.0470 -0.1985
 8202TIP3    H146021   5.335   6.637   4.548 -0.4188  0.5536 -0.5739
 8202TIP3    H246022   5.243   6.529   4.495  0.7599 -1.0267  0.4888
 8203TIP3   OH246023   5.667   5.164   1.368  0.1480  0.0015 -0.1260
 8203TIP3    H146024   5.607   5.215   1.313  1.0400  0.0925 -1.0596
 8203TIP3    H246025   5.663   5.076   1.332  0.4731 -0.0202 -0.1103
 8204TIP3   OH246026   5.432   0.010  13.293  0.4401 -0.1435  0.4308
 8204TIP3    H146027   5.345  -0.031  13.298  1.0310 -1.3880  1.0325
 8204TIP3    H246028   5.419   0.098  13.328 -0.6345 -0.2061  0.2357
 8205TIP3   OH246029   6.330   0.125  15.362 -0.2742 -0.2648  0.7573
 8205TIP3    H146030   6.279   0.078  15.428  1.0530 -0.9206  1.3413
 8205TIP3    H246031   6.352   0.208  15.405  0.4710 -0.6338  1.1029
 8206TIP3   OH246032   0.245   5.332   1.761 -0.3252 -0.2176 -0.5375
 8206TIP3    H146033   0.212   5.413   1.722  2.7635  0.1071 -2.9247
 8206TIP3    H246034   0.183   5.265   1.734 -1.8036  1.0094 -0.3363
 8207TIP3   OH246035   1.303   1.553   0.961 -0.1841 -0.2365 -0.7844
 8207TIP3    H146036   1.397   1.556   0.942 -0.0177 -0.5156 -0.0432
 8207TIP3    H246037   1.277   1.463   0.941 -0.1747 -0.3114 -0.4637
 8208TIP3   OH246038   5.312   5.449   5.408 -0.3573 -0.2433 -0.0904
 8208TIP3    H146039   5.299   5.467   5.501  1.1128  0.1751  0.0666
 8208TIP3    H246040   5.327   5.354   5.404 -1.8121 -0.4840 -0.0933
 8209TIP3   OH246041   0.234   4.103   3.273  0.1240 -0.8719  0.2046
 8209TIP3    H146042   0.165   4.074   3.333 -1.3692 -1.1930 -1.5687
 8209TIP3    H246043   0.237   4.036   3.206  1.5433 -0.3768 -0.2652
 8210TIP3   OH246044   6.381   5.539   0.591 -0.4695  0.3625 -0.1540
 8210TIP3    H146045   6.298   5.502   0.620  0.1209 -0.5834  0.3592
 8210TIP3    H246046   6.383   5.627   0.630 -0.6778 -0.0717  0.8694
 8211TIP3   OH246047   1.262   5.881   4.252  0.6050  0.6905  0.0228
 8211TIP3    H146048   1.209   5.959   4.237 -0.7742 -0.4689 -1.3525
 8211TIP3    H246049   1.279   5.845   4.165 -0.1420 -1.3963  0.6727
 8212TIP3   OH246050   5.891   5.349   1.031  0.3592  0.5247  0.1444
 8212TIP3    H146051   5.952   5.421   1.017  1.1785 -0.4446 -1.6525
 8212TIP3    H246052   5.926   5.278   0.977 -1.0819 -0.8247  0.9189
 8213TIP3   OH246053   0.259   4.343  16.983 -0.0554  0.6960  0.5192
 8213TIP3    H146054   0.224   4.405  16.919  0.0384  0.1660 -0.0636
 8213TIP3    H246055   0.344   4.317  16.947 -1.5593 -2.4595 -1.1615
 8214TIP3   OH246056   1.937   1.965  14.085  0.1707  0.0633 -0.3370
 8214TIP3    H146057   1.865   1.994  14.141  0.1387 -0.1178 -0.2838
 8214TIP3    H246058   1.943   1.871  14.100  0.6070  0.1218 -0.1263
 8215TIP3   OH246059   5.293   5.967   5.312 -0.3966 -0.5062 -0.9562
 8215TIP3    H146060   5.268   6.037   5.373 -0.2285 -1.9537  0.8557
 8215TIP3    H246061   5.224   5.967   5.246 -1.5578 -0.0447  0.2132
 8216TIP3   OH246062   3.080   1.671   3.348  0.5440 -0.6636  0.5196
 8216TIP3    H146063   2.990   1.662   3.380 -0.0135  0.2131 -0.6960
 8216TIP3    H246064   3.125   1.721   3.416  0.0116 -0.7857  0.9702
 8217TIP3   OH246065   5.436   5.202  14.415  0.9266  0.1774 -0.1214
 8217TIP3    H146066   5.453   5.132  14.478  1.2315 -1.9830 -2.4946
 8217TIP3    H246067   5.523   5.228  14.384  0.7193  0.2702 -0.6338
 8218TIP3   OH246068   2.451   4.959   4.551 -0.1398 -0.2588 -0.5403
 8218TIP3    H146069   2.428   4.906   4.628  1.3134 -1.1514 -0.6682
 8218TIP3    H246070   2.523   5.014   4.581 -1.2675  1.3022 -0.5730
 8219TIP3   OH246071   3.250   1.266  14.761 -0.1006  0.1802  0.4391
 8219TIP3    H146072   3.292   1.253  14.676 -0.1605  1.9544  0.0957
 8219TIP3    H246073   3.183   1.332  14.745  0.7273  1.5072  2.0910
 8220TIP3   OH246074   3.398   6.576  11.147 -0.4116 -0.8302 -0.0176
 8220TIP3    H146075   3.465   6.556  11.212  0.3792  0.9893 -0.2046
 8220TIP3    H246076   3.447   6.586  11.065 -0.6319  1.9629  0.1106
 8221TIP3   OH246077   1.140   3.397   1.510 -0.2537 -0.5120 -0.1381
 8221TIP3    H146078   1.186   3.433   1.434  0.1207 -2.4861 -0.8928
 8221TIP3    H246079   1.050   3.429   1.501 -0.5521 -1.7167 -2.1700
 8222TIP3   OH246080   3.341   2.753   0.761 -0.3267  0.1751 -0.0927
 8222TIP3    H146081   3.340   2.670   0.809  0.0408  0.3219  0.1666
 8222TIP3    H246082   3.299   2.816   0.820  1.9329  0.8265  0.9014
 8223TIP3   OH246083   2.285   6.635   3.269 -0.0520  0.1589  0.4512
 8223TIP3    H146084   2.248   6.660   3.354  0.1101  1.1485  0.2412
 8223TIP3    H246085   2.293   6.717   3.221 -2.6667 -0.6279 -1.5766
 8224TIP3   OH246086   2.649   0.136  15.143 -0.3750  0.1330  0.0455
 8224TIP3    H146087   2.573   0.113  15.089  1.0252 -2.0380 -1.1545
 8224TIP3    H246088   2.683   0.217  15.103 -0.5451 -0.3264 -1.0811
 8225TIP3   OH246089   5.701   4.577  14.238  0.0290 -0.5092  0.5509
 8225TIP3    H146090   5.718   4.496  14.190  0.0677 -0.0696 -0.1892
 8225TIP3    H246091   5.606   4.581  14.247 -0.3286  1.0336 -2.4664
 8226TIP3   OH246092   1.479   0.435   2.111  0.0325 -0.3977 -0.3604
 8226TIP3    H146093   1.536   0.445   2.187  0.0049 -1.5171 -0.1749
 8226TIP3    H246094   1.392   0.457   2.143  0.3157  1.1956 -0.6137
 8227TIP3   OH246095   1.055   2.764   2.630  0.0822  0.1046  0.2476
 8227TIP3    H146096   0.960   2.755   2.639 -0.1115  0.4022 -1.3062
 8227TIP3    H246097   1.091   2.704   2.696 -1.1745 -0.1814  0.6970
 8228TIP3   OH246098   3.569   6.780   3.805 -0.4955 -0.4875  0.1860
 8228TIP3    H146099   3.576   6.696   3.760  2.2970  0.1381 -0.7250
 8228TIP3    H246100   3.541   6.758   3.894  0.9154 -2.4665  0.1847
 8229TIP3   OH246101   2.203   2.805   4.186 -0.3241 -0.1138 -0.0366
 8229TIP3    H146102   2.258   2.728   4.202  0.7635  0.6732  0.1760
 8229TIP3    H246103   2.245   2.875   4.237 -1.1781  0.6574 -0.3729
 8230TIP3   OH246104   1.907   2.870   2.709  0.4414 -0.4802 -0.0592
 8230TIP3    H146105   1.956   2.792   2.737 -0.0943 -1.3576 -1.4394
 8230TIP3    H246106   1.886   2.915   2.791  1.2008 -1.5192  0.7504
 8231TIP3   OH246107   4.307   6.102  16.184 -0.1265 -0.2908 -0.1909
 8231TIP3    H146108   4.244   6.032  16.167  0.4845 -0.3953 -2.3981
 8231TIP3    H246109   4.378   6.086  16.120  1.4256  0.6687  1.2132
 8232TIP3   OH246110   0.876   5.108  14.014 -0.0043 -0.6750  0.1218
 8232TIP3    H146111   0.954   5.110  13.958 -1.1241  0.9236 -1.4916
 8232TIP3    H246112   0.894   5.039  14.077  2.9763  0.0199  0.1985
 8233TIP3   OH246113   3.656   4.129  16.344 -0.0260  0.0705 -0.1158
 8233TIP3    H146114   3.624   4.038  16.345 -0.7444  0.3272  0.1877
 8233TIP3    H246115   3.731   4.126  16.284  0.5848 -0.9305  0.6542
 8234TIP3   OH246116   6.700   0.980   3.148 -0.2743  0.0567  0.5726
 8234TIP3    H146117   6.760   1.035   3.199  0.8621 -0.0215 -0.6044
 8234TIP3    H246118   6.716   1.005   3.057 -0.2916 -1.6538  0.0560
 8235TIP3   OH246119   5.489   0.108  12.669 -0.1602  0.0303  0.9013
 8235TIP3    H146120   5.581   0.082  12.674  0.1727  0.7762 -0.7568
 8235TIP3    H246121   5.489   0.202  12.687 -0.2731  0.4897 -1.2197
 8236TIP3   OH246122   2.870   5.806   4.740 -0.0100 -0.0341 -0.2191
 8236TIP3    H146123   2.811   5.871   4.778 -0.4425 -0.6398  0.1672
 8236TIP3    H246124   2.956   5.849   4.740 -0.2720  0.5063  0.1058
 8237TIP3   OH246125   2.368   0.103   3.177 -0.2708  0.6605 -0.2750
 8237TIP3    H146126   2.438   0.166   3.160  0.1671 -0.2531 -2.1130
 8237TIP3    H246127   2.307   0.115   3.103 -1.0003  0.0352  0.2118
 8238TIP3   OH246128   3.227   0.831   3.696 -0.5409  0.0910  0.3662
 8238TIP3    H146129   3.182   0.750   3.721  0.7685 -0.6639  0.3871
 8238TIP3    H246130   3.319   0.816   3.720 -0.1375  1.2938 -0.3138
 8239TIP3   OH246131   0.930   5.615   1.927  0.1260  0.3574  0.1508
 8239TIP3    H146132   0.988   5.626   2.002 -0.7013  0.6317  0.7633
 8239TIP3    H246133   0.989   5.606   1.852  0.9573  0.3534  0.7926
 8240TIP3   OH246134   0.184   6.706  14.192  0.4620  0.4750 -0.4687
 8240TIP3    H146135   0.221   6.749  14.268 -3.1347  3.1639 -0.0095
 8240TIP3    H246136   0.152   6.622  14.225  1.2408  0.4717  0.3154
 8241TIP3   OH246137   4.475   0.823   1.952  0.0677 -0.0415  0.6724
 8241TIP3    H146138   4.412   0.802   1.882 -0.1048  2.1601  0.1119
 8241TIP3    H246139   4.555   0.777   1.925 -0.6850 -1.2111  0.3279
 8242TIP3   OH246140   1.618   4.884  13.981 -0.0280  0.1859  0.0611
 8242TIP3    H146141   1.560   4.884  14.057  0.1873 -0.6214  0.2374
 8242TIP3    H246142   1.704   4.906  14.016  0.3787 -1.6400  0.3314
 8243TIP3   OH246143   2.193   4.164  17.198  0.1451  0.1790 -0.2190
 8243TIP3    H146144   2.273   4.208  17.170 -1.0071  1.2575 -2.0134
 8243TIP3    H246145   2.206   4.072  17.176  0.8599  0.3622 -0.5611
 8244TIP3   OH246146   5.983   1.618   1.273 -0.2346  0.0378  0.4499
 8244TIP3    H146147   5.933   1.664   1.205 -0.3174 -0.4865  0.1482
 8244TIP3    H246148   5.963   1.525   1.258 -1.3336 -0.0303  2.0236
 8245TIP3   OH246149   6.339   5.046  15.256 -0.3606 -0.1364  0.2666
 8245TIP3    H146150   6.372   5.131  15.226 -1.2381 -0.1460 -0.7924
 8245TIP3    H246151   6.401   4.982  15.219  0.1336  0.0098  0.8207
 8246TIP3   OH246152   2.340   4.802  14.172  0.5367 -0.2448 -0.4466
 8246TIP3    H146153   2.326   4.712  14.199 -1.3689 -0.5296 -2.1671
 8246TIP3    H246154   2.391   4.841  14.244 -2.5963 -1.3907  2.6754
 8247TIP3   OH246155   3.768   1.225  15.780 -0.5066  0.1365 -0.3158
 8247TIP3    H146156   3.849   1.233  15.729  0.3472 -2.0637  0.5273
 8247TIP3    H246157   3.797   1.183  15.862 -1.9505  2.6711  1.6357
 8248TIP3   OH246158   3.499   1.637  16.111 -0.6236  0.2754  0.0989
 8248TIP3    H146159   3.569   1.661  16.171 -1.3558 -2.0760  2.0773
 8248TIP3    H246160   3.544   1.617  16.029  0.7369  0.9812  0.6295
 8249TIP3   OH246161   0.005   4.201   1.800 -0.1763 -0.2706 -0.0894
 8249TIP3    H146162  -0.071   4.145   1.817  0.7967 -1.3309  0.9273
 8249TIP3    H246163  -0.024   4.260   1.730 -1.7417 -1.0154 -0.1146
 8250TIP3   OH246164   1.181   4.185  10.718 -0.9112 -0.9951  0.6169
 8250TIP3    H146165   1.164   4.154  10.628 -0.0310 -1.5848  0.6354
 8250TIP3    H246166   1.100   4.230  10.743 -1.1021 -0.6418 -0.5433
 8251TIP3   OH246167   3.085   4.844  10.689 -0.0104 -0.2982 -0.1685
 8251TIP3    H146168   3.091   4.878  10.778 -0.6594 -1.5971  0.4005
 8251TIP3    H246169   2.994   4.859  10.663 -0.4490 -1.9485  0.2802
 8252TIP3   OH246170   5.569   1.683   1.131  0.3893  0.2498  0.0384
 8252TIP3    H146171   5.489   1.633   1.114  0.4543 -0.0817  0.7160
 8252TIP3    H246172   5.560   1.713   1.221  1.4906 -0.6406  0.4686
 8253TIP3   OH246173   2.327   5.237   2.498  0.3299  0.2790  0.5599
 8253TIP3    H146174   2.287   5.189   2.425 -0.5106 -0.0793  1.2367
 8253TIP3    H246175   2.306   5.185   2.575  0.8044  0.9042  1.1230
 8254TIP3   OH246176   0.799   5.444   2.405 -0.2810  0.0939  0.0351
 8254TIP3    H146177   0.790   5.376   2.471  0.0004 -0.4328 -0.4598
 8254TIP3    H246178   0.713   5.447   2.362 -0.3721  0.2338  0.2235
 8255TIP3   OH246179   5.375   5.003  15.324  0.5620  0.1718 -0.4058
 8255TIP3    H146180   5.310   4.955  15.271 -0.2877  0.1917  0.5719
 8255TIP3    H246181   5.330   5.020  15.407  0.9468  2.3861 -0.5834
 8256TIP3   OH246182   1.033   6.464   2.414 -0.2798  0.4757 -0.4674
 8256TIP3    H146183   0.948   6.444   2.376 -0.6420  1.6252 -0.3096
 8256TIP3    H246184   1.040   6.405   2.489 -1.6949  1.5042  0.5217
 8257TIP3   OH246185   1.413   5.069   0.456  0.2680  0.2519  0.1043
 8257TIP3    H146186   1.437   4.984   0.419  1.9226  0.0338  1.5668
 8257TIP3    H246187   1.429   5.060   0.550 -1.7911  1.4476  0.6273
 8258TIP3   OH246188   1.952   2.993   4.907  0.0551 -0.0089 -0.4125
 8258TIP3    H146189   1.856   2.986   4.914  0.1831 -1.9880 -0.2649
 8258TIP3    H246190   1.985   2.910   4.939  1.7744  0.0899 -1.7905
 8259TIP3   OH246191   0.694   4.832   2.599  0.0814  0.0310  0.0367
 8259TIP3    H146192   0.673   4.917   2.561  1.5093 -0.2965 -1.6219
 8259TIP3    H246193   0.688   4.845   2.693  2.1861  2.5158 -0.0751
 8260TIP3   OH246194   0.832   0.751   2.221 -0.1524  0.0934  0.4419
 8260TIP3    H146195   0.791   0.803   2.152 -0.3007  0.1356  0.5598
 8260TIP3    H246196   0.911   0.801   2.245 -0.2964  0.2695  0.5570
 8261TIP3   OH246197   0.986   2.770   5.262  0.2329  0.5317  0.6141
 8261TIP3    H146198   0.993   2.770   5.167 -0.3229  1.6612  0.5594
 8261TIP3    H246199   0.902   2.811   5.280  0.5526  0.7808  1.6130
 8262TIP3   OH246200   1.075   3.708  11.639 -0.3131 -0.4423  0.3040
 8262TIP3    H146201   1.093   3.700  11.546 -0.0590 -0.1223  0.3240
 8262TIP3    H246202   1.156   3.678  11.682  0.6705  2.0988  0.3868
 8263TIP3   OH246203   4.135   5.357   6.483  0.5551 -0.7639  0.1094
 8263TIP3    H146204   4.070   5.291   6.459 -0.0506 -0.3935  0.6948
 8263TIP3    H246205   4.085   5.439   6.488  1.3571 -0.1803 -0.9621
 8264TIP3   OH246206   3.973   6.007   2.751  0.1905 -0.3188 -0.1395
 8264TIP3    H146207   4.031   6.004   2.675 -0.3626  0.5382 -0.6106
 8264TIP3    H246208   3.938   5.918   2.758 -0.8786 -0.0751 -1.8062
 8265TIP3   OH246209   1.437   0.327   1.233 -0.2148  0.0183  0.2377
 8265TIP3    H146210   1.478   0.243   1.211 -0.1009  0.5299 -1.6944
 8265TIP3    H246211   1.503   0.372   1.285  0.2985 -0.5344  0.0855
 8266TIP3   OH246212   0.253   4.321   4.842 -0.5188 -0.2446  0.6186
 8266TIP3    H146213   0.192   4.392   4.859 -1.3062 -0.4514 -1.0812
 8266TIP3    H246214   0.339   4.355   4.869 -0.9546  1.1565  0.3199
 8267TIP3   OH246215   4.407   0.497   1.236  0.4281 -0.0843 -0.2444
 8267TIP3    H146216   4.450   0.565   1.288  1.5289 -1.0409  0.1390
 8267TIP3    H246217   4.378   0.432   1.300 -0.4206 -0.1047 -0.6305
 8268TIP3   OH246218   3.596   5.271   0.265 -0.6174 -0.0397 -0.4652
 8268TIP3    H146219   3.571   5.316   0.345  0.8360  1.1556 -0.6277
 8268TIP3    H246220   3.532   5.301   0.200 -1.0006  0.0473 -0.0485
 8269TIP3   OH246221   3.235   4.208  13.617  0.4385 -0.1787  0.1214
 8269TIP3    H146222   3.193   4.252  13.543  1.5827 -1.8101 -1.6193
 8269TIP3    H246223   3.329   4.225  13.604  0.7681 -1.6937  0.3069
 8270TIP3   OH246224   3.578   1.143  16.060 -0.4548  0.1296  0.4508
 8270TIP3    H146225   3.610   1.166  16.147  0.5419  0.9092 -0.1004
 8270TIP3    H246226   3.563   1.228  16.017  2.2007 -0.1563 -1.2515
 8271TIP3   OH246227   2.129   6.586  13.407  0.8231  0.2644 -0.0525
 8271TIP3    H146228   2.170   6.673  13.402  0.4624  0.5163  1.0981
 8271TIP3    H246229   2.200   6.528  13.435  0.7361  0.4445  0.5483
 8272TIP3   OH246230   4.404   2.890   4.863 -0.0936 -0.6152  0.2528
 8272TIP3    H146231   4.320   2.913   4.904  1.0669  1.0389  1.8613
 8272TIP3    H246232   4.422   2.961   4.802  0.2594 -0.8373  0.0972
 8273TIP3   OH246233   0.362   2.107  13.376 -0.5129  0.0649 -0.4898
 8273TIP3    H146234   0.357   2.086  13.283 -0.8213 -0.4126 -0.3714
 8273TIP3    H246235   0.272   2.101  13.407 -0.7245  2.1824 -0.5538
 8274TIP3   OH246236   2.228   0.168  12.985 -0.1368  0.1248 -0.0807
 8274TIP3    H146237   2.278   0.156  13.065  0.3183  0.0542 -0.3696
 8274TIP3    H246238   2.272   0.112  12.921  0.6978  1.6461 -0.8852
 8275TIP3   OH246239   0.546   1.448  11.933  0.0683  0.1905  0.3934
 8275TIP3    H146240   0.471   1.502  11.911 -0.2613 -0.1097  0.7668
 8275TIP3    H246241   0.600   1.503  11.990  0.6842  0.7965 -0.7420
 8276TIP3   OH246242   0.072   3.667   3.530 -0.2448  0.0691  1.1982
 8276TIP3    H146243   0.035   3.633   3.611 -0.3719  0.9466  1.5226
 8276TIP3    H246244   0.090   3.760   3.549  0.9384 -0.0229  0.6547
 8277TIP3   OH246245   4.124   3.292   2.541 -0.6712  0.0743  0.2641
 8277TIP3    H146246   4.105   3.322   2.452  0.2424  0.7992  0.3047
 8277TIP3    H246247   4.219   3.298   2.549 -0.5522 -1.6888  0.6990
 8278TIP3   OH246248   3.436   1.806   2.483  0.5378 -0.4051  0.2991
 8278TIP3    H146249   3.378   1.828   2.410 -1.0322 -1.8581  1.0349
 8278TIP3    H246250   3.489   1.734   2.450  1.6442  0.5924 -0.2014
 8279TIP3   OH246251   1.389   1.088  17.007  0.0221 -0.3231  0.1597
 8279TIP3    H146252   1.466   1.035  17.029  0.5918  1.0921  1.6866
 8279TIP3    H246253   1.341   1.033  16.944  0.4952 -2.7284  1.7389
 8280TIP3   OH246254   0.498   3.587   6.418 -0.1215  0.0633  0.0972
 8280TIP3    H146255   0.546   3.507   6.440 -0.8448 -0.6062 -0.6902
 8280TIP3    H246256   0.439   3.561   6.347  1.1813  1.7854 -1.7537
 8281TIP3   OH246257   4.223   2.389  14.993 -0.7770  0.4470 -0.1829
 8281TIP3    H146258   4.310   2.428  14.993 -0.7739  0.4420 -0.3280
 8281TIP3    H246259   4.203   2.373  15.085  0.5711 -2.1621 -0.2397
 8282TIP3   OH246260   1.049   3.742   2.058  0.1052 -0.8059 -0.0672
 8282TIP3    H146261   1.053   3.715   2.150  1.3547  0.0544  0.1635
 8282TIP3    H246262   1.140   3.754   2.032 -0.2415 -0.6754 -1.3202
 8283TIP3   OH246263   3.855   1.493   2.773 -0.4381 -0.0691 -0.2412
 8283TIP3    H146264   3.887   1.579   2.799 -0.3328  0.2077 -1.2282
 8283TIP3    H246265   3.848   1.498   2.677  0.4826 -1.4545 -0.4211
 8284TIP3   OH246266   2.337   1.979   5.497 -0.0351 -0.2233  0.1301
 8284TIP3    H146267   2.279   2.048   5.528  0.3535 -0.2140  0.8554
 8284TIP3    H246268   2.315   1.970   5.404 -0.5121  0.4504  0.1650
 8285TIP3   OH246269   4.271   4.183   3.510 -0.0384  0.0390 -0.2965
 8285TIP3    H146270   4.254   4.095   3.543 -0.6251 -0.0547 -0.8274
 8285TIP3    H246271   4.192   4.207   3.462  0.7701  0.1672 -1.6334
 8286TIP3   OH246272   6.758   4.532  12.681 -0.1890  0.3278  0.3732
 8286TIP3    H146273   6.672   4.537  12.638  1.3593 -2.2067 -3.5876
 8286TIP3    H246274   6.820   4.553  12.611  2.5834 -2.9412  1.6306
 8287TIP3   OH246275   2.434   3.680   0.138 -0.1325 -0.2166 -0.0421
 8287TIP3    H146276   2.395   3.681   0.051 -0.5123  0.7944  0.1260
 8287TIP3    H246277   2.455   3.771   0.156 -0.9719 -0.2587  1.3105
 8288TIP3   OH246278   2.355   3.473   4.098 -1.0665  0.1453 -0.2838
 8288TIP3    H146279   2.445   3.495   4.076 -0.9944  0.3301  0.1923
 8288TIP3    H246280   2.314   3.452   4.014  0.0213 -2.2710 -0.2646
 8289TIP3   OH246281   0.686   0.241  14.723  0.1655 -0.5933  0.1619
 8289TIP3    H146282   0.596   0.211  14.710  0.5156 -0.9961 -1.5778
 8289TIP3    H246283   0.719   0.258  14.635  1.3235  1.0034  0.8522
 8290TIP3   OH246284   0.910   2.102   3.593  0.1369 -0.1902 -0.2089
 8290TIP3    H146285   0.861   2.063   3.520  0.2943  0.6986 -0.8072
 8290TIP3    H246286   0.999   2.110   3.561  0.0913  0.7453 -0.1515
 8291TIP3   OH246287   0.068   2.388  13.997  0.1859  0.1309  0.1717
 8291TIP3    H146288   0.162   2.387  13.982 -0.0397  0.2546 -1.3799
 8291TIP3    H246289   0.040   2.298  13.981  0.0322  0.1020  0.5887
 8292TIP3   OH246290   0.968   2.998  11.098  0.3703 -0.0557 -0.1198
 8292TIP3    H146291   0.923   2.916  11.117 -2.4431  1.6155  1.0788
 8292TIP3    H246292   1.013   2.982  11.015  0.5867 -3.0002  0.4662
 8293TIP3   OH246293   4.686   1.923   5.380  0.2230  0.0577  0.5097
 8293TIP3    H146294   4.716   1.985   5.314 -1.7427  1.9256  1.2380
 8293TIP3    H246295   4.743   1.938   5.455  0.1371  0.6189  0.4720
 8294TIP3   OH246296   1.397   1.842  15.909 -0.0312 -0.1867 -0.4562
 8294TIP3    H146297   1.463   1.784  15.948 -1.4570 -2.2546 -0.9602
 8294TIP3    H246298   1.439   1.875  15.829  1.2051  0.3963  0.4075
 8295TIP3   OH246299   2.468   5.917  12.728 -0.0206  0.0445 -0.1304
 8295TIP3    H146300   2.430   5.834  12.698 -1.4810  0.3054  0.8903
 8295TIP3    H246301   2.402   5.983  12.706  0.4287  0.7195  0.4837
 8296TIP3   OH246302   5.558   3.907  14.929 -1.2103 -0.3212  0.4057
 8296TIP3    H146303   5.481   3.902  14.986 -1.8505 -2.1124 -0.5446
 8296TIP3    H246304   5.566   3.819  14.891  1.6752 -0.3780  0.9276
 8297TIP3   OH246305   4.564   2.235   5.254  0.3644 -0.3320 -0.5462
 8297TIP3    H146306   4.595   2.155   5.211  1.5977  0.1036 -0.5057
 8297TIP3    H246307   4.508   2.276   5.188 -1.1234 -1.7024 -0.2033
 8298TIP3   OH246308   5.292   1.161   1.547 -0.5624 -0.1022 -0.1406
 8298TIP3    H146309   5.266   1.200   1.463 -1.0890 -1.5045 -0.6641
 8298TIP3    H246310   5.375   1.118   1.528  0.0672  0.8225  0.4580
 8299TIP3   OH246311   5.425   5.284   5.845  0.3399  0.3585 -0.2242
 8299TIP3    H146312   5.479   5.306   5.921 -0.3984  0.8473  0.1699
 8299TIP3    H246313   5.404   5.192   5.856 -1.1539  0.8224  1.0736
 8300TIP3   OH246314   2.355   1.367  13.442 -0.2328  0.7563  0.0680
 8300TIP3    H146315   2.396   1.340  13.360 -2.2593 -0.6513 -0.5440
 8300TIP3    H246316   2.389   1.455  13.458  3.1983 -0.3875 -0.1802
 8301TIP3   OH246317   0.647   5.253  12.372 -0.2237  1.0912 -0.1766
 8301TIP3    H146318   0.728   5.230  12.327  0.6207  0.6401  1.4836
 8301TIP3    H246319   0.666   5.337  12.414 -0.1569  0.3684  1.2750
 8302TIP3   OH246320   6.364   5.078  14.491  0.4159 -0.4926 -0.3428
 8302TIP3    H146321   6.428   5.136  14.449 -1.0523  2.0216  0.6349
 8302TIP3    H246322   6.280   5.122  14.478 -0.8144 -2.4756  0.4398
 8303TIP3   OH246323   5.474   4.641   5.772  0.1768 -0.3296  0.3475
 8303TIP3    H146324   5.543   4.687   5.820  0.4215  0.6032 -0.8504
 8303TIP3    H246325   5.398   4.699   5.780  0.7841  0.9218 -2.0984
 8304TIP3   OH246326   5.780   1.793  15.299 -0.1643  0.5128  0.0114
 8304TIP3    H146327   5.753   1.786  15.208 -1.3147  0.2897  0.3625
 8304TIP3    H246328   5.776   1.887  15.319  1.4165  0.7281 -0.5432
 8305TIP3   OH246329   1.292   0.326   2.867 -0.2828 -0.1873 -0.3314
 8305TIP3    H146330   1.316   0.248   2.816 -1.0105 -0.3817 -0.3873
 8305TIP3    H246331   1.269   0.391   2.801  3.5405  1.2730 -0.4917
 8306TIP3   OH246332   1.969   6.372  12.343 -0.6213  0.0542 -0.6800
 8306TIP3    H146333   1.880   6.337  12.336 -1.3807  1.8045 -0.3681
 8306TIP3    H246334   2.003   6.334  12.424 -0.9898 -0.8320 -0.9326
 8307TIP3   OH246335   2.967   3.537   1.951 -0.1596  0.4262  0.5128
 8307TIP3    H146336   2.922   3.459   1.986  0.6812  0.0733  0.8207
 8307TIP3    H246337   3.038   3.553   2.012 -0.6921  1.8273  0.7940
 8308TIP3   OH246338   5.237   2.871   5.725  0.3365  0.2662  0.2052
 8308TIP3    H146339   5.263   2.937   5.661 -1.2119  0.0195 -0.7330
 8308TIP3    H246340   5.296   2.797   5.709  0.7833  0.6781 -0.0702
 8309TIP3   OH246341   5.916   6.113  12.156  0.5412  0.2600  0.1391
 8309TIP3    H146342   6.005   6.137  12.131  0.5506 -0.0387 -0.1131
 8309TIP3    H246343   5.865   6.125  12.076  0.4623 -0.1282  0.1286
 8310TIP3   OH246344   0.698   5.545  14.658  0.7274 -0.5678  0.3940
 8310TIP3    H146345   0.732   5.629  14.629  0.1438 -0.5118 -0.1693
 8310TIP3    H246346   0.772   5.485  14.651  0.7741 -0.4171 -0.6514
 8311TIP3   OH246347   2.658   0.816   4.136  0.2604 -0.0416 -0.1088
 8311TIP3    H146348   2.571   0.842   4.166  1.2258  0.2158  2.7459
 8311TIP3    H246349   2.689   0.755   4.203  2.2344 -0.2303 -1.1389
 8312TIP3   OH246350   1.248   4.601   3.980 -0.2430 -0.7036 -0.2427
 8312TIP3    H146351   1.162   4.563   3.994 -1.2745  1.0104 -1.5693
 8312TIP3    H246352   1.289   4.544   3.914 -1.3846 -0.1372 -1.4865
 8313TIP3   OH246353   3.545   1.579   2.131  0.3434 -0.5364 -0.1570
 8313TIP3    H146354   3.628   1.627   2.127  0.5588 -1.0024 -1.5761
 8313TIP3    H246355   3.514   1.594   2.221  1.0945  1.0816 -0.1282
 8314TIP3   OH246356   0.020   2.697   4.611  0.1580 -0.7415 -0.7658
 8314TIP3    H146357   0.087   2.646   4.656 -0.1785  0.4101  1.1668
 8314TIP3    H246358  -0.062   2.673   4.655 -0.4926 -0.9012 -1.9989
 8315TIP3   OH246359   4.719   4.181   1.722 -0.0035 -0.3751  0.3682
 8315TIP3    H146360   4.750   4.136   1.801 -2.1197 -0.7493  1.0617
 8315TIP3    H246361   4.695   4.268   1.752  0.2850 -0.1288 -0.1138
 8316TIP3   OH246362   6.406   6.283   5.575 -0.1176 -0.5962 -0.1721
 8316TIP3    H146363   6.346   6.210   5.585 -0.8784  0.1342  0.8472
 8316TIP3    H246364   6.371   6.333   5.501 -1.1346  0.1279  0.7589
 8317TIP3   OH246365   4.756   6.248  13.376 -0.2465 -0.1135  0.1176
 8317TIP3    H146366   4.767   6.319  13.313  2.3068 -0.4246  0.1236
 8317TIP3    H246367   4.671   6.209  13.354 -0.3852  1.1170 -1.7238
 8318TIP3   OH246368   4.795   4.573   3.255  0.3559 -0.4622 -1.1886
 8318TIP3    H146369   4.851   4.647   3.281 -0.8902  0.3347 -0.7036
 8318TIP3    H246370   4.752   4.602   3.175 -0.1596 -0.6436 -0.9818
 8319TIP3   OH246371   0.945   0.936  11.857  0.2486  0.0637  0.5565
 8319TIP3    H146372   0.937   0.849  11.817  1.7403 -0.6260  1.6279
 8319TIP3    H246373   0.897   0.994  11.799  0.6572 -1.2012 -1.1224
 8320TIP3   OH246374   0.576   5.144  11.631  0.1515 -0.4731 -0.7940
 8320TIP3    H146375   0.494   5.178  11.594 -1.4152 -1.4362  1.5597
 8320TIP3    H246376   0.598   5.204  11.701  1.3995 -0.3297 -1.2878
 8321TIP3   OH246377   1.066   4.376  11.946 -0.2725  0.0311  0.3043
 8321TIP3    H146378   1.140   4.333  11.989 -0.2097 -0.1801 -0.0039
 8321TIP3    H246379   0.988   4.339  11.987 -0.2795  2.7534  3.1313
 8322TIP3   OH246380   1.820   0.474  13.694  0.3535 -0.3642 -0.8108
 8322TIP3    H146381   1.783   0.550  13.648  0.3100  1.2777  1.7481
 8322TIP3    H246382   1.914   0.494  13.701  0.5803 -1.2100 -1.2621
 8323TIP3   OH246383   5.844   0.211   4.547 -0.1568 -0.1480 -0.4000
 8323TIP3    H146384   5.786   0.277   4.586  0.4618 -0.0206  0.3385
 8323TIP3    H246385   5.926   0.259   4.530  0.8474 -1.0532  1.6010
 8324TIP3   OH246386   0.099   1.345  13.949 -0.2799  0.2513  0.3396
 8324TIP3    H146387   0.041   1.414  13.918 -0.7451 -0.5166 -0.5284
 8324TIP3    H246388   0.056   1.310  14.027 -1.1463 -0.5197 -0.4748
 8325TIP3   OH246389   4.018   0.176   6.296 -0.1260  0.1702  0.4029
 8325TIP3    H146390   3.955   0.155   6.366  1.5977 -1.0304  1.6710
 8325TIP3    H246391   4.095   0.125   6.317  1.6783  2.3418 -0.5444
 8326TIP3   OH246392   0.149   1.709   0.164 -0.4061 -0.6028 -0.4999
 8326TIP3    H146393   0.244   1.699   0.171 -0.4188 -0.6047 -0.3361
 8326TIP3    H246394   0.137   1.774   0.095 -0.2899 -0.7278 -0.6388
 8327TIP3   OH246395   3.794   1.051   1.120  0.5079  0.8290 -0.0171
 8327TIP3    H146396   3.785   1.141   1.151 -0.8322 -0.2150  3.0195
 8327TIP3    H246397   3.705   1.024   1.097  0.6128 -0.2032  0.7205
 8328TIP3   OH246398   5.225   3.662   1.321  0.3179  0.1195 -0.4651
 8328TIP3    H146399   5.143   3.616   1.301 -0.4068  1.4632 -0.6815
 8328TIP3    H246400   5.215   3.688   1.413  0.7449 -0.1799 -0.3312
 8329TIP3   OH246401   6.074   5.734   0.353  0.3634  0.1177 -0.1673
 8329TIP3    H146402   6.162   5.769   0.370  0.5595 -0.4094 -0.0591
 8329TIP3    H246403   6.016   5.788   0.406  0.8149 -0.6103  1.1132
 8330TIP3   OH246404   4.175   1.074   4.991  0.7079 -0.3324 -0.6139
 8330TIP3    H146405   4.159   1.139   5.060 -0.4008 -1.2460  0.0280
 8330TIP3    H246406   4.116   1.100   4.920  0.5847 -0.3839 -0.5309
 8331TIP3   OH246407   3.761   5.151   2.478 -0.1360 -0.3370  0.1821
 8331TIP3    H146408   3.772   5.174   2.386 -1.2388  0.2084  0.1734
 8331TIP3    H246409   3.671   5.119   2.485 -0.7209  1.4013  1.3946
 8332TIP3   OH246410   3.938   0.505  12.668 -0.1219 -0.1700 -0.7406
 8332TIP3    H146411   4.002   0.576  12.667 -0.6571  0.3360 -0.2810
 8332TIP3    H246412   3.964   0.447  12.597  1.0706 -0.1787 -0.3060
 8333TIP3   OH246413   2.775   0.644   1.626 -0.2205  0.2288 -0.0175
 8333TIP3    H146414   2.700   0.596   1.590 -1.1514  0.5405  1.4289
 8333TIP3    H246415   2.756   0.736   1.608  0.9512  0.1922 -1.6610
 8334TIP3   OH246416   3.344   3.827   5.276 -0.1546 -0.1779 -0.3442
 8334TIP3    H146417   3.274   3.841   5.211  0.0969 -2.9184 -1.3348
 8334TIP3    H246418   3.301   3.841   5.360 -1.2708  0.5254 -0.9937
 8335TIP3   OH246419   1.792   1.880   3.814  0.1731 -0.2362  0.5946
 8335TIP3    H146420   1.835   1.965   3.808 -0.6167  0.0817 -0.8602
 8335TIP3    H246421   1.864   1.817   3.805  0.3127  0.2613 -3.6993
 8336TIP3   OH246422   5.364   2.931  16.028 -0.0850  0.4615 -0.0429
 8336TIP3    H146423   5.400   2.982  16.101 -0.0559  0.6207 -0.1683
 8336TIP3    H246424   5.277   2.967  16.015 -0.1280  0.3652 -0.0231
 8337TIP3   OH246425   2.136   2.210  11.318 -0.1015  0.0829 -0.3404
 8337TIP3    H146426   2.203   2.141  11.317  0.5878  0.6995  0.9744
 8337TIP3    H246427   2.153   2.258  11.398 -1.7837  0.6141 -0.2746
 8338TIP3   OH246428   2.361   3.911  11.023 -0.2048 -0.0999  0.3101
 8338TIP3    H146429   2.393   3.904  10.933 -1.6972 -0.2143 -0.2278
 8338TIP3    H246430   2.432   3.872  11.075  1.3955  1.4025 -0.6171
 8339TIP3   OH246431   1.902   2.647  14.362 -0.0202  0.0452  0.5469
 8339TIP3    H146432   1.854   2.726  14.388  1.5541  1.0109  0.6323
 8339TIP3    H246433   1.867   2.625  14.276  0.4096  1.6086 -0.0628
 8340TIP3   OH246434   0.823   5.712  14.323  0.4709  0.0342 -0.1402
 8340TIP3    H146435   0.853   5.797  14.290  1.2501  0.3199  1.2302
 8340TIP3    H246436   0.862   5.648  14.263  0.5443  0.5985 -0.7068
 8341TIP3   OH246437   3.252   4.041  17.135  0.2559  0.0748  0.1455
 8341TIP3    H146438   3.265   4.134  17.115 -0.5191  0.1140 -0.1904
 8341TIP3    H246439   3.196   4.009  17.065 -1.0417 -0.1982  1.2574
 8342TIP3   OH246440   0.121   3.846   2.424  0.1296  0.5618 -0.6632
 8342TIP3    H146441   0.214   3.865   2.414  0.3054 -0.4390 -1.0468
 8342TIP3    H246442   0.092   3.904   2.495  1.2805  0.1710  0.1571
 8343TIP3   OH246443   0.499   5.891  16.921  0.2767  0.9004 -0.2797
 8343TIP3    H146444   0.580   5.873  16.969  0.4659  0.6441 -0.6946
 8343TIP3    H246445   0.521   5.965  16.864  0.4798  0.2587 -1.0421
 8344TIP3   OH246446   5.526   3.646   5.648 -0.2143  0.4356 -0.0580
 8344TIP3    H146447   5.587   3.696   5.594 -1.9152  0.2001 -2.3686
 8344TIP3    H246448   5.466   3.712   5.682  0.1030  0.4330  0.5192
 8345TIP3   OH246449   4.299   4.624  14.806  0.2538 -0.0128 -0.2387
 8345TIP3    H146450   4.301   4.653  14.715  1.0748 -0.6696 -0.4351
 8345TIP3    H246451   4.390   4.600  14.826 -0.2711 -1.8286  0.1163
 8346TIP3   OH246452   2.417   2.917   2.520  0.6458 -0.1150  0.3600
 8346TIP3    H146453   2.425   2.876   2.607 -2.1213  1.2179  1.3502
 8346TIP3    H246454   2.336   2.880   2.484  0.9045  0.5814 -0.9670
 8347TIP3   OH246455   6.569   4.884  14.632  0.1650  0.3268 -0.6408
 8347TIP3    H146456   6.551   4.798  14.593  1.0249  0.2962 -0.9917
 8347TIP3    H246457   6.505   4.942  14.590 -1.4114 -0.3871  0.6747
 8348TIP3   OH246458   3.651   6.774  12.729 -0.0935 -0.5035 -0.2232
 8348TIP3    H146459   3.614   6.824  12.802  3.1500  1.1443  0.5095
 8348TIP3    H246460   3.641   6.832  12.653  1.3825  0.2383  0.1080
 8349TIP3   OH246461   3.124   6.545   4.445  0.3831  0.2569  0.1880
 8349TIP3    H146462   3.100   6.466   4.396  0.2348  0.6866 -0.4436
 8349TIP3    H246463   3.044   6.568   4.493  0.3557  0.1592  0.1907
 8350TIP3   OH246464   4.743   6.084  13.837 -0.2383  0.0280  0.8537
 8350TIP3    H146465   4.767   6.173  13.863  3.2333 -0.6764  0.6172
 8350TIP3    H246466   4.796   6.028  13.894  0.0752 -1.7820 -1.1201
 8351TIP3   OH246467   1.605   0.864   4.956 -0.3235  0.5028  0.2596
 8351TIP3    H146468   1.522   0.860   4.907 -0.4851  1.5095  0.4335
 8351TIP3    H246469   1.582   0.905   5.039  0.0299 -0.8188  1.0485
 8352TIP3   OH246470   6.094   5.242  11.660 -0.1076 -0.1403 -0.2678
 8352TIP3    H146471   6.121   5.222  11.749  1.1678  1.0208 -0.3641
 8352TIP3    H246472   6.107   5.160  11.612 -3.0864 -1.5266  1.0271
 8353TIP3   OH246473   3.235   0.140  16.445  0.5729  0.1101 -0.4715
 8353TIP3    H146474   3.289   0.213  16.414 -0.6639  1.2426 -0.0533
 8353TIP3    H246475   3.183   0.177  16.516  0.0153 -1.2275 -0.1566
 8354TIP3   OH246476   3.310   0.044   1.441 -0.1177  0.2777  0.2177
 8354TIP3    H146477   3.345   0.121   1.487 -2.5889  0.7851  1.4676
 8354TIP3    H246478   3.377  -0.023   1.451  0.4724  1.1094  2.5827
 8355TIP3   OH246479   1.930   1.213  12.993 -0.0729  0.0412 -0.6033
 8355TIP3    H146480   1.985   1.291  12.980  1.7377 -0.9879  0.5216
 8355TIP3    H246481   1.863   1.241  13.056  1.5109  0.3236  1.0439
 8356TIP3   OH246482   6.434   0.354   3.840  0.3905  0.4023  0.1802
 8356TIP3    H146483   6.438   0.292   3.912 -0.7153 -0.1955 -0.2470
 8356TIP3    H246484   6.363   0.414   3.863 -1.0724 -0.7403 -1.0880
 8357TIP3   OH246485   0.376   6.045  15.162 -0.0547 -0.1160  0.4670
 8357TIP3    H146486   0.386   6.050  15.257  1.3081 -0.5241  0.3647
 8357TIP3    H246487   0.460   6.012  15.130 -0.4465  0.1259 -0.8990
 8358TIP3   OH246488   2.863   6.195   1.623  0.6646  0.5037  0.3337
 8358TIP3    H146489   2.887   6.286   1.603  1.7019 -0.0449 -1.1410
 8358TIP3    H246490   2.946   6.154   1.647 -0.2675  0.6765  4.4744
 8359TIP3   OH246491   6.535   3.962  13.155 -0.4882  0.0622 -0.0051
 8359TIP3    H146492   6.486   3.919  13.086  0.1291 -2.2507  0.8939
 8359TIP3    H246493   6.468   4.001  13.212 -1.1734 -0.9040 -0.1297
 8360TIP3   OH246494   2.538   5.354  14.366 -0.0743 -0.0309  0.1223
 8360TIP3    H146495   2.475   5.423  14.345 -0.7029 -0.6722 -0.1420
 8360TIP3    H246496   2.593   5.347  14.287  0.2926  0.4790  0.3264
 8361TIP3   OH246497   6.056   2.558  11.567  0.4529  0.0044 -0.2314
 8361TIP3    H146498   5.996   2.606  11.624 -0.7694  0.7789 -2.0536
 8361TIP3    H246499   6.029   2.466  11.575  0.1012  0.1464  0.2260
 8362TIP3   OH246500   2.081   2.824   3.664 -0.2247  0.5592 -0.0325
 8362TIP3    H146501   2.140   2.819   3.739 -1.8724  0.7095  1.3535
 8362TIP3    H246502   2.098   2.744   3.615  0.9626  0.4994  0.4462
 8363TIP3   OH246503   6.628   5.490   1.044  0.4377  0.6175 -0.6709
 8363TIP3    H146504   6.675   5.560   0.998  0.1439  1.1277 -0.2189
 8363TIP3    H246505   6.582   5.442   0.976  1.7689 -0.0217 -1.1490
 8364TIP3   OH246506   3.565   0.918  16.717  0.3081  0.0924  0.6705
 8364TIP3    H146507   3.651   0.959  16.731 -0.7140  2.5340  0.3257
 8364TIP3    H246508   3.561   0.904  16.622  0.6133 -0.7633  0.7770
 8365TIP3   OH246509   5.861   3.261   6.642  0.6313 -0.5284 -0.0788
 8365TIP3    H146510   5.807   3.189   6.609  2.1577 -1.1485 -1.3800
 8365TIP3    H246511   5.809   3.339   6.628 -0.3935 -1.2173 -0.2060
 8366TIP3   OH246512   4.495   6.461  16.043 -0.1024 -0.4302 -0.5997
 8366TIP3    H146513   4.526   6.388  15.988  0.0707 -0.9537  0.1730
 8366TIP3    H246514   4.442   6.419  16.110 -0.3504  0.2087 -0.3904
 8367TIP3   OH246515   3.926   2.613   5.417 -0.2566  0.2932 -0.0804
 8367TIP3    H146516   3.884   2.629   5.502  0.9395  0.2897  0.5385
 8367TIP3    H246517   3.984   2.689   5.405  1.5245 -0.9303  0.3652
 8368TIP3   OH246518   2.972   4.466  10.705 -0.6995  0.0502  0.0292
 8368TIP3    H146519   2.945   4.532  10.642 -0.4323  0.3204  0.1974
 8368TIP3    H246520   2.897   4.406  10.711 -0.6958 -0.0209 -0.6004
 8369TIP3   OH246521   6.090   5.977  16.731 -0.0989 -0.1125  0.0954
 8369TIP3    H146522   6.092   5.882  16.736  2.0199 -0.0626  1.5648
 8369TIP3    H246523   5.997   6.000  16.739 -0.5893 -2.0075  0.2687
 8370TIP3   OH246524   0.610   4.282   0.897  0.5667  0.3004 -0.6387
 8370TIP3    H146525   0.610   4.307   0.804 -0.8453 -0.8868 -1.0149
 8370TIP3    H246526   0.665   4.347   0.940  0.4053  1.5038 -2.1537
 8371TIP3   OH246527   1.024   2.119   4.406  0.1527  0.1933 -0.1930
 8371TIP3    H146528   0.958   2.188   4.408 -2.6459 -2.2183 -1.6831
 8371TIP3    H246529   1.038   2.102   4.313  0.4893 -1.4524  0.1303
 8372TIP3   OH246530   3.850   2.880   1.925 -0.3459 -0.2292 -0.1824
 8372TIP3    H146531   3.817   2.967   1.903 -1.6989 -0.6812  0.0135
 8372TIP3    H246532   3.890   2.891   2.011 -2.1062 -0.1562  0.6618
 8373TIP3   OH246533   0.565   2.349  16.199 -0.2640  0.2673 -0.6175
 8373TIP3    H146534   0.543   2.315  16.286  1.1361 -0.2864 -0.4634
 8373TIP3    H246535   0.638   2.409  16.214  0.5839 -0.5127 -1.5017
 8374TIP3   OH246536   6.142   3.976   0.349 -0.2227  0.9495 -0.0245
 8374TIP3    H146537   6.063   3.924   0.336  1.0304 -0.5608 -2.0107
 8374TIP3    H246538   6.114   4.046   0.409 -2.4045 -0.9391  1.3226
 8375TIP3   OH246539   2.672   4.682  16.751 -0.1744 -0.4084 -0.0185
 8375TIP3    H146540   2.710   4.759  16.711 -1.4101 -0.6018 -1.6935
 8375TIP3    H246541   2.743   4.618  16.753  0.8715  0.7301  1.4189
 8376TIP3   OH246542   0.604   6.648   0.509  0.3080  0.0737  0.2705
 8376TIP3    H146543   0.620   6.665   0.602 -1.7143 -0.0723  0.6945
 8376TIP3    H246544   0.594   6.553   0.504  1.2606 -0.0079 -0.2659
 8377TIP3   OH246545   2.940   4.562  15.926  0.2397  0.4111 -0.1343
 8377TIP3    H146546   2.956   4.606  15.842  0.5366  0.4810 -0.0427
 8377TIP3    H246547   2.997   4.608  15.988  2.4729 -1.6628 -0.5129
 8378TIP3   OH246548   4.315   0.866  12.760 -0.5498  0.2035  0.5848
 8378TIP3    H146549   4.239   0.923  12.774 -0.2556  0.5337  0.8548
 8378TIP3    H246550   4.381   0.898  12.822 -0.4349 -0.5373  0.8551
 8379TIP3   OH246551   4.422   0.182  12.073  0.1272 -0.0315  0.1598
 8379TIP3    H146552   4.470   0.227  12.143  0.6275 -1.6651  0.9009
 8379TIP3    H246553   4.347   0.240  12.054  0.3760  0.7776  1.5345
 8380TIP3   OH246554   5.402   2.270   3.042  0.9727 -0.3180 -0.1336
 8380TIP3    H146555   5.475   2.331   3.030  1.5662 -0.4608  2.2661
 8380TIP3    H246556   5.444   2.186   3.063  0.1271 -0.9127 -0.7693
 8381TIP3   OH246557   0.206   0.312   2.083  0.0216 -0.2327  0.2562
 8381TIP3    H146558   0.145   0.239   2.081  0.1259 -0.3283 -1.8436
 8381TIP3    H246559   0.248   0.311   1.997  1.7831  0.8399  1.0286
 8382TIP3   OH246560   5.900   1.980  11.611 -0.0648  0.1260 -0.0860
 8382TIP3    H146561   5.897   2.032  11.531  0.6138 -0.5915 -0.5929
 8382TIP3    H246562   5.813   1.992  11.651 -0.1989  0.9620 -0.6169
 8383TIP3   OH246563   3.672   3.784   3.178 -0.1137 -0.3736  0.3540
 8383TIP3    H146564   3.646   3.801   3.268 -1.2991  0.8488 -0.1805
 8383TIP3    H246565   3.749   3.840   3.164  0.2709 -0.8150  0.7030
 8384TIP3   OH246566   1.771   5.325  16.032  0.0227  0.3161 -0.4238
 8384TIP3    H146567   1.714   5.355  15.961 -0.1343  1.2989  0.1051
 8384TIP3    H246568   1.725   5.351  16.112  1.9000  2.5726  0.0426
 8385TIP3   OH246569   5.432   5.811   4.361 -0.2730  0.1826  0.6665
 8385TIP3    H146570   5.422   5.903   4.387 -0.3993  0.1795  0.6280
 8385TIP3    H246571   5.514   5.809   4.312 -0.3228  0.2947  0.5777
 8386TIP3   OH246572   0.630   1.352  13.447  0.3937 -0.3529  0.5202
 8386TIP3    H146573   0.679   1.434  13.455 -1.8279  1.1134  0.1395
 8386TIP3    H246574   0.614   1.325  13.537 -1.6946  1.5330  0.8033
 8387TIP3   OH246575   3.517   0.890  16.246  0.4203  0.0540 -0.0165
 8387TIP3    H146576   3.546   0.972  16.286  1.1440  0.3769 -1.1420
 8387TIP3    H246577   3.422   0.895  16.247  0.4255  0.2381  1.2474
 8388TIP3   OH246578   5.884   3.124  16.551  0.2196 -0.5786  0.1703
 8388TIP3    H146579   5.878   3.105  16.457 -0.9531  0.3727  0.0326
 8388TIP3    H246580   5.841   3.050  16.593  0.4150 -0.8235 -0.0522
 8389TIP3   OH246581   1.420   0.027   5.321  0.0044  0.1172  0.0211
 8389TIP3    H146582   1.420  -0.064   5.351  2.8461 -0.4320 -1.2970
 8389TIP3    H246583   1.491   0.030   5.256 -0.7799  3.0179 -0.8154
 8390TIP3   OH246584   3.247   6.273  15.378 -0.1695  0.4413  0.3824
 8390TIP3    H146585   3.302   6.195  15.386 -0.6304  0.2336  1.7000
 8390TIP3    H246586   3.297   6.342  15.422 -0.4537  0.5149  0.5918
 8391TIP3   OH246587   6.095   6.324   5.025 -0.5583 -0.0033 -0.3912
 8391TIP3    H146588   6.066   6.233   5.031 -1.1049  0.2320  0.9470
 8391TIP3    H246589   6.130   6.333   4.936 -0.9834 -1.3676 -0.7147
 8392TIP3   OH246590   5.533   2.349   1.458 -0.2058 -0.7403 -0.1305
 8392TIP3    H146591   5.609   2.407   1.457  0.0164 -1.0328 -0.3623
 8392TIP3    H246592   5.516   2.329   1.366 -0.1160 -1.2559 -0.0385
 8393TIP3   OH246593   0.609   4.045  15.921  0.2855  0.4697 -0.0144
 8393TIP3    H146594   0.544   4.058  15.851 -0.3674 -1.1304  0.2637
 8393TIP3    H246595   0.568   4.083  15.998  0.3925  0.9342 -0.1803
 8394TIP3   OH246596   4.254   5.893   4.665  0.1001 -0.2546  0.4571
 8394TIP3    H146597   4.272   5.800   4.657 -1.0032 -0.4729  0.2922
 8394TIP3    H246598   4.257   5.926   4.575  1.3967  0.0676  0.5996
 8395TIP3   OH246599   2.546   2.166  11.632 -0.4674 -0.1056 -0.4780
 8395TIP3    H146600   2.524   2.183  11.724 -0.3597  1.6394 -0.7365
 8395TIP3    H246601   2.462   2.143  11.591 -0.6839  0.0712 -0.1388
 8396TIP3   OH246602   4.079   0.515   2.496 -0.1426  0.3383 -0.1189
 8396TIP3    H146603   4.118   0.482   2.415 -1.0987 -2.7671  0.5704
 8396TIP3    H246604   4.134   0.479   2.566 -2.1905 -1.3701  0.7357
 8397TIP3   OH246605   2.312   0.773  15.468 -0.0669 -0.2056  0.2495
 8397TIP3    H146606   2.308   0.799  15.560  0.4817 -0.9107  0.4779
 8397TIP3    H246607   2.226   0.796  15.433 -0.0829  0.6113  0.7847
 8398TIP3   OH246608   4.573   6.212   0.454  0.0336  0.1553  0.2415
 8398TIP3    H146609   4.552   6.189   0.364 -1.3121  1.8847  0.0543
 8398TIP3    H246610   4.559   6.131   0.504 -0.9670 -0.3704 -0.8515
 8399TIP3   OH246611   4.476   2.094  12.593 -0.1389  0.1394 -0.0092
 8399TIP3    H146612   4.416   2.148  12.643  0.5857  1.4975 -0.5676
 8399TIP3    H246613   4.451   2.004  12.615 -1.8419  0.6691  0.3804
 8400TIP3   OH246614   0.358   5.737   1.265 -0.0440  0.1191  0.1045
 8400TIP3    H146615   0.347   5.673   1.195 -0.9258 -0.1091  0.4333
 8400TIP3    H246616   0.447   5.724   1.297  0.4436  0.3712 -1.1011
 8401TIP3   OH246617   5.699   6.017   2.233 -0.2109 -0.2155 -0.5498
 8401TIP3    H146618   5.758   6.083   2.196 -0.5297 -0.6887 -1.9494
 8401TIP3    H246619   5.676   5.961   2.159 -1.3769 -0.8252  0.2479
 8402TIP3   OH246620   4.731   5.365  11.964  0.0852  0.1825  0.3709
 8402TIP3    H146621   4.776   5.290  12.004  1.7458  1.2188  0.5211
 8402TIP3    H246622   4.655   5.380  12.020 -0.4770 -1.5663  0.1555
 8403TIP3   OH246623   1.971   6.372   1.535  0.2283  0.0714 -0.1933
 8403TIP3    H146624   1.886   6.346   1.499 -0.6361  0.2377  1.5809
 8403TIP3    H246625   2.009   6.292   1.569 -0.6941  0.4309  1.8311
 8404TIP3   OH246626   0.553   1.461   0.839  0.3164 -0.3073  0.1316
 8404TIP3    H146627   0.556   1.460   0.935  1.0844 -1.3852  0.1095
 8404TIP3    H246628   0.557   1.554   0.816  1.9474 -0.1106  1.1005
 8405TIP3   OH246629   6.535   1.057  16.789 -0.8886  0.1138  0.8490
 8405TIP3    H146630   6.518   1.129  16.849 -1.4658  2.8479 -2.3305
 8405TIP3    H246631   6.630   1.059  16.775 -0.9005  0.2429  0.7878
 8406TIP3   OH246632   2.273   1.602  12.144 -0.3853  0.6510  0.0209
 8406TIP3    H146633   2.288   1.663  12.216  0.3599  1.1419 -0.5400
 8406TIP3    H246634   2.310   1.519  12.175 -1.7356  0.3490  0.9346
 8407TIP3   OH246635   2.240   1.590   4.158  0.5826 -0.2655 -0.2666
 8407TIP3    H146636   2.318   1.644   4.167  1.0953 -0.8502 -1.1068
 8407TIP3    H246637   2.229   1.580   4.063 -1.0314  0.5537 -0.2058
 8408TIP3   OH246638   3.820   6.417   5.890 -0.3739 -0.1966 -0.6106
 8408TIP3    H146639   3.827   6.415   5.985  0.9314  0.2852 -0.6700
 8408TIP3    H246640   3.757   6.348   5.868  1.6262 -2.5024  0.4230
 8409TIP3   OH246641   3.440   2.086   5.905 -0.0043  0.3309  0.1693
 8409TIP3    H146642   3.462   2.112   5.815  1.0116  2.4778  0.9609
 8409TIP3    H246643   3.501   2.016   5.925  2.9766  2.8283  0.5981
 8410TIP3   OH246644   0.259   3.913  12.737 -0.1735 -0.6385 -0.3539
 8410TIP3    H146645   0.333   3.853  12.747 -0.1639 -0.2592  2.5394
 8410TIP3    H246646   0.295   3.986  12.686  0.1796 -2.3477 -2.7172
 8411TIP3   OH246647   3.572   3.563  14.517  0.4119 -0.0953  0.7694
 8411TIP3    H146648   3.655   3.575  14.563  0.5563  0.5938  0.3472
 8411TIP3    H246649   3.509   3.614  14.568  0.5023  0.3874  0.4048
 8412TIP3   OH246650   5.898   5.647   0.750 -0.4589 -0.0540 -0.6094
 8412TIP3    H146651   5.887   5.742   0.758  1.8317  0.3513 -1.7788
 8412TIP3    H246652   5.810   5.615   0.729 -1.9478  1.3923  2.6399
 8413TIP3   OH246653   4.628   4.605  11.284  0.0500  0.7634  0.3625
 8413TIP3    H146654   4.571   4.681  11.291  1.1666  1.5536  1.0912
 8413TIP3    H246655   4.650   4.601  11.191 -1.8664 -0.1019 -0.1186
 8414TIP3   OH246656   4.966   5.213   6.797  0.0380 -0.5913  0.4711
 8414TIP3    H146657   4.911   5.268   6.852  0.4923 -0.1119  0.4572
 8414TIP3    H246658   5.055   5.247   6.810 -0.0132  0.6848 -1.8245
 8415TIP3   OH246659   5.344   3.236  11.820 -0.1829  0.6420 -0.2452
 8415TIP3    H146660   5.394   3.306  11.777  1.3879 -0.2643  0.0126
 8415TIP3    H246661   5.307   3.185  11.748  0.4728  0.4971 -0.4883
 8416TIP3   OH246662   2.823   1.859   4.726  0.1908  0.2723  0.2150
 8416TIP3    H146663   2.909   1.848   4.767 -0.3219 -1.2246  0.9909
 8416TIP3    H246664   2.831   1.818   4.641  0.4617  0.8690 -0.0540
 8417TIP3   OH246665   1.977   3.118   1.449 -0.5568 -0.1013 -0.0608
 8417TIP3    H146666   2.022   3.051   1.500  0.2415  1.9013  2.0263
 8417TIP3    H246667   1.961   3.190   1.511 -1.1233  1.7575 -2.2079
 8418TIP3   OH246668   1.648   1.110  13.067  0.3573  0.2309 -0.4277
 8418TIP3    H146669   1.685   1.147  13.147 -0.3562 -0.4978  0.2625
 8418TIP3    H246670   1.597   1.181  13.029  0.2980  0.4375  0.0344
 8419TIP3   OH246671   0.480   0.842  10.695  0.0396 -0.2162 -0.4466
 8419TIP3    H146672   0.516   0.913  10.642 -0.4585  0.2550 -0.1639
 8419TIP3    H246673   0.399   0.878  10.732  0.5973 -0.3713  0.9933
 8420TIP3   OH246674   1.977   5.813   6.147 -0.0844 -0.0677  0.4589
 8420TIP3    H146675   1.978   5.743   6.212  1.5159  0.5746  1.1812
 8420TIP3    H246676   2.001   5.770   6.064  1.6669 -0.2799  1.0412
 8421TIP3   OH246677   2.711   1.234   1.698  0.3905 -0.1847 -0.4462
 8421TIP3    H146678   2.773   1.240   1.625  0.4405 -2.7375 -0.7110
 8421TIP3    H246679   2.625   1.227   1.655  0.1476  0.7530 -0.1473
 8422TIP3   OH246680   3.721   3.623  13.593  0.4773  0.7935  0.1044
 8422TIP3    H146681   3.781   3.633  13.666 -1.4196  0.9008  1.7501
 8422TIP3    H246682   3.674   3.707  13.588 -2.1566 -0.4831  1.4254
 8423TIP3   OH246683   5.436   6.437   4.098 -0.1759 -0.0093  0.2251
 8423TIP3    H146684   5.523   6.399   4.093 -0.6352 -1.1364  0.4271
 8423TIP3    H246685   5.377   6.362   4.091 -1.1169  0.6627  0.7076
 8424TIP3   OH246686   4.930   5.473   4.157 -0.5683  0.3283  0.1358
 8424TIP3    H146687   4.994   5.521   4.211  0.2960 -0.8005  0.1545
 8424TIP3    H246688   4.903   5.399   4.212  1.0141 -1.3674 -1.2430
 8425TIP3   OH246689   3.838   2.029  15.357 -0.0089  0.0393 -0.1348
 8425TIP3    H146690   3.839   2.122  15.377  0.8395 -0.2223  1.1256
 8425TIP3    H246691   3.925   2.011  15.321 -0.2324 -0.2356 -0.5500
 8426TIP3   OH246692   6.521   4.165   1.869  0.4015 -0.3584 -0.2900
 8426TIP3    H146693   6.527   4.257   1.843 -0.1269 -0.1231  0.3797
 8426TIP3    H246694   6.442   4.161   1.924 -1.0332 -1.6943 -2.3312
 8427TIP3   OH246695   5.396   2.790  14.560  0.1064 -0.1721 -0.1350
 8427TIP3    H146696   5.319   2.843  14.580 -0.4802 -0.8893 -0.4465
 8427TIP3    H246697   5.392   2.717  14.621  2.5151  1.5858  2.3441
 8428TIP3   OH246698   2.524   2.273  16.754 -0.5630  0.1361 -0.4628
 8428TIP3    H146699   2.429   2.282  16.740 -0.5905  0.4777 -0.0471
 8428TIP3    H246700   2.551   2.356  16.791  0.1725  0.6116 -1.9680
 8429TIP3   OH246701   5.294   1.440  14.237  0.2822  0.2852  0.0813
 8429TIP3    H146702   5.249   1.490  14.305 -0.5188 -0.8417  0.4131
 8429TIP3    H246703   5.326   1.362  14.282  1.9132  0.6887 -0.3244
 8430TIP3   OH246704   6.629   4.763   4.173  0.2632  0.2690 -0.3800
 8430TIP3    H146705   6.633   4.672   4.203  0.2607  0.5634  0.5387
 8430TIP3    H246706   6.688   4.766   4.098 -0.7341 -0.7934 -1.2544
 8431TIP3   OH246707   3.250   3.879   5.547  0.2551 -0.6855 -0.0726
 8431TIP3    H146708   3.213   3.967   5.551  2.3983  0.3699 -1.6919
 8431TIP3    H246709   3.330   3.884   5.600  0.6441 -1.5283 -0.5615
 8432TIP3   OH246710   1.174   4.544   5.564 -0.2440 -0.0137  0.2532
 8432TIP3    H146711   1.125   4.625   5.564  2.4978  1.8036  1.8457
 8432TIP3    H246712   1.139   4.494   5.638 -0.0781  1.0403  1.0719
 8433TIP3   OH246713   3.959   2.271   1.077 -0.9430  0.6781 -1.0430
 8433TIP3    H146714   4.015   2.329   1.025 -0.0818 -1.5125 -2.6994
 8433TIP3    H246715   4.016   2.241   1.148 -2.0249  3.4142  1.1665
 8434TIP3   OH246716   6.279   2.081  16.064  0.4649 -0.5059  0.2051
 8434TIP3    H146717   6.321   2.067  15.979 -1.3348  2.0229 -1.2197
 8434TIP3    H246718   6.343   2.130  16.115  1.7848 -2.5315  0.6138
 8435TIP3   OH246719   5.047   1.084   3.400  0.1822  0.3347 -0.6901
 8435TIP3    H146720   5.127   1.116   3.440  0.5583 -1.0004 -0.3032
 8435TIP3    H246721   5.067   1.079   3.306 -0.0141  1.5411 -0.8064
 8436TIP3   OH246722   3.714   1.715  12.028 -0.4715  0.1805  0.1405
 8436TIP3    H146723   3.724   1.620  12.030 -0.0361  0.1626 -1.6069
 8436TIP3    H246724   3.743   1.744  12.115  1.8282 -1.0716 -0.1384
 8437TIP3   OH246725   2.854   0.602  10.408  0.0315  0.4453  0.1130
 8437TIP3    H146726   2.929   0.659  10.389  0.4670  0.2244  1.0640
 8437TIP3    H246727   2.777   0.655  10.387  0.4274  1.3566  0.8728
 8438TIP3   OH246728   2.777   0.675   2.412  0.0393  0.2427 -0.7395
 8438TIP3    H146729   2.750   0.663   2.321 -1.4463 -1.8101 -0.1119
 8438TIP3    H246730   2.791   0.586   2.445 -0.6944  0.8286  1.3638
 8439TIP3   OH246731   2.788   2.251   0.975 -0.1150 -0.5308  0.1892
 8439TIP3    H146732   2.837   2.171   0.957 -0.5821 -0.9440  0.7254
 8439TIP3    H246733   2.848   2.304   1.028  0.9164  0.3100 -1.7442
 8440TIP3   OH246734   2.960   0.698  13.018 -0.8334 -0.1052 -0.6159
 8440TIP3    H146735   2.865   0.714  13.026 -0.7602  0.0619 -0.0370
 8440TIP3    H246736   3.000   0.780  13.049 -0.5069  0.1942 -1.7700
 8441TIP3   OH246737   6.291   5.441   2.116  0.3853 -0.0367  0.4606
 8441TIP3    H146738   6.336   5.435   2.200 -0.8612 -1.6602  1.0828
 8441TIP3    H246739   6.294   5.351   2.081  0.0727  0.4135 -0.7816
 8442TIP3   OH246740   3.535   2.353   2.719 -0.2037 -0.3075 -0.2991
 8442TIP3    H146741   3.440   2.346   2.715 -0.2500  0.3624 -0.6918
 8442TIP3    H246742   3.566   2.264   2.736 -0.7807 -0.9842 -2.5192
 8443TIP3   OH246743   5.972   5.731  16.257 -0.5658 -0.1400  0.7229
 8443TIP3    H146744   5.912   5.692  16.321  0.2226  0.7120  2.0234
 8443TIP3    H246745   6.020   5.798  16.307 -1.4760  2.1413 -1.2498
 8444TIP3   OH246746   2.732   1.105  11.063  0.4389  0.6049  0.2134
 8444TIP3    H146747   2.791   1.094  10.988  0.7068 -1.0762  0.6400
 8444TIP3    H246748   2.722   1.017  11.100 -2.4283  0.7639  0.0979
 8445TIP3   OH246749   0.714   4.613   0.047 -0.3934 -0.1195  0.7335
 8445TIP3    H146750   0.721   4.629  -0.047 -0.6913 -0.2369  0.6885
 8445TIP3    H246751   0.620   4.620   0.065 -0.2615  0.6212  1.1540
 8446TIP3   OH246752   2.875   3.375   0.452  0.1887 -0.2401  0.2171
 8446TIP3    H146753   2.825   3.394   0.531  0.7442 -0.2941  0.5830
 8446TIP3    H246754   2.950   3.433   0.456 -0.9094  1.4151 -1.4022
 8447TIP3   OH246755   6.119   0.003  15.544  0.1204  0.9043 -0.5269
 8447TIP3    H146756   6.144   0.031  15.631  0.8723  0.3990 -0.5740
 8447TIP3    H246757   6.046   0.062  15.520 -1.4084 -0.1764  1.1826
 8448TIP3   OH246758   2.613   1.750  14.512  0.0664 -0.3056 -0.2204
 8448TIP3    H146759   2.582   1.770  14.601  2.8802 -0.8143  0.9708
 8448TIP3    H246760   2.557   1.678  14.484 -0.4761 -0.5727  1.4091
 8449TIP3   OH246761   1.619   3.241   3.901 -0.4610 -0.0951  0.2790
 8449TIP3    H146762   1.698   3.233   3.849 -0.5333  0.2569  0.1097
 8449TIP3    H246763   1.649   3.245   3.992 -0.4250 -2.3013  0.3989
 8450TIP3   OH246764   5.107   6.792  12.866  0.7366  0.4649  0.1926
 8450TIP3    H146765   5.106   6.730  12.792 -1.5453 -0.6173  1.0368
 8450TIP3    H246766   5.072   6.873  12.829  1.3408  0.5022 -0.3237
 8451TIP3   OH246767   1.623   4.760   1.075  0.4589  0.5137  0.6155
 8451TIP3    H146768   1.690   4.741   1.010  0.3691  1.9891  0.0635
 8451TIP3    H246769   1.668   4.752   1.159  0.6477 -1.0975  0.4036
 8452TIP3   OH246770   5.697   1.898   5.008 -0.3268  0.5316 -0.0388
 8452TIP3    H146771   5.613   1.917   5.049 -0.0957  2.2459 -0.2815
 8452TIP3    H246772   5.690   1.936   4.920  0.5872  0.4250 -0.1705
 8453TIP3   OH246773   3.063   0.130   4.264 -0.4592 -0.0303 -0.0924
 8453TIP3    H146774   2.968   0.142   4.257 -0.5454 -1.1572 -1.2264
 8453TIP3    H246775   3.077   0.038   4.243  0.8961  0.1210  0.0812
 8454TIP3   OH246776   1.380   2.217  16.932  0.6698  0.6970  0.6552
 8454TIP3    H146777   1.356   2.166  16.854 -1.0288 -0.0575  1.6016
 8454TIP3    H246778   1.456   2.268  16.905 -0.4093  1.1819 -1.8117
 8455TIP3   OH246779   5.544   4.840  17.071 -0.1718 -0.4101  0.5931
 8455TIP3    H146780   5.585   4.761  17.106 -0.1498 -0.5998  0.1481
 8455TIP3    H246781   5.613   4.906  17.074  0.0541 -0.6240  0.2183
 8456TIP3   OH246782   3.439   4.448  13.921  0.0581  0.3260 -0.0758
 8456TIP3    H146783   3.414   4.456  14.014  2.3565  2.5954  0.4507
 8456TIP3    H246784   3.355   4.444  13.875 -1.2481  1.8099  1.9499
 8457TIP3   OH246785   6.218   6.500  11.992  0.0491 -0.0348 -0.0053
 8457TIP3    H146786   6.135   6.496  11.943  0.3271 -0.2235 -0.4670
 8457TIP3    H246787   6.214   6.425  12.051 -1.0821  1.1922  1.5705
 8458TIP3   OH246788   1.313   3.754   2.303  0.2412  0.2113 -0.0838
 8458TIP3    H146789   1.307   3.666   2.340 -0.2424 -0.1260 -0.9488
 8458TIP3    H246790   1.298   3.742   2.209 -1.2058  1.3818 -0.0244
 8459TIP3   OH246791   4.297   2.499   4.180  0.2423  0.7759 -0.0230
 8459TIP3    H146792   4.308   2.564   4.249 -0.2055  1.8857 -0.9566
 8459TIP3    H246793   4.344   2.535   4.105  0.7278 -0.4085 -0.3071
 8460TIP3   OH246794   4.759   3.956  15.840  0.5063 -0.3228 -0.3737
 8460TIP3    H146795   4.720   3.905  15.769 -0.8611  0.0952  0.0466
 8460TIP3    H246796   4.685   3.977  15.898  1.6338 -1.0373  1.4114
 8461TIP3   OH246797   2.104   1.500  15.675  0.2419 -0.3895  0.2896
 8461TIP3    H146798   2.072   1.580  15.634  0.0656 -1.1866 -1.1926
 8461TIP3    H246799   2.132   1.527  15.762 -1.9091  0.8656  0.6758
 8462TIP3   OH246800   5.176   0.515  13.925 -0.0435 -0.0467  0.0414
 8462TIP3    H146801   5.200   0.426  13.951  1.5169  0.3565  0.1065
 8462TIP3    H246802   5.237   0.536  13.855  0.7437  1.5467  1.1358
 8463TIP3   OH246803   2.888   0.328  13.277 -0.6546 -0.2208 -0.1433
 8463TIP3    H146804   2.966   0.384  13.282  0.2604 -1.5144  0.3936
 8463TIP3    H246805   2.833   0.370  13.210 -0.3430  1.7174  0.7600
 8464TIP3   OH246806   6.767   5.102  12.154  0.0165  0.1841  0.9123
 8464TIP3    H146807   6.835   5.114  12.220  0.3605 -1.1088  0.8233
 8464TIP3    H246808   6.813   5.109  12.071 -0.0428 -0.2589  0.8435
 8465TIP3   OH246809   6.757   1.265   3.091  0.5498  0.3953 -0.7143
 8465TIP3    H146810   6.675   1.301   3.122  0.9958  0.1758  0.7976
 8465TIP3    H246811   6.733   1.216   3.012 -0.5963  1.1123 -0.8353
 8466TIP3   OH246812   3.422   4.177  12.348  1.1065  0.5959  0.2862
 8466TIP3    H146813   3.481   4.110  12.382  0.8474  1.1040  1.8165
 8466TIP3    H246814   3.474   4.258  12.352  0.6696  0.8623  0.6147
 8467TIP3   OH246815   0.738   6.323   4.148 -0.2871 -0.3490 -0.2320
 8467TIP3    H146816   0.683   6.379   4.203 -0.0190 -1.6213  1.4038
 8467TIP3    H246817   0.676   6.264   4.105 -0.3088 -1.5774  1.3734
 8468TIP3   OH246818   6.122   0.044  17.084 -0.1425  0.0849  0.4846
 8468TIP3    H146819   6.196   0.062  17.026  1.6359 -0.2302  2.5207
 8468TIP3    H246820   6.044   0.059  17.030  1.3722 -0.9922 -2.1792
 8469TIP3   OH246821   5.425   1.447   2.393  0.0042  0.6394 -0.0447
 8469TIP3    H146822   5.384   1.361   2.404  1.8561 -0.1412  1.3762
 8469TIP3    H246823   5.365   1.508   2.435 -0.4019 -0.2646  0.7282
 8470TIP3   OH246824   1.243   4.052   4.220  0.3006 -0.0479 -0.0365
 8470TIP3    H146825   1.308   3.992   4.183 -0.0631  0.3661 -1.4151
 8470TIP3    H246826   1.295   4.122   4.259  0.7004 -0.3778  0.0330
 8471TIP3   OH246827   4.722   3.837   4.921 -0.3104 -0.5743  0.1200
 8471TIP3    H146828   4.789   3.906   4.916 -0.1757 -0.6027  1.3937
 8471TIP3    H246829   4.721   3.800   4.833 -1.7697  2.3447 -1.2388
 8472TIP3   OH246830   5.268   3.297   6.074 -0.0598  0.4704 -0.3082
 8472TIP3    H146831   5.287   3.248   6.154  0.1026  1.2822  0.1553
 8472TIP3    H246832   5.352   3.302   6.029  0.1310  1.1184  0.1003
 8473TIP3   OH246833   4.423   5.945  16.445  0.1045 -0.0863 -0.0593
 8473TIP3    H146834   4.416   6.030  16.403 -0.5303  1.1222  2.2735
 8473TIP3    H246835   4.345   5.897  16.418 -0.5852  0.8815  0.1784
 8474TIP3   OH246836   6.453   5.997  17.205  0.2905 -0.3481 -0.3959
 8474TIP3    H146837   6.385   6.033  17.149 -0.7384 -1.4683  0.1001
 8474TIP3    H246838   6.406   5.957  17.278  1.5945  1.9379  1.8693
 8475TIP3   OH246839   4.701   1.955   3.262 -0.1544 -0.1660  0.7379
 8475TIP3    H146840   4.618   1.939   3.306  0.5597  0.9981  2.6535
 8475TIP3    H246841   4.677   1.988   3.176 -1.6174 -2.1439  0.3090
 8476TIP3   OH246842   2.253   0.364  17.153  0.3467 -0.1917 -0.1384
 8476TIP3    H146843   2.239   0.295  17.089  0.4738 -0.3534  0.0086
 8476TIP3    H246844   2.336   0.404  17.128 -0.7107  1.3026 -1.5070
 8477TIP3   OH246845   0.831   1.253  12.938  0.7061  0.4982 -0.1523
 8477TIP3    H146846   0.750   1.281  12.896  1.0019  1.5857 -0.0325
 8477TIP3    H246847   0.884   1.216  12.867 -0.2299 -1.0739 -0.0803
 8478TIP3   OH246848   5.953   5.099   3.595 -0.2878  0.1837  0.4579
 8478TIP3    H146849   5.869   5.144   3.581 -1.0371 -1.1379  0.5666
 8478TIP3    H246850   5.991   5.091   3.508 -0.9200 -0.4157  0.2342
 8479TIP3   OH246851   1.662   3.748   0.488  0.5331  0.0392 -0.7014
 8479TIP3    H146852   1.754   3.736   0.464  0.6252  0.8019 -0.7608
 8479TIP3    H246853   1.616   3.745   0.404  0.7759  1.9797 -0.9520
 8480TIP3   OH246854   0.831   3.809   1.892 -0.3625  0.2290 -0.5684
 8480TIP3    H146855   0.872   3.743   1.948 -1.5653  0.9762  1.2993
 8480TIP3    H246856   0.794   3.759   1.820 -0.2089 -1.0022  0.1771
 8481TIP3   OH246857   5.234   6.368  16.991  0.2996 -0.0709  0.0549
 8481TIP3    H146858   5.325   6.347  17.010  0.8940  0.8727 -1.5233
 8481TIP3    H246859   5.211   6.436  17.054  0.8399  0.0089  0.1678
 8482TIP3   OH246860   1.919   0.781  12.741 -0.2372 -0.0279  0.3663
 8482TIP3    H146861   1.870   0.753  12.818 -0.2695  1.5592  0.9698
 8482TIP3    H246862   1.937   0.874  12.757  1.2017 -0.0773 -0.7794
 8483TIP3   OH246863   0.126   2.759  12.575  0.1095 -0.6532 -0.1285
 8483TIP3    H146864   0.218   2.744  12.554 -0.1089 -1.2493 -0.7109
 8483TIP3    H246865   0.125   2.840  12.626  0.8379  0.0507 -1.1923
 8484TIP3   OH246866   5.195   1.208  17.104 -0.0515 -0.1953 -0.0348
 8484TIP3    H146867   5.241   1.287  17.133  1.0974 -0.5751 -0.7582
 8484TIP3    H246868   5.103   1.233  17.103 -0.0189  0.2937  2.4106
 8485TIP3   OH246869   5.255   2.057   1.429 -0.2509  0.1951  0.5586
 8485TIP3    H146870   5.335   2.035   1.382  0.2209  1.0364  0.9590
 8485TIP3    H246871   5.227   1.974   1.469 -0.0998 -0.2971 -0.3466
 8486TIP3   OH246872   6.337   2.079   0.171 -0.8919  0.2238  0.3860
 8486TIP3    H146873   6.358   2.012   0.105  1.0584  1.0334  0.0984
 8486TIP3    H246874   6.351   2.162   0.125  1.0303  0.8172  1.8913
 8487TIP3   OH246875   2.141   0.479   3.995 -0.0898  0.1432 -0.2553
 8487TIP3    H146876   2.152   0.384   3.986 -0.1723  0.1998 -0.9776
 8487TIP3    H246877   2.112   0.508   3.909  0.4383  0.9008 -0.1857
 8488TIP3   OH246878   5.119   5.698  17.032 -0.4219  0.6074 -0.7756
 8488TIP3    H146879   5.050   5.633  17.047 -0.4219  0.9306  0.8918
 8488TIP3    H246880   5.087   5.777  17.077  0.6633  1.0113 -0.6860
 8489TIP3   OH246881   5.466   5.694   1.789  0.1092  0.4677  0.3197
 8489TIP3    H146882   5.491   5.776   1.748 -1.0669  0.6047 -0.1759
 8489TIP3    H246883   5.437   5.639   1.716 -0.8086  0.2648  0.8144
 8490TIP3   OH246884   5.198   0.373  11.465 -0.1833  0.2104  1.1573
 8490TIP3    H146885   5.236   0.367  11.378 -2.5278  1.5601 -0.0310
 8490TIP3    H246886   5.133   0.302  11.468 -0.8095  0.7872  1.4273
 8491TIP3   OH246887   1.495   3.420  17.144 -0.1525 -0.5358 -0.7838
 8491TIP3    H146888   1.498   3.389  17.053  0.1759 -1.7922 -0.3757
 8491TIP3    H246889   1.426   3.368  17.184 -0.6502  0.3907 -0.4387
 8492TIP3   OH246890   5.416   4.595   1.522 -0.5996  0.3277 -0.0785
 8492TIP3    H146891   5.352   4.663   1.500 -2.4852 -1.4255 -0.3506
 8492TIP3    H246892   5.463   4.579   1.440 -1.6057 -0.1444 -0.5772
 8493TIP3   OH246893   1.635   3.301   1.788 -0.0565 -0.5571  1.0177
 8493TIP3    H146894   1.717   3.295   1.838  1.1614  1.7263 -0.4855
 8493TIP3    H246895   1.618   3.395   1.781 -2.3196 -0.9468  0.4667
 8494TIP3   OH246896   1.508   6.723  11.439  0.2645  0.1382  1.0184
 8494TIP3    H146897   1.585   6.682  11.479  2.6223  2.5771 -0.5973
 8494TIP3    H246898   1.530   6.816  11.437 -2.5640  0.8802 -0.0288
 8495TIP3   OH246899   2.543   1.257  16.243 -0.2775 -0.1470  0.3631
 8495TIP3    H146900   2.624   1.276  16.290  0.0364  0.3155 -0.3540
 8495TIP3    H246901   2.493   1.201  16.303  0.6322 -0.5577  0.7475
 8496TIP3   OH246902   2.442   2.549   1.605  0.2248  0.1807  0.2266
 8496TIP3    H146903   2.528   2.523   1.638  0.6586 -0.0728 -1.0360
 8496TIP3    H246904   2.418   2.625   1.657  1.3651  0.4509  0.3801
 8497TIP3   OH246905   3.711   1.276  15.337 -0.4017 -0.5993  0.9238
 8497TIP3    H146906   3.676   1.249  15.422 -1.1110 -1.6191  0.3237
 8497TIP3    H246907   3.698   1.200  15.281  3.1476 -1.1962  0.7339
 8498TIP3   OH246908   5.305   5.812   4.910 -0.2073 -0.1452  0.7373
 8498TIP3    H146909   5.296   5.882   4.846 -1.6189  1.2195  2.3353
 8498TIP3    H246910   5.337   5.856   4.989  3.9623 -2.1232  0.4516
 8499TIP3   OH246911   2.219   6.483  12.269 -0.8838  0.0759  0.2448
 8499TIP3    H146912   2.134   6.440  12.271 -1.0452  0.1258 -2.5708
 8499TIP3    H246913   2.200   6.574  12.244 -0.0474  0.2393  0.1608
 8500TIP3   OH246914   6.774   5.322  13.685 -0.0107  0.4387  0.5723
 8500TIP3    H146915   6.754   5.304  13.777 -0.6244  0.9811  0.5482
 8500TIP3    H246916   6.778   5.417  13.679 -0.8310  0.4418 -0.1380
 8501TIP3   OH246917   2.866   1.628   0.550 -0.3407  0.4061 -0.2817
 8501TIP3    H146918   2.890   1.559   0.611 -0.0794 -0.4198 -1.2934
 8501TIP3    H246919   2.947   1.650   0.505 -0.6781  0.4211 -0.9050
 8502TIP3   OH246920   3.315   1.420   5.977  0.1891  0.3042 -0.1577
 8502TIP3    H146921   3.289   1.344   6.029  0.6095  0.1518 -0.1611
 8502TIP3    H246922   3.395   1.452   6.019  0.0205  0.7390 -0.1642
 8503TIP3   OH246923   2.636   6.376  14.227  0.3565 -0.6244 -0.4946
 8503TIP3    H146924   2.626   6.450  14.167  0.1950 -0.8122 -0.6961
 8503TIP3    H246925   2.607   6.300  14.177  1.6193 -1.0044 -0.6911
 8504TIP3   OH246926   0.029   2.670   5.998 -0.2339  0.4135  0.5378
 8504TIP3    H146927  -0.022   2.740   5.956 -1.4185  1.0837  2.8741
 8504TIP3    H246928  -0.037   2.606   6.026  0.4502  0.0843  1.4725
 8505TIP3   OH246929   6.345   6.472   2.053  0.0447 -0.3308 -0.4924
 8505TIP3    H146930   6.363   6.458   1.960  0.9288 -0.2102 -0.3452
 8505TIP3    H246931   6.430   6.466   2.096 -0.2990  0.0059  0.2657
 8506TIP3   OH246932   2.123   3.992   2.935 -0.0919 -0.1937 -0.1471
 8506TIP3    H146933   2.114   3.997   3.030  1.3113 -2.0327  0.1583
 8506TIP3    H246934   2.218   3.992   2.920 -0.2378 -1.6447 -1.3676
 8507TIP3   OH246935   2.243   4.368   2.901 -0.9087 -0.1536  0.3071
 8507TIP3    H146936   2.266   4.284   2.861 -0.4066 -0.0587  0.3803
 8507TIP3    H246937   2.200   4.417   2.831 -0.9026 -0.3485  0.1659
 8508TIP3   OH246938   6.318   1.570   6.393  0.1242 -0.6058  0.0561
 8508TIP3    H146939   6.239   1.517   6.395 -1.1784  1.1991  3.2111
 8508TIP3    H246940   6.287   1.658   6.371  1.8727 -0.5025 -2.4522
 8509TIP3   OH246941   3.894   3.253  13.286 -0.3519  0.0620  0.0729
 8509TIP3    H146942   3.862   3.342  13.270 -0.1460  0.4788  1.7834
 8509TIP3    H246943   3.925   3.222  13.201 -0.2077  1.7161 -0.4969
 8510TIP3   OH246944   4.852   0.119  13.686  0.1378  0.3155  0.1814
 8510TIP3    H146945   4.813   0.148  13.603 -0.5640 -1.5934 -0.2026
 8510TIP3    H246946   4.886   0.032  13.667 -0.3390 -0.2959  1.9942
 8511TIP3   OH246947   4.905   1.817   2.902  0.3143 -0.3787 -0.6235
 8511TIP3    H146948   4.859   1.901   2.897  1.3626  0.1691 -1.5119
 8511TIP3    H246949   4.837   1.754   2.925 -0.5936  0.6260 -0.4659
 8512TIP3   OH246950   4.709   3.356   4.034 -0.0272 -0.7111 -0.2688
 8512TIP3    H146951   4.711   3.264   4.061  0.3209 -0.8008 -0.5893
 8512TIP3    H246952   4.649   3.358   3.959 -1.4302 -0.3690  0.8219
 8513TIP3   OH246953   6.000   2.685   5.967  0.4374 -0.1805  0.3267
 8513TIP3    H146954   6.095   2.691   5.968  0.3979  0.9884 -0.8996
 8513TIP3    H246955   5.981   2.608   5.913  0.6683 -0.8040  1.1032
 8514TIP3   OH246956   4.012   1.058   2.026 -0.1307 -0.0716  0.2751
 8514TIP3    H146957   4.098   1.023   2.000 -0.0972  0.9474 -1.0858
 8514TIP3    H246958   3.949   1.008   1.973 -0.5473 -1.7327  2.2010
 8515TIP3   OH246959   3.342   6.326   0.512 -0.6364 -0.4331 -0.1603
 8515TIP3    H146960   3.321   6.239   0.545 -1.8473 -0.6049 -1.2789
 8515TIP3    H246961   3.354   6.380   0.590  0.7666 -1.7120  0.5551
 8516TIP3   OH246962   4.202   4.373   3.728  0.5028  0.3913  0.2139
 8516TIP3    H146963   4.227   4.298   3.675 -0.2231  1.6004 -1.9237
 8516TIP3    H246964   4.279   4.429   3.729  0.9761 -0.2316  1.6407
 8517TIP3   OH246965   5.256   1.068  13.044  0.4422 -0.3105 -0.3708
 8517TIP3    H146966   5.314   1.131  13.086  1.2625 -0.7621 -0.8103
 8517TIP3    H246967   5.219   1.115  12.970 -1.9512  0.8981  1.4440
 8518TIP3   OH246968   3.693   3.534  14.827  0.3403  0.1091 -0.1469
 8518TIP3    H146969   3.773   3.538  14.775  1.7665  1.3029  1.9969
 8518TIP3    H246970   3.651   3.619  14.812  1.1929  0.8044  1.2265
 8519TIP3   OH246971   3.214   2.088   4.580  0.3829 -0.0306 -0.4811
 8519TIP3    H146972   3.271   2.140   4.523  0.0351  1.5574  0.5835
 8519TIP3    H246973   3.138   2.068   4.525 -0.2622  2.0423 -0.4287
 8520TIP3   OH246974   5.019   6.464   0.971 -0.1359  0.2788  0.0643
 8520TIP3    H146975   4.938   6.501   0.936 -0.5878  0.6338  1.4108
 8520TIP3    H246976   5.054   6.533   1.028  1.3763  0.3050 -0.8510
 8521TIP3   OH246977   5.920   3.355   2.849  0.5162  0.0349  0.0113
 8521TIP3    H146978   5.864   3.366   2.773 -1.4160  0.0200  1.3645
 8521TIP3    H246979   5.970   3.437   2.854  0.5359  0.1062 -1.1225
 8522TIP3   OH246980   0.861   0.741   5.931 -0.0272  0.4896 -0.6874
 8522TIP3    H146981   0.914   0.740   6.010  0.4927  0.6469 -1.0318
 8522TIP3    H246982   0.791   0.677   5.947 -0.0297  0.6540 -0.0335
 8523TIP3   OH246983   0.483   2.511  12.463 -0.7271  0.2919  0.5452
 8523TIP3    H146984   0.543   2.473  12.526 -0.2511 -0.0424 -0.0968
 8523TIP3    H246985   0.418   2.558  12.516 -1.4927 -1.6284  1.3752
 8524TIP3   OH246986   5.977   3.255  16.169  0.1718  0.6715  0.8850
 8524TIP3    H146987   6.036   3.185  16.139 -0.2855  0.3809  0.6463
 8524TIP3    H246988   5.916   3.210  16.228 -0.2222  0.8391  0.6069
 8525TIP3   OH246989   4.439   4.628   0.978 -0.2171  0.2192 -0.3713
 8525TIP3    H146990   4.486   4.710   0.996 -0.1762 -0.2189  1.8075
 8525TIP3    H246991   4.357   4.637   1.027 -0.6320 -0.6607 -0.8959
 8526TIP3   OH246992   4.468   3.541  12.372 -0.1206 -0.1227 -0.3021
 8526TIP3    H146993   4.378   3.507  12.374  0.2761 -1.2228 -0.6873
 8526TIP3    H246994   4.521   3.470  12.408  0.4971  0.8947  0.8420
 8527TIP3   OH246995   0.908   6.446   1.326 -0.4565  0.2048  0.4666
 8527TIP3    H146996   0.966   6.389   1.275  0.0136  1.1981 -0.1420
 8527TIP3    H246997   0.937   6.435   1.416  1.6432  1.6527  0.0752
 8528TIP3   OH246998   1.120   6.031   3.765 -0.4951  0.4004  0.0740
 8528TIP3    H146999   1.197   5.977   3.748 -0.4074  0.7459 -0.6668
 8528TIP3    H247000   1.127   6.054   3.858 -1.4105 -2.2008  0.8806
 8529TIP3   OH247001   1.496   0.867  15.832  0.3173 -0.4771  0.5967
 8529TIP3    H147002   1.573   0.876  15.777 -1.7468  0.0586 -2.4618
 8529TIP3    H247003   1.474   0.774  15.830  1.6644 -0.9228  2.8077
 8530TIP3   OH247004   5.887   2.043  14.766  0.1223 -0.4373  0.1340
 8530TIP3    H147005   5.872   2.043  14.671 -1.7368 -3.7339  0.3074
 8530TIP3    H247006   5.801   2.028  14.804  0.8426  0.7899  2.4121
 8531TIP3   OH247007   4.903   6.364  14.300  0.4145  0.0629  0.6636
 8531TIP3    H147008   4.877   6.419  14.225 -1.2884  0.1370  1.2712
 8531TIP3    H247009   4.998   6.374  14.304  0.5993 -0.1915 -1.6748
 8532TIP3   OH247010   0.702   2.950   1.248  0.2129 -0.2964  0.2467
 8532TIP3    H147011   0.637   3.021   1.244  2.1502  1.5571 -0.0134
 8532TIP3    H247012   0.775   2.981   1.195  0.6119 -3.1442 -1.0605
 8533TIP3   OH247013   5.583   2.837  16.895 -0.0969  0.1055 -0.4363
 8533TIP3    H147014   5.537   2.764  16.937 -0.8034  0.0052 -1.3570
 8533TIP3    H247015   5.513   2.891  16.858  0.3337  1.9403  1.2680
 8534TIP3   OH247016   3.031   4.577   5.849  0.1757 -0.5766 -0.0563
 8534TIP3    H147017   3.032   4.655   5.904 -1.9405 -1.3278  1.1465
 8534TIP3    H247018   3.011   4.505   5.908 -1.7728 -1.4814 -1.6722
 8535TIP3   OH247019   1.326   1.638   5.195  0.4935 -0.4557  0.5593
 8535TIP3    H147020   1.244   1.647   5.243  0.2011  0.2558 -0.0425
 8535TIP3    H247021   1.321   1.705   5.126  1.1317 -1.0821 -0.1199
 8536TIP3   OH247022   6.632   0.382   0.689  0.0708 -0.1371  0.1705
 8536TIP3    H147023   6.631   0.444   0.761  1.5328  0.6204 -0.4153
 8536TIP3    H247024   6.586   0.427   0.618  0.5257  0.0033 -0.0377
 8537TIP3   OH247025   5.584   5.654  16.614 -0.3861  0.8346 -0.3753
 8537TIP3    H147026   5.506   5.706  16.632 -0.9465  0.2764 -1.1445
 8537TIP3    H247027   5.550   5.568  16.588  0.5161  0.0225  0.9939
 8538TIP3   OH247028   2.565   4.403  14.079 -0.6982  0.3577  0.5631
 8538TIP3    H147029   2.635   4.468  14.068 -0.1291 -0.2652  0.4419
 8538TIP3    H247030   2.529   4.391  13.991  0.0904 -0.4610  0.3339
 8539TIP3   OH247031   0.082   0.762  11.725 -0.3115  0.0269  0.2497
 8539TIP3    H147032   0.177   0.767  11.734 -0.3169  0.8770 -0.1175
 8539TIP3    H247033   0.067   0.751  11.631 -0.6400  2.1556  0.0135
 8540TIP3   OH247034   5.919   5.302  11.165 -0.9167 -0.0469 -0.1190
 8540TIP3    H147035   5.948   5.385  11.202 -1.8982  0.3247 -0.1539
 8540TIP3    H247036   5.984   5.281  11.099 -0.6154  0.6519 -0.0528
 8541TIP3   OH247037   2.976   5.571   6.215 -0.7269  0.1122 -0.1699
 8541TIP3    H147038   2.951   5.581   6.123 -0.2553  0.4558 -0.2631
 8541TIP3    H247039   2.944   5.650   6.257  1.7174  1.4574 -0.6311
 8542TIP3   OH247040   6.342   2.858  15.198 -0.2740  0.2472  0.0974
 8542TIP3    H147041   6.390   2.778  15.177 -1.5017 -0.5172  0.0594
 8542TIP3    H247042   6.368   2.879  15.287 -0.6445 -0.7573  0.4636
 8543TIP3   OH247043   3.794   3.353  11.513  0.4161  0.6413  0.2810
 8543TIP3    H147044   3.886   3.331  11.498 -0.1893 -1.0963 -1.2169
 8543TIP3    H247045   3.770   3.410  11.440 -0.5479 -1.7301 -1.3754
 8544TIP3   OH247046   6.139   4.224  11.304 -0.5584  0.1085 -0.6986
 8544TIP3    H147047   6.186   4.305  11.286 -0.4994 -0.3945 -3.1677
 8544TIP3    H247048   6.208   4.163  11.333 -0.1139  0.1541 -1.6202
 8545TIP3   OH247049   4.050   4.681  11.616  0.4244 -0.2849  0.5965
 8545TIP3    H147050   3.973   4.707  11.566  0.8934  1.0951  0.5446
 8545TIP3    H247051   4.022   4.603  11.664 -0.7438 -0.2877 -0.0513
 8546TIP3   OH247052   3.684   1.775  11.752 -0.1614 -0.2496  0.4056
 8546TIP3    H147053   3.598   1.747  11.721 -0.0610 -0.9325  0.7420
 8546TIP3    H247054   3.685   1.753  11.845 -0.0630  0.8366  0.6738
 8547TIP3   OH247055   4.449   2.435  11.983 -0.4623  0.0954  0.0024
 8547TIP3    H147056   4.409   2.421  12.068 -2.0187  1.9826 -0.3656
 8547TIP3    H247057   4.409   2.515  11.949  0.3712 -0.3866 -2.3570
 8548TIP3   OH247058   3.616   4.663   5.133  0.1795  0.3007  0.0360
 8548TIP3    H147059   3.667   4.583   5.150 -0.2066 -0.1369 -0.7761
 8548TIP3    H247060   3.536   4.652   5.184 -0.7790 -0.8003 -1.6064
 8549TIP3   OH247061   0.630   3.703  16.398 -0.5573 -0.2731 -0.1987
 8549TIP3    H147062   0.681   3.631  16.359  0.6662  0.8802 -0.8274
 8549TIP3    H247063   0.639   3.690  16.493  1.1952  0.0459 -0.2843
 8550TIP3   OH247064   3.287   1.727  14.736  0.4101  0.5490 -0.4897
 8550TIP3    H147065   3.313   1.813  14.770 -0.3365  0.6652 -0.1836
 8550TIP3    H247066   3.298   1.735  14.641  1.0518  0.7366 -0.4007
 8551TIP3   OH247067   1.724   2.337   0.892  0.3181  0.6383  0.2926
 8551TIP3    H147068   1.697   2.297   0.810 -0.0728  1.1500  0.1705
 8551TIP3    H247069   1.723   2.264   0.955 -0.8405  0.5412  0.1749
 8552TIP3   OH247070   1.081   2.908  16.598 -0.2613 -0.4782  0.7346
 8552TIP3    H147071   1.138   2.975  16.560 -0.1378  0.0952  1.8688
 8552TIP3    H247072   0.994   2.927  16.564  0.3517 -2.2528 -2.2154
 8553TIP3   OH247073   6.579   5.466   5.792  0.3182 -0.3123 -0.4672
 8553TIP3    H147074   6.520   5.428   5.857  0.2892  0.5002 -0.0087
 8553TIP3    H247075   6.635   5.393   5.765 -0.6896 -1.0256 -0.6993
 8554TIP3   OH247076   6.651   0.747   2.591  0.2786  0.2081 -0.2984
 8554TIP3    H147077   6.671   0.758   2.499  0.2636 -0.0960 -0.3411
 8554TIP3    H247078   6.616   0.831   2.620 -3.4374 -0.7277 -1.4905
 8555TIP3   OH247079   5.665   0.044   1.814  0.3449  0.0297 -0.1167
 8555TIP3    H147080   5.629   0.098   1.744  2.7471  0.0490 -1.4519
 8555TIP3    H247081   5.593  -0.014   1.840 -0.6183 -0.0018 -2.6379
 8556TIP3   OH247082   2.110   6.131   5.071 -0.2290 -0.6863 -0.0314
 8556TIP3    H147083   2.159   6.214   5.065 -0.1854 -0.7506 -0.6096
 8556TIP3    H247084   2.090   6.123   5.164 -2.8633  1.5174 -0.2751
 8557TIP3   OH247085   2.149   3.209   2.341  0.5549  0.0700  0.0479
 8557TIP3    H147086   2.099   3.177   2.415  2.2553 -0.0494  1.1902
 8557TIP3    H247087   2.197   3.133   2.309 -2.3666 -0.6721 -3.1840
 8558TIP3   OH247088   6.327   1.850   1.861 -0.5652 -0.0228 -0.2942
 8558TIP3    H147089   6.326   1.946   1.859 -1.8633 -0.0204 -1.2832
 8558TIP3    H247090   6.300   1.824   1.773  0.3958 -1.3156 -0.2391
 8559TIP3   OH247091   0.360   5.659  12.065  0.1672  0.3731 -0.1097
 8559TIP3    H147092   0.265   5.659  12.080  0.4039 -0.4635  1.7301
 8559TIP3    H247093   0.378   5.743  12.022 -0.9621  2.3987  3.0184
 8560TIP3   OH247094   3.378   2.546  15.100  0.2626 -0.4325  0.7793
 8560TIP3    H147095   3.340   2.611  15.159  0.7972  1.0702 -0.4732
 8560TIP3    H247096   3.460   2.586  15.069 -0.7054 -0.4498 -2.1163
 8561TIP3   OH247097   4.174   5.431   4.524 -0.2569 -0.0267 -0.0520
 8561TIP3    H147098   4.269   5.428   4.515 -0.2089  1.1519 -0.1857
 8561TIP3    H247099   4.141   5.431   4.435 -0.4855 -2.0063 -0.0052
 8562TIP3   OH247100   5.018   2.445   1.896 -0.6397  0.1339 -0.6043
 8562TIP3    H147101   4.990   2.367   1.848  2.2607 -0.1579 -1.9821
 8562TIP3    H247102   5.109   2.429   1.918  0.0829  3.1476 -0.9593
 8563TIP3   OH247103   5.769   2.205   0.490 -0.2518  0.0638  0.1176
 8563TIP3    H147104   5.729   2.274   0.436 -0.1993  0.9862  1.2219
 8563TIP3    H247105   5.715   2.128   0.474 -0.7010  0.5224 -0.6521
 8564TIP3   OH247106   6.132   0.585   0.764 -0.2460 -0.0373 -0.1148
 8564TIP3    H147107   6.078   0.652   0.806  0.4210  0.9316 -0.7707
 8564TIP3    H247108   6.219   0.598   0.801 -0.2479 -1.0286  0.2874
 8565TIP3   OH247109   6.585   6.616  17.093 -0.1494  0.3023  0.1302
 8565TIP3    H147110   6.676   6.647  17.097 -0.2707  0.5031  2.2285
 8565TIP3    H247111   6.591   6.531  17.050  1.5726 -1.2794  3.1937
 8566TIP3   OH247112   1.329   0.447  13.015 -0.2272 -0.1544 -0.4287
 8566TIP3    H147113   1.283   0.369  13.046 -0.8103  0.6462  0.7633
 8566TIP3    H247114   1.272   0.482  12.947  1.0322 -1.8860 -2.5173
 8567TIP3   OH247115   3.964   5.974  15.132 -0.3618  0.4366  0.2200
 8567TIP3    H147116   3.937   5.925  15.054 -0.4731  0.2821  0.3545
 8567TIP3    H247117   4.047   5.933  15.158 -1.0562 -0.4877  1.0385
 8568TIP3   OH247118   4.578   6.299  11.178  0.4290 -0.4734  0.4944
 8568TIP3    H147119   4.666   6.268  11.153  0.4432  0.7333 -1.1866
 8568TIP3    H247120   4.595   6.379  11.228  0.3018  0.2156 -0.5361
 8569TIP3   OH247121   3.125   3.040   4.660  0.3925 -0.4000 -0.0250
 8569TIP3    H147122   3.205   2.992   4.683 -0.4635 -2.1903 -0.6353
 8569TIP3    H247123   3.150   3.094   4.585  1.0068 -1.0371 -0.2899
 8570TIP3   OH247124   6.002   3.502   5.329 -0.0819  0.1496 -0.5126
 8570TIP3    H147125   6.009   3.579   5.272  2.1401 -0.5547 -1.2795
 8570TIP3    H247126   5.962   3.536   5.409 -1.2947  1.6075 -1.6698
 8571TIP3   OH247127   3.297   4.997   1.569  0.2309 -0.2490  0.2867
 8571TIP3    H147128   3.280   4.955   1.653 -0.3804 -0.5339  0.0250
 8571TIP3    H247129   3.336   4.928   1.515  0.3437 -0.1498  0.2401
 8572TIP3   OH247130   6.347   1.879  10.961 -0.0525 -0.6919 -0.2508
 8572TIP3    H147131   6.266   1.926  10.981 -0.0567 -0.0133 -1.7445
 8572TIP3    H247132   6.338   1.795  11.005 -1.0673 -0.1861  0.5456
 8573TIP3   OH247133   5.795   6.683  15.594  0.5726  0.0967  0.5908
 8573TIP3    H147134   5.780   6.636  15.512 -0.7883 -1.1708  1.5189
 8573TIP3    H247135   5.869   6.638  15.634  3.4534  2.7080 -1.2962
 8574TIP3   OH247136   3.632   0.832   1.361  0.9363  0.4813  0.1565
 8574TIP3    H147137   3.622   0.768   1.290  1.8231  1.7125 -1.1480
 8574TIP3    H247138   3.701   0.796   1.417 -0.7879 -1.2253  1.2940
 8575TIP3   OH247139   4.898   0.034   6.279 -0.8187  0.0204  0.3748
 8575TIP3    H147140   4.863  -0.015   6.205 -0.6934  0.7122 -0.1503
 8575TIP3    H247141   4.913  -0.033   6.347 -0.1922 -0.7405 -0.4887
 8576TIP3   OH247142   1.017   6.550  14.079 -0.4755 -0.5118 -0.0835
 8576TIP3    H147143   0.981   6.470  14.040 -1.6440 -1.2242  2.2682
 8576TIP3    H247144   0.940   6.605  14.096  0.0418  0.0181  0.6150
 8577TIP3   OH247145   5.665   2.482  10.324 -0.2695  0.4211 -0.4953
 8577TIP3    H147146   5.741   2.423  10.317 -0.3842  0.4203 -2.1584
 8577TIP3    H247147   5.601   2.432  10.375  0.3208 -0.1508 -0.2924
 8578TIP3   OH247148   6.340   4.345   0.714  0.1560  0.4511  0.0254
 8578TIP3    H147149   6.363   4.319   0.804 -0.1515 -3.0307 -0.7689
 8578TIP3    H247150   6.422   4.337   0.666  0.0405  1.0520 -0.2771
 8579TIP3   OH247151   1.223   5.167  15.323  0.1001 -0.4194 -0.6742
 8579TIP3    H147152   1.164   5.112  15.376  0.8209 -0.4577  0.1156
 8579TIP3    H247153   1.311   5.137  15.346  0.5641  1.5656  0.3617
 8580TIP3   OH247154   1.650   2.646  12.072  0.0748  0.0528 -0.0059
 8580TIP3    H147155   1.666   2.566  12.122  0.9541  0.6781  0.7477
 8580TIP3    H247156   1.646   2.617  11.981  1.7586 -0.6778  0.1191
 8581TIP3   OH247157   1.548   3.809  13.939 -0.3972 -0.4445  0.4900
 8581TIP3    H147158   1.621   3.773  13.991 -1.4421 -1.5413  1.2407
 8581TIP3    H247159   1.481   3.741  13.942 -1.5785  0.6720  0.0648
 8582TIP3   OH247160   4.670   4.605   4.938  0.8572 -0.0833 -0.1904
 8582TIP3    H147161   4.649   4.698   4.943 -1.4467 -0.5106 -0.5552
 8582TIP3    H247162   4.666   4.584   4.845 -1.4546 -1.0383  0.0502
 8583TIP3   OH247163   1.454   3.183  16.151  0.2005 -0.2745  0.3521
 8583TIP3    H147164   1.477   3.247  16.083  1.6853  1.8411  2.6761
 8583TIP3    H247165   1.467   3.098  16.109 -0.2828  0.8998 -2.3885
 8584TIP3   OH247166   0.993   4.378   5.167  0.1933 -0.4693 -0.6152
 8584TIP3    H147167   0.931   4.328   5.114 -0.7302 -1.6672  1.4826
 8584TIP3    H247168   0.949   4.390   5.251  1.2852  2.0314 -0.3076
 8585TIP3   OH247169   2.047   1.549   0.809  0.4272  0.0369 -0.2044
 8585TIP3    H147170   2.019   1.598   0.887 -1.1417  1.0052 -1.3154
 8585TIP3    H247171   2.089   1.615   0.753  0.6593 -0.4422 -0.6042
 8586TIP3   OH247172   5.483   1.877  14.364 -0.4171  0.0267 -0.1478
 8586TIP3    H147173   5.403   1.901  14.317 -0.4286 -0.5161 -0.4072
 8586TIP3    H247174   5.531   1.959  14.372 -1.0137  0.3670  0.0374
 8587TIP3   OH247175   3.961   5.681  11.841  0.2273 -0.0573  0.5388
 8587TIP3    H147176   3.947   5.673  11.747 -1.1092  0.8629  0.6271
 8587TIP3    H247177   3.922   5.765  11.864  1.1154  0.0296  1.8180
 8588TIP3   OH247178   0.882   6.346  14.331  0.0855  0.1235 -0.0347
 8588TIP3    H147179   0.923   6.267  14.296 -0.3211  0.6190 -1.7353
 8588TIP3    H247180   0.949   6.414  14.322 -0.1696  0.3494 -0.2460
 8589TIP3   OH247181   0.557   4.896  11.228  0.1566 -0.2394 -0.0842
 8589TIP3    H147182   0.509   4.881  11.147  1.8519 -0.8486 -1.0171
 8589TIP3    H247183   0.647   4.914  11.200  0.4014  1.4803  1.5602
 8590TIP3   OH247184   0.160   6.239  13.745 -0.0064 -0.6382 -0.1596
 8590TIP3    H147185   0.088   6.296  13.719 -0.9556 -0.7691  2.0131
 8590TIP3    H247186   0.212   6.291  13.806  1.2081 -0.9080 -0.9115
 8591TIP3   OH247187   6.741   4.989  16.188 -0.0536 -0.4673 -0.1217
 8591TIP3    H147188   6.810   5.054  16.178 -0.7973  0.3566 -0.0411
 8591TIP3    H247189   6.729   4.953  16.100 -0.0486 -0.0608 -0.2901
 8592TIP3   OH247190   3.317   3.008  12.829 -0.2409  0.2124 -0.2129
 8592TIP3    H147191   3.296   3.092  12.869  0.2113 -0.1862  0.9017
 8592TIP3    H247192   3.413   3.006  12.828 -0.2151  0.6088 -2.2050
 8593TIP3   OH247193   2.303   3.294   5.478 -0.8189  0.1267  0.4974
 8593TIP3    H147194   2.385   3.313   5.433 -2.8025  2.8542 -2.3449
 8593TIP3    H247195   2.278   3.207   5.445 -0.9852  0.9971 -1.8478
 8594TIP3   OH247196   3.094   2.074  12.225 -0.1654  0.5254 -0.1958
 8594TIP3    H147197   3.105   1.984  12.255  2.3780  0.4086 -1.2746
 8594TIP3    H247198   3.001   2.080  12.201 -0.4222 -1.7427  0.0476
 8595TIP3   OH247199   5.889   6.682   4.729 -0.2376  0.9656  0.6404
 8595TIP3    H147200   5.810   6.630   4.714 -0.5909  1.5435  0.4482
 8595TIP3    H247201   5.857   6.760   4.775  0.5251  0.2066  2.5810
 8596TIP3   OH247202   1.511   2.671  11.360 -0.0331 -0.0452 -0.1505
 8596TIP3    H147203   1.534   2.652  11.452  0.1729 -0.0712 -0.2067
 8596TIP3    H247204   1.457   2.749  11.365  1.0974  0.7602 -0.1159
 8597TIP3   OH247205   3.378   0.194  12.129 -0.2731  0.0525 -0.0018
 8597TIP3    H147206   3.441   0.263  12.108  0.7065 -0.8006  0.0231
 8597TIP3    H247207   3.425   0.138  12.191  0.0589 -2.2259 -2.1743
 8598TIP3   OH247208   2.790   1.054   0.604 -0.4700 -0.1922  0.0973
 8598TIP3    H147209   2.777   1.062   0.699  0.2811  3.0377  0.0709
 8598TIP3    H247210   2.731   1.120   0.567 -0.3291 -1.0160 -1.6672
 8599TIP3   OH247211   3.021   0.664  11.323 -0.4042 -0.2932 -0.3023
 8599TIP3    H147212   3.078   0.680  11.247 -2.0763  0.9831 -1.3597
 8599TIP3    H247213   3.014   0.568  11.327  0.5423 -0.4177 -1.0891
 8600TIP3   OH247214   2.608   0.782  11.398  0.2201 -0.0279  0.1743
 8600TIP3    H147215   2.578   0.872  11.404  0.2311 -0.0304  0.2654
 8600TIP3    H247216   2.702   0.786  11.417  0.0614 -0.1679  1.0482
 8601TIP3   OH247217   5.417   1.241   4.942 -0.3612 -0.6703 -0.0602
 8601TIP3    H147218   5.421   1.276   5.032  0.1478 -2.7720  0.7776
 8601TIP3    H247219   5.323   1.238   4.922 -0.4277  1.2911 -0.2585
 8602TIP3   OH247220   3.322   6.679   3.053 -0.6146 -0.4229 -1.0178
 8602TIP3    H147221   3.264   6.735   3.002 -0.8958  1.1050  0.8407
 8602TIP3    H247222   3.274   6.597   3.064 -2.1519  0.5436 -0.1651
 8603TIP3   OH247223   3.419   4.345  13.191  0.6484  0.0984 -0.1116
 8603TIP3    H147224   3.506   4.373  13.221  0.8279 -1.6230  1.1132
 8603TIP3    H247225   3.435   4.307  13.105  1.2130 -0.6203  0.2964
 8604TIP3   OH247226   1.301   6.223  12.877  0.1525  0.5033  0.2044
 8604TIP3    H147227   1.322   6.309  12.840 -0.1069  0.6287  0.3474
 8604TIP3    H247228   1.267   6.172  12.804 -1.1454  1.0119  0.4301
 8605TIP3   OH247229   3.699   1.066  10.921  0.1182  0.2421  0.0355
 8605TIP3    H147230   3.635   1.002  10.953 -1.7346  1.6256 -0.6933
 8605TIP3    H247231   3.765   1.070  10.989  1.3248 -3.6928 -0.6430
 8606TIP3   OH247232   0.399   2.573  11.648  0.4949  0.1649 -0.1140
 8606TIP3    H147233   0.336   2.582  11.576 -0.3739  0.1127  0.6174
 8606TIP3    H247234   0.415   2.663  11.676  1.9827  0.3043 -1.3113
 8607TIP3   OH247235   4.455   3.710   4.563  0.0463 -0.4667 -0.4268
 8607TIP3    H147236   4.408   3.781   4.607  0.6059  0.4900 -1.3152
 8607TIP3    H247237   4.537   3.702   4.611 -0.3137 -1.0236  0.1159
 8608TIP3   OH247238   2.503   2.956   5.126  0.2373  0.9495  0.0727
 8608TIP3    H147239   2.447   2.906   5.067 -0.0247 -0.0361  1.1264
 8608TIP3    H247240   2.526   3.034   5.076  0.7150 -0.2376 -1.6519
 8609TIP3   OH247241   6.574   3.492  13.544 -1.0353 -0.3735  0.4831
 8609TIP3    H147242   6.521   3.548  13.601 -0.5804  0.1731  0.3847
 8609TIP3    H247243   6.664   3.510  13.570 -0.8043  0.0360 -0.5225
 8610TIP3   OH247244   2.678   1.549  11.832  0.3569 -0.7672 -0.0365
 8610TIP3    H147245   2.640   1.520  11.915 -1.3040 -1.1508 -0.8803
 8610TIP3    H247246   2.651   1.641  11.824  2.6845  0.0773  1.0025
 8611TIP3   OH247247   5.800   4.858  14.827  0.1646 -0.0636  0.3241
 8611TIP3    H147248   5.884   4.856  14.781  0.0361  0.4473  0.0606
 8611TIP3    H247249   5.782   4.767  14.849  0.4702 -0.2511 -0.1990
 8612TIP3   OH247250   5.199   6.092  11.206  0.4786  0.5863  0.3160
 8612TIP3    H147251   5.177   6.116  11.116  0.0013  1.0326  0.5474
 8612TIP3    H247252   5.283   6.047  11.199  0.9488  1.5189 -0.2368
 8613TIP3   OH247253   5.143   5.398  11.569  0.1403  0.1446  0.0310
 8613TIP3    H147254   5.101   5.475  11.606  0.2198 -0.3310  1.1514
 8613TIP3    H247255   5.091   5.378  11.491  0.4067  1.5821 -0.5485
 8614TIP3   OH247256   1.503   4.351   6.037 -0.2511 -0.0333 -0.0524
 8614TIP3    H147257   1.479   4.317   6.123 -1.0664  1.1563  0.2110
 8614TIP3    H247258   1.460   4.436   6.031  1.4764  0.8505 -0.8100
 8615TIP3   OH247259   2.285   4.068  12.426 -0.0394 -0.3547  0.0516
 8615TIP3    H147260   2.359   4.113  12.385 -0.3529 -0.2563 -0.4043
 8615TIP3    H247261   2.208   4.116  12.397 -0.2149  0.2943  1.5106
 8616TIP3   OH247262   0.313   4.619  11.302  0.0279 -0.0400 -0.7330
 8616TIP3    H147263   0.263   4.553  11.350 -1.2885  1.4682  0.0314
 8616TIP3    H247264   0.337   4.684  11.367  1.3309  0.2593 -1.4709
 8617TIP3   OH247265   2.598   4.698   3.806  0.2941 -0.3713  0.3599
 8617TIP3    H147266   2.575   4.776   3.755  0.1000 -0.2469  0.6340
 8617TIP3    H247267   2.646   4.732   3.881  0.6847 -0.5662  0.1953
 8618TIP3   OH247268   3.201   0.915  12.937  0.0508  0.5969  0.2163
 8618TIP3    H147269   3.210   0.840  12.878  0.4883  1.3552 -0.7146
 8618TIP3    H247270   3.183   0.989  12.879  1.2094  1.5035  0.9506
 8619TIP3   OH247271   4.363   6.634   5.658  0.1656 -0.0689 -0.2357
 8619TIP3    H147272   4.435   6.687   5.692  0.1273  0.6725 -1.2776
 8619TIP3    H247273   4.309   6.616   5.735  1.3419 -0.4747  0.5295
 8620TIP3   OH247274   6.024   1.230  13.296 -0.2799 -0.4071  0.4916
 8620TIP3    H147275   5.932   1.254  13.288  0.3109  1.9015 -0.2997
 8620TIP3    H247276   6.033   1.197  13.386 -1.9973 -1.4535  0.3159
 8621TIP3   OH247277   0.926   3.939   0.590 -0.2715 -0.0090  0.1455
 8621TIP3    H147278   0.898   3.894   0.510 -0.0090 -0.2294  0.1777
 8621TIP3    H247279   0.846   3.982   0.622 -0.1068  1.1695 -0.9340
 8622TIP3   OH247280   0.938   0.342  11.975  0.1818 -0.2557  0.5475
 8622TIP3    H147281   0.853   0.373  11.944  0.0107 -0.8676  0.3880
 8622TIP3    H247282   0.919   0.262  12.023  0.5538  0.1879  1.4647
 8623TIP3   OH247283   3.183   5.024  16.187 -0.1414 -0.5958 -0.6698
 8623TIP3    H147284   3.223   5.035  16.101 -0.2911  0.3079 -0.6312
 8623TIP3    H247285   3.255   5.038  16.249 -0.0097 -1.3532 -0.6384
 8624TIP3   OH247286   5.266   0.675   5.777 -0.5654  0.1594 -0.1814
 8624TIP3    H147287   5.226   0.711   5.856  0.0927  0.6993 -0.0818
 8624TIP3    H247288   5.229   0.727   5.706  0.2373  0.9355 -0.0538
 8625TIP3   OH247289   5.113   2.462  13.331  0.2295  0.3398 -0.3011
 8625TIP3    H147290   5.087   2.534  13.389 -0.7988 -0.1435 -0.1327
 8625TIP3    H247291   5.058   2.473  13.253 -2.4977 -2.1610  1.0808
 8626TIP3   OH247292   0.005   1.837  15.855  0.4153  0.2160 -0.0041
 8626TIP3    H147293  -0.033   1.771  15.797 -0.1419  0.2353  0.3222
 8626TIP3    H247294   0.019   1.913  15.800  1.1133 -0.1941 -0.3972
 8627TIP3   OH247295   0.303   0.329  11.748  0.2369  0.2804 -0.1161
 8627TIP3    H147296   0.248   0.287  11.813 -2.5935  0.9896 -1.8748
 8627TIP3    H247297   0.387   0.284  11.754 -1.2375 -2.5192  1.1051
 8628TIP3   OH247298   3.386   2.977  15.267  0.3738 -0.0421 -0.2277
 8628TIP3    H147299   3.327   2.970  15.191 -0.8212  1.3359  0.5245
 8628TIP3    H247300   3.420   3.066  15.262  1.8794 -0.5951 -0.2429
 8629TIP3   OH247301   4.925   1.308  15.612 -0.2607  0.1620  0.8307
 8629TIP3    H147302   4.872   1.368  15.664 -0.9540  0.7975 -0.5481
 8629TIP3    H247303   4.864   1.239  15.586  0.2243 -0.4668  1.3500
 8630TIP3   OH247304   0.984   2.070   2.676  0.2198 -0.4371  0.3557
 8630TIP3    H147305   0.981   2.136   2.746 -1.8631 -1.6285  1.5188
 8630TIP3    H247306   1.042   2.002   2.710  0.7867 -0.1245  0.0281
 8631TIP3   OH247307   5.884   1.236   6.164  0.3727  0.3015 -0.0296
 8631TIP3    H147308   5.956   1.273   6.113 -0.5578  0.5703 -1.1714
 8631TIP3    H247309   5.870   1.299   6.235  0.2626  1.0103 -0.6780
 8632TIP3   OH247310   5.515   5.179  16.502 -0.4297  0.4009  0.6457
 8632TIP3    H147311   5.544   5.183  16.593  0.8207 -1.1583  0.3510
 8632TIP3    H247312   5.477   5.266  16.485  2.4799  1.9722  1.5935
 8633TIP3   OH247313   0.214   3.826  11.924 -0.7065 -0.2487  0.6752
 8633TIP3    H147314   0.140   3.869  11.882  0.6022  1.9830  0.4911
 8633TIP3    H247315   0.205   3.847  12.017 -0.0272  0.5229  0.5777
 8634TIP3   OH247316   3.299   1.037   4.455  0.5348 -0.2841 -0.3007
 8634TIP3    H147317   3.330   1.054   4.544 -0.1275  0.9120 -0.2832
 8634TIP3    H247318   3.329   1.112   4.405 -0.8074  0.0324 -0.6601
 8635TIP3   OH247319   6.299   6.586  16.898  0.2130  0.5269  0.5690
 8635TIP3    H147320   6.353   6.576  16.819  0.2171 -0.3551  0.6718
 8635TIP3    H247321   6.343   6.655  16.949 -0.2933  1.7603 -0.5989
 8636TIP3   OH247322   5.638   0.520  11.156 -0.4780 -0.6682  0.1800
 8636TIP3    H147323   5.547   0.507  11.128 -1.5102  2.0328  1.8788
 8636TIP3    H247324   5.688   0.523  11.075 -1.9853 -1.5335 -0.8326
 8637TIP3   OH247325   4.018   6.593  13.322 -0.0387 -0.5870  0.2904
 8637TIP3    H147326   4.076   6.560  13.391 -0.8730 -2.7331  0.0420
 8637TIP3    H247327   3.988   6.514  13.277 -2.1974  0.5393 -0.3526
 8638TIP3   OH247328   2.838   1.590  16.583  0.4554  0.1048 -0.3392
 8638TIP3    H147329   2.754   1.595  16.629  0.6021  1.8716 -0.1984
 8638TIP3    H247330   2.903   1.584  16.652  0.4329 -3.5424 -0.4468
 8639TIP3   OH247331   5.845   5.658   2.040  0.3655 -0.0743 -0.3109
 8639TIP3    H147332   5.931   5.696   2.054  0.4022  0.9871 -2.8811
 8639TIP3    H247333   5.784   5.729   2.059  0.3269  0.6336 -2.7411
 8640TIP3   OH247334   3.965   4.157  12.799  0.0563 -0.1393  0.0926
 8640TIP3    H147335   4.036   4.098  12.825  1.0984  0.2801 -1.6234
 8640TIP3    H247336   3.925   4.115  12.723 -2.2336 -0.8451  1.5795
 8641TIP3   OH247337   5.949   1.344  11.882 -0.4995  0.7098 -0.4266
 8641TIP3    H147338   5.939   1.258  11.843  4.4869 -0.5316  0.3942
 8641TIP3    H247339   5.936   1.330  11.976  0.7883  0.6673 -0.2349
 8642TIP3   OH247340   4.934   5.587  12.478 -0.5158  0.3830  0.2758
 8642TIP3    H147341   4.896   5.542  12.554 -0.8695 -0.7677 -0.5425
 8642TIP3    H247342   4.858   5.620  12.430 -0.4560 -0.8763 -0.7393
 8643TIP3   OH247343   4.595   5.821  11.435  0.3989 -0.0303 -0.1258
 8643TIP3    H147344   4.610   5.885  11.365  0.2932 -0.4464 -0.5423
 8643TIP3    H247345   4.682   5.794  11.463  0.5415  2.3563  2.0387
 8644TIP3   OH247346   0.093   5.061  15.897  0.1339 -0.0078  0.6404
 8644TIP3    H147347   0.148   4.992  15.935 -0.4678  0.2561  2.0603
 8644TIP3    H247348   0.150   5.138  15.896  0.7181 -0.4317 -0.6877
 8645TIP3   OH247349   2.998   2.160   3.755 -0.6364  0.8560 -0.0056
 8645TIP3    H147350   2.923   2.201   3.798 -1.8760 -0.3477 -0.9248
 8645TIP3    H247351   3.073   2.184   3.809 -1.6502  2.2494  0.8369
 8646TIP3   OH247352   0.424   5.646  15.191  0.0817  0.0105  0.4847
 8646TIP3    H147353   0.460   5.557  15.195  0.6180  0.0156 -2.4614
 8646TIP3    H247354   0.497   5.701  15.166 -0.9602  0.6882 -1.2838
 8647TIP3   OH247355   1.667   0.546  13.367 -0.0169  0.3804 -0.5101
 8647TIP3    H147356   1.710   0.465  13.394 -1.1885  0.1545  0.7352
 8647TIP3    H247357   1.676   0.605  13.441 -3.5642 -0.3599  0.7182
 8648TIP3   OH247358   0.058   1.176   0.841  0.7008 -0.1992  0.2875
 8648TIP3    H147359   0.140   1.224   0.851  0.6387  0.0882 -0.5321
 8648TIP3    H247360  -0.010   1.242   0.855  0.6142 -0.0117 -0.9587
 8649TIP3   OH247361   0.714   3.110  11.434  0.1614 -0.1393  0.0683
 8649TIP3    H147362   0.718   3.045  11.364  2.2504 -0.8290  0.7392
 8649TIP3    H247363   0.710   3.194  11.389 -0.1201 -0.6278 -0.8503
 8650TIP3   OH247364   4.692   6.090  10.618 -0.4449 -0.0687  0.8320
 8650TIP3    H147365   4.641   6.032  10.675 -2.2205 -0.5442 -1.1413
 8650TIP3    H247366   4.643   6.172  10.616  0.5490  0.5654  1.3448
 8651TIP3   OH247367   0.503   0.538  14.998  0.2048  0.7815  0.1461
 8651TIP3    H147368   0.439   0.528  14.927  0.6559 -0.6495 -0.0913
 8651TIP3    H247369   0.470   0.612  15.049 -1.1785  0.6245 -0.4577
 8652TIP3   OH247370   2.149   5.260  13.079  0.2520 -0.8646  0.3533
 8652TIP3    H147371   2.098   5.186  13.047  0.8907 -1.8636  1.5818
 8652TIP3    H247372   2.106   5.285  13.161  0.0482  0.1423 -0.0397
 8653TIP3   OH247373   1.818   3.154   3.125  0.2507  0.0695 -0.5912
 8653TIP3    H147374   1.797   3.240   3.161  3.0222  0.8501 -0.6024
 8653TIP3    H247375   1.885   3.119   3.184 -0.0250 -1.6019 -1.2225
 8654TIP3   OH247376   2.333   2.133  13.848  1.1242  0.1023  0.3945
 8654TIP3    H147377   2.395   2.171  13.911 -1.3779  2.3658  1.6987
 8654TIP3    H247378   2.320   2.043  13.878  1.2454  0.6272  2.1194
 8655TIP3   OH247379   3.550   1.410  13.732 -0.4403  0.2357 -0.1795
 8655TIP3    H147380   3.553   1.473  13.659 -1.6860 -1.2964 -1.6315
 8655TIP3    H247381   3.598   1.334  13.699  2.6223  0.9277  2.2081
 8656TIP3   OH247382   2.015   3.070   1.954  0.0510  0.1858 -0.3692
 8656TIP3    H147383   1.968   3.065   2.037  0.8581 -1.5715  0.0148
 8656TIP3    H247384   1.968   3.136   1.903 -0.5546  1.1697  1.4061
 8657TIP3   OH247385   3.805   4.893  11.142  0.5327  0.0559 -0.7916
 8657TIP3    H147386   3.744   4.835  11.096 -0.0451  0.5145 -0.6219
 8657TIP3    H247387   3.850   4.940  11.073  0.8292 -0.4175 -0.9246
 8658TIP3   OH247388   3.582   2.544   2.545 -0.1300 -0.1359  0.2229
 8658TIP3    H147389   3.634   2.496   2.481 -0.6426  0.3239 -0.5604
 8658TIP3    H247390   3.585   2.491   2.624 -0.6437 -1.4497 -0.6102
 8659TIP3   OH247391   6.742   3.815   1.727  0.5783 -0.4270 -0.9356
 8659TIP3    H147392   6.766   3.723   1.737  1.4963 -0.0942  0.2797
 8659TIP3    H247393   6.811   3.862   1.775  0.6848  0.9517 -2.3839
 8660TIP3   OH247394   1.559   1.900   4.268  1.0614 -0.0062 -0.3249
 8660TIP3    H147395   1.571   1.895   4.363  3.2533  0.8440 -0.4901
 8660TIP3    H247396   1.572   1.810   4.238 -2.4212 -0.8603  0.3435
 8661TIP3   OH247397   2.953   0.174  14.078 -0.1646  0.0452  0.4985
 8661TIP3    H147398   2.973   0.178  14.172 -0.3075 -0.2049  0.5399
 8661TIP3    H247399   3.029   0.129  14.040 -1.1101 -1.9285  0.8092
 8662TIP3   OH247400   0.543   0.539  14.596  0.5862  0.3004  0.2185
 8662TIP3    H147401   0.479   0.471  14.574  0.7095 -0.2202  1.3529
 8662TIP3    H247402   0.500   0.591  14.664  0.7416  0.9598 -0.1861
 8663TIP3   OH247403   2.953   4.007   1.636  0.1983  0.1323  0.4956
 8663TIP3    H147404   2.977   4.090   1.677 -1.3894  0.5296  0.6909
 8663TIP3    H247405   2.964   3.942   1.706  0.5278  0.3243  0.6236
 8664TIP3   OH247406   3.537   1.349   3.095  0.1181 -0.1858 -0.3048
 8664TIP3    H147407   3.620   1.342   3.142  0.6232 -0.4201 -1.1917
 8664TIP3    H247408   3.512   1.258   3.078 -0.1478 -0.1076 -0.3215
 8665TIP3   OH247409   4.264   3.652   0.613 -0.0705 -0.2014 -0.0091
 8665TIP3    H147410   4.259   3.695   0.699 -0.0213  0.5037 -0.3520
 8665TIP3    H247411   4.194   3.693   0.562 -0.1120 -0.6347 -0.3061
 8666TIP3   OH247412   2.413   0.864  12.284 -0.6815  0.3544 -0.0992
 8666TIP3    H147413   2.455   0.902  12.362 -0.2413  1.8706 -1.0254
 8666TIP3    H247414   2.321   0.855  12.308 -0.3846 -0.1738  0.9304
 8667TIP3   OH247415   2.056   1.997   3.866 -0.0604  0.1049 -0.4904
 8667TIP3    H147416   2.151   1.995   3.854  0.1619 -1.2182  1.1708
 8667TIP3    H247417   2.043   2.063   3.934 -0.1833 -0.6967  0.2749
 8668TIP3   OH247418   6.060   6.047  13.769 -0.2373 -0.4518  0.4022
 8668TIP3    H147419   6.084   5.962  13.732 -0.6097  0.5769 -2.3994
 8668TIP3    H247420   6.132   6.105  13.746 -0.4161  0.2325  1.4845
 8669TIP3   OH247421   5.295   5.805  12.283  0.1072  0.1466 -0.1455
 8669TIP3    H147422   5.333   5.803  12.371  1.7214  1.8370 -0.7263
 8669TIP3    H247423   5.214   5.755  12.290  0.5061 -0.2700  2.1471
 8670TIP3   OH247424   0.555   2.962  13.727  0.3043  0.0950 -0.1333
 8670TIP3    H147425   0.611   2.962  13.650  0.3029  0.1407 -0.1341
 8670TIP3    H247426   0.607   3.005  13.795  0.0047  0.7767 -0.3287
 8671TIP3   OH247427   4.795   3.622  13.559 -0.3876  0.3030  0.5701
 8671TIP3    H147428   4.761   3.699  13.603  2.8904  2.3458 -0.1403
 8671TIP3    H247429   4.774   3.635  13.467 -0.7797 -0.2369  0.5758
 8672TIP3   OH247430   2.377   2.491  13.740  0.4821  0.0675  0.5958
 8672TIP3    H147431   2.345   2.573  13.779 -1.3720 -0.6323  0.6773
 8672TIP3    H247432   2.435   2.518  13.670 -1.1348  1.5223 -0.2463
 8673TIP3   OH247433   0.734   0.940   2.744 -0.2855 -0.2540  0.2934
 8673TIP3    H147434   0.781   0.860   2.765 -1.4625 -0.8396  0.7839
 8673TIP3    H247435   0.750   0.954   2.651 -1.0185 -1.7253 -0.0844
 8674TIP3   OH247436   5.208   1.438  17.229 -0.0721 -0.5595  0.3266
 8674TIP3    H147437   5.209   1.419  17.323 -0.2022  1.2718  0.7229
 8674TIP3    H247438   5.122   1.478  17.214  1.0917  2.0498  0.0901
 8675TIP3   OH247439   1.638   2.404  11.457  0.0397 -0.6486  0.4465
 8675TIP3    H147440   1.678   2.438  11.537  1.5107 -1.3328  0.0255
 8675TIP3    H247441   1.558   2.360  11.487  1.2071 -2.0040  1.7290
 8676TIP3   OH247442   4.698   5.571   1.629 -0.1459  0.1065 -0.4469
 8676TIP3    H147443   4.682   5.536   1.717 -0.6239  1.6601  0.1255
 8676TIP3    H247444   4.777   5.527   1.599 -0.5632 -1.2292  0.3252
 8677TIP3   OH247445   2.179   2.251   0.251 -0.0026  0.2173 -0.4931
 8677TIP3    H147446   2.185   2.205   0.168  1.0913 -0.4838 -0.0474
 8677TIP3    H247447   2.085   2.253   0.271 -0.1300 -1.3647 -0.7931
 8678TIP3   OH247448   4.133   5.439   4.242 -0.4585 -0.2620  0.4521
 8678TIP3    H147449   4.192   5.457   4.169  0.1870  2.0721  1.4343
 8678TIP3    H247450   4.046   5.464   4.209 -0.3799 -0.4549  0.0886
 8679TIP3   OH247451   4.054   2.764   0.006 -0.0270  0.0538  0.1817
 8679TIP3    H147452   3.992   2.706  -0.038  2.5743 -2.7431 -0.1411
 8679TIP3    H247453   4.077   2.829  -0.061 -0.3144 -0.7399 -0.7075
 8680TIP3   OH247454   2.343   4.737   5.791 -0.0541 -0.1130  0.0283
 8680TIP3    H147455   2.427   4.695   5.809  0.2791  1.4766  2.7522
 8680TIP3    H247456   2.282   4.695   5.851 -1.0047 -0.4929 -1.1617
 8681TIP3   OH247457   5.751   4.047  11.904 -0.0855  0.0736 -0.0726
 8681TIP3    H147458   5.658   4.067  11.907 -0.2699 -0.5055 -1.2809
 8681TIP3    H247459   5.795   4.127  11.934 -0.9308  0.6661 -0.4039
 8682TIP3   OH247460   6.520   5.507  12.476 -0.3226 -0.1595 -0.0539
 8682TIP3    H147461   6.521   5.513  12.381  1.3584  0.2296 -0.0372
 8682TIP3    H247462   6.510   5.413  12.493 -0.4829 -0.2486 -0.6089
 8683TIP3   OH247463   6.300   6.639   3.866 -0.7156  0.4000  0.2863
 8683TIP3    H147464   6.354   6.689   3.804 -0.1538  0.4506  0.8030
 8683TIP3    H247465   6.252   6.706   3.915 -0.4552  0.4084  0.5342
 8684TIP3   OH247466   1.358   4.879  16.158 -0.0769  0.1061 -0.3619
 8684TIP3    H147467   1.432   4.939  16.145 -0.4023  0.1190 -2.5637
 8684TIP3    H247468   1.285   4.935  16.184  0.1975  0.3358 -0.0702
 8685TIP3   OH247469   0.161   6.156  13.193  0.4903  0.2256 -0.0830
 8685TIP3    H147470   0.223   6.135  13.123  0.0071  0.3291 -0.5511
 8685TIP3    H247471   0.149   6.073  13.240  3.6940  0.9161  2.2874
 8686TIP3   OH247472   6.271   4.253   2.339  0.0217 -0.1541 -0.4034
 8686TIP3    H147473   6.352   4.236   2.387 -0.4325  0.1942  0.5160
 8686TIP3    H247474   6.202   4.233   2.402 -0.5786  1.2653 -0.5808
 8687TIP3   OH247475   0.525   3.837   0.696  0.3090  0.2179 -0.1231
 8687TIP3    H147476   0.433   3.814   0.712  0.3870  0.5324  0.8261
 8687TIP3    H247477   0.575   3.765   0.733  0.4967  1.0418  1.3161
 8688TIP3   OH247478   3.855   6.307  15.512  0.2684  0.0281 -0.7380
 8688TIP3    H147479   3.789   6.317  15.443  0.5664  0.3422 -0.9808
 8688TIP3    H247480   3.910   6.235  15.482  0.9629  0.7810 -1.2885
 8689TIP3   OH247481   5.193   6.338  15.164  0.1515  0.0781 -0.1791
 8689TIP3    H147482   5.266   6.358  15.222 -0.0960 -0.9907  0.5267
 8689TIP3    H247483   5.115   6.367  15.211  0.0711  0.7368 -0.7059
 8690TIP3   OH247484   4.764   5.080   2.130  0.2674  0.4900 -0.0316
 8690TIP3    H147485   4.819   5.017   2.177  0.3020 -0.0932 -0.8391
 8690TIP3    H247486   4.719   5.128   2.199  0.3221 -0.3499  0.6070
 8691TIP3   OH247487   1.396   3.647  10.860  0.7497  0.5559 -0.4374
 8691TIP3    H147488   1.396   3.569  10.805  0.8748 -0.4976  0.9938
 8691TIP3    H247489   1.305   3.657  10.888  1.0301 -0.1783  0.8259
 8692TIP3   OH247490   6.715   2.435  11.325 -0.1177  0.1663  0.6762
 8692TIP3    H147491   6.699   2.342  11.314 -0.5037  0.1094  1.5696
 8692TIP3    H247492   6.750   2.465  11.241 -1.1754 -0.5346 -0.0321
 8693TIP3   OH247493   4.213   6.688  14.136 -0.2377 -0.7104 -0.3836
 8693TIP3    H147494   4.299   6.698  14.176 -0.7444  0.1207  0.5510
 8693TIP3    H247495   4.212   6.752  14.065  0.5546 -1.9767 -1.5729
 8694TIP3   OH247496   5.536   5.306   6.101 -0.1936 -0.0069 -1.1347
 8694TIP3    H147497   5.536   5.213   6.126 -1.2173  0.4251  0.6608
 8694TIP3    H247498   5.560   5.352   6.181  1.3288  1.2722 -2.2648
 8695TIP3   OH247499   2.476   5.730   3.064  0.1925 -0.3829  0.1203
 8695TIP3    H147500   2.501   5.729   2.972  0.0938 -1.2396  0.0943
 8695TIP3    H247501   2.558   5.723   3.113  0.1306 -1.6504  0.0617
 8696TIP3   OH247502   3.653   5.516  14.257 -0.1393  0.0908  0.3462
 8696TIP3    H147503   3.683   5.508  14.167  2.1276  1.7704  0.8599
 8696TIP3    H247504   3.706   5.453  14.306 -2.1717 -1.6716  0.4299
 8697TIP3   OH247505   3.387   4.114   3.438  0.1852 -0.4162  0.1529
 8697TIP3    H147506   3.372   4.127   3.532  0.7723 -0.5050  0.2614
 8697TIP3    H247507   3.474   4.151   3.423 -0.4061  0.7492 -0.6022
 8698TIP3   OH247508   0.654   0.797   6.210 -0.0550  0.2297 -0.3695
 8698TIP3    H147509   0.716   0.738   6.252  1.1073  1.3950 -0.3954
 8698TIP3    H247510   0.570   0.752   6.217  0.6569 -1.0463  0.3291
 8699TIP3   OH247511   4.095   0.470   3.424  0.1326 -0.5815 -0.2811
 8699TIP3    H147512   4.020   0.427   3.465  0.3475  0.0113  0.7408
 8699TIP3    H247513   4.134   0.401   3.370 -1.3666 -0.7965 -1.1680
 8700TIP3   OH247514   1.507   4.460  16.659 -0.1280  0.3425  0.2194
 8700TIP3    H147515   1.528   4.387  16.717  2.1158  0.4989 -0.2772
 8700TIP3    H247516   1.429   4.500  16.697 -0.6476 -1.5146  1.2241
 8701TIP3   OH247517   2.071   2.338  14.732 -0.1428 -0.0027  0.3129
 8701TIP3    H147518   2.065   2.370  14.642  1.1314 -0.3827  0.0701
 8701TIP3    H247519   2.034   2.250  14.729 -2.6094  0.9392  0.7532
 8702TIP3   OH247520   0.189   3.420   3.559 -0.2915 -0.1255  0.1370
 8702TIP3    H147521   0.154   3.499   3.518 -1.7595 -0.1569  1.2487
 8702TIP3    H247522   0.257   3.391   3.499 -0.7208  1.1602 -1.0458
 8703TIP3   OH247523   3.828   1.266   3.204  0.6561  1.0539 -0.2711
 8703TIP3    H147524   3.910   1.239   3.245 -0.1348  0.1995  0.7826
 8703TIP3    H247525   3.842   1.252   3.110  0.8601 -1.4984  0.0833
 8704TIP3   OH247526   3.765   2.481   6.385  0.0656 -0.1250  0.0291
 8704TIP3    H147527   3.851   2.479   6.343 -0.2952  1.4290 -0.8603
 8704TIP3    H247528   3.782   2.514   6.473  0.5556 -1.3051  0.3888
 8705TIP3   OH247529   1.663   4.483   1.008  0.6007  0.7343 -0.1357
 8705TIP3    H147530   1.730   4.543   0.976  1.5283 -0.0543  0.2628
 8705TIP3    H247531   1.712   4.417   1.058 -0.4296 -0.0832 -0.1672
 8706TIP3   OH247532   4.560   6.098   0.203 -0.0619 -0.5823 -0.5615
 8706TIP3    H147533   4.656   6.096   0.208  0.1333  1.5820 -2.0985
 8706TIP3    H247534   4.534   6.005   0.202  1.9742 -1.2128  0.0037
 8707TIP3   OH247535   3.526   3.483  14.170  0.1093 -0.3261  0.1425
 8707TIP3    H147536   3.467   3.524  14.233 -0.5382 -0.8567 -0.0991
 8707TIP3    H247537   3.612   3.486  14.211  0.0250  0.9608  0.2649
 8708TIP3   OH247538   2.671   0.648   1.102 -0.2588  0.2444  0.6312
 8708TIP3    H147539   2.692   0.739   1.122  0.3444  0.3882 -0.5921
 8708TIP3    H247540   2.756   0.606   1.087 -0.5108 -0.6036  1.4682
 8709TIP3   OH247541   4.787   0.405  11.380 -0.2496 -0.1554  0.0755
 8709TIP3    H147542   4.719   0.338  11.372 -0.7575  0.2696  0.6733
 8709TIP3    H247543   4.817   0.420  11.291 -0.1649 -1.1350 -0.0734
 8710TIP3   OH247544   2.353   6.393   1.431  0.0464 -0.2637  0.4262
 8710TIP3    H147545   2.369   6.374   1.523  1.4551  1.9573  0.7058
 8710TIP3    H247546   2.363   6.488   1.423 -0.0774 -0.3734 -2.0073
 8711TIP3   OH247547   3.621   4.267  13.823  0.6176 -0.0325 -0.3727
 8711TIP3    H147548   3.573   4.261  13.741  1.8632  0.2954 -1.1460
 8711TIP3    H247549   3.578   4.338  13.871 -0.7810 -0.9262 -0.2621
 8712TIP3   OH247550   1.321   4.341  14.872  0.3672 -0.2897  0.2141
 8712TIP3    H147551   1.335   4.433  14.849  1.4637  0.0775  2.0799
 8712TIP3    H247552   1.385   4.293  14.820  1.0635  0.2323  0.5715
 8713TIP3   OH247553   1.640   3.019   0.256 -0.0766 -0.0013 -0.1270
 8713TIP3    H147554   1.549   3.008   0.227 -0.0768  0.2047 -0.2051
 8713TIP3    H247555   1.643   3.109   0.290  0.1311  0.0325 -0.2394
 8714TIP3   OH247556   4.409   1.142  16.189  0.0646 -0.1995 -0.0969
 8714TIP3    H147557   4.493   1.181  16.214  0.1376 -0.9580  0.8780
 8714TIP3    H247558   4.377   1.198  16.118  0.5776  1.1122  0.6821
 8715TIP3   OH247559   0.029   5.287   0.479 -0.1492  0.1936 -0.1545
 8715TIP3    H147560   0.014   5.303   0.386 -0.9796  0.9859  0.1047
 8715TIP3    H247561  -0.049   5.240   0.508  0.2464 -0.3257  0.0839
 8716TIP3   OH247562   6.177   5.352  15.173 -0.1590  0.3653  0.4340
 8716TIP3    H147563   6.252   5.300  15.146  0.1621  0.1724  1.6511
 8716TIP3    H247564   6.214   5.435  15.203 -0.6198  1.0988 -0.9454
 8717TIP3   OH247565   0.423   4.725  11.749 -0.0783 -0.1418 -0.0691
 8717TIP3    H147566   0.417   4.759  11.838  0.5989 -1.4046  0.4905
 8717TIP3    H247567   0.516   4.705  11.737 -0.3527 -1.2165 -0.5741
 8718TIP3   OH247568   4.235   5.248  16.305  0.5657 -0.3590  0.8996
 8718TIP3    H147569   4.215   5.341  16.312  0.1711 -0.3022 -0.6100
 8718TIP3    H247570   4.329   5.245  16.289  0.4458 -0.1515  0.1032
 8719TIP3   OH247571   0.508   1.798  12.311 -0.7487  1.1202 -0.0064
 8719TIP3    H147572   0.587   1.829  12.266  0.2022 -1.4146 -0.2746
 8719TIP3    H247573   0.526   1.812  12.404 -0.3683  1.4136 -0.1218
 8720TIP3   OH247574   3.070   4.420  17.006  0.1895  0.1629 -0.2577
 8720TIP3    H147575   3.134   4.363  17.048  1.0714  0.6902 -0.8670
 8720TIP3    H247576   3.122   4.479  16.952 -0.7428  1.3238  0.0836
 8721TIP3   OH247577   0.271   4.490  11.774  0.3546  0.3062 -0.3832
 8721TIP3    H147578   0.205   4.524  11.834  2.1344  1.8918  0.7962
 8721TIP3    H247579   0.304   4.567  11.728 -0.1967 -0.7492 -2.6981
 8722TIP3   OH247580   3.381   1.266  15.175 -0.0271  0.4021  0.0328
 8722TIP3    H147581   3.321   1.204  15.217  0.0216  0.7086  0.5775
 8722TIP3    H247582   3.361   1.350  15.218 -0.4505  0.8720 -1.0530
 8723TIP3   OH247583   5.011   4.098  14.757  0.6900 -0.2142  0.0266
 8723TIP3    H147584   4.954   4.034  14.714  1.0877 -0.9259  0.5179
 8723TIP3    H247585   5.091   4.098  14.704  0.4058  0.4371 -0.4001
 8724TIP3   OH247586   1.656   6.239   5.840 -0.4885  0.0526 -0.3054
 8724TIP3    H147587   1.605   6.212   5.916  0.4831  0.1983  0.4152
 8724TIP3    H247588   1.731   6.286   5.877 -1.1997  2.2181 -1.4289
 8725TIP3   OH247589   1.274   0.386  13.603 -0.1906  0.6549 -0.4678
 8725TIP3    H147590   1.236   0.300  13.620 -0.7661  0.9281 -0.3590
 8725TIP3    H247591   1.326   0.374  13.524  0.5973 -0.0500  0.1407
 8726TIP3   OH247592   4.933   1.378   3.656  0.9821 -0.3480  0.0165
 8726TIP3    H147593   4.870   1.356   3.587  2.3406 -2.9996 -0.5050
 8726TIP3    H247594   4.880   1.386   3.736 -0.0632 -2.6530 -0.3802
 8727TIP3   OH247595   3.445   0.585  13.659 -0.2317 -0.6125  0.1645
 8727TIP3    H147596   3.415   0.499  13.688  0.6543 -1.5428 -1.4907
 8727TIP3    H247597   3.541   0.576  13.655 -0.0718  0.7179  0.7270
 8728TIP3   OH247598   2.152   5.810  16.513  0.4469 -0.1188 -0.3407
 8728TIP3    H147599   2.213   5.875  16.548 -1.0479  1.2711 -0.1620
 8728TIP3    H247600   2.194   5.777  16.433  0.8497  1.8168 -0.9771
 8729TIP3   OH247601   1.741   6.662  13.898 -0.3037  0.6709  0.3544
 8729TIP3    H147602   1.810   6.604  13.865 -0.7467 -0.1194  0.8020
 8729TIP3    H247603   1.783   6.748  13.901  0.0000  0.6264 -1.4555
 8730TIP3   OH247604   2.950   4.690  11.031 -0.2221 -0.2300 -0.7320
 8730TIP3    H147605   2.906   4.640  11.100  1.0847 -0.4593 -0.0072
 8730TIP3    H247606   2.880   4.732  10.982 -1.2367  2.8073  2.8203
 8731TIP3   OH247607   2.366   2.658  11.651 -0.3588  0.1024 -0.1791
 8731TIP3    H147608   2.298   2.723  11.668 -0.0823  0.4153 -0.2651
 8731TIP3    H247609   2.368   2.650  11.556 -1.6060 -1.3309 -0.1273
 8732TIP3   OH247610   6.765   4.913   3.670  0.3854  0.5569 -0.5733
 8732TIP3    H147611   6.828   4.918   3.598  0.1106  1.6042 -0.7588
 8732TIP3    H247612   6.693   4.970   3.643 -1.1141 -1.3662 -0.8116
 8733TIP3   OH247613   1.928   5.912   4.223  0.4064  0.4728  0.4256
 8733TIP3    H147614   1.945   5.869   4.139  1.0632  1.6290 -0.0605
 8733TIP3    H247615   2.013   5.915   4.266  0.8276  2.9784 -0.4101
 8734TIP3   OH247616   2.244   0.789   3.988 -0.1954  0.0700  0.4994
 8734TIP3    H147617   2.161   0.818   3.951 -0.3643  0.2864  1.0488
 8734TIP3    H247618   2.230   0.696   4.008  0.2153 -0.3153 -0.8798
 8735TIP3   OH247619   3.659   1.982  16.453 -0.2154 -0.5001  0.2151
 8735TIP3    H147620   3.647   1.933  16.535  1.1387 -2.4526 -0.6812
 8735TIP3    H247621   3.753   1.977  16.436 -0.5827 -0.9429 -1.9290
 8736TIP3   OH247622   5.076   1.686  14.913  0.5997 -0.5000 -0.2870
 8736TIP3    H147623   5.035   1.627  14.849 -0.5859 -0.2154  0.1931
 8736TIP3    H247624   5.164   1.701  14.878  0.5337 -1.6399 -1.0074
 8737TIP3   OH247625   5.799   1.773   2.672  0.1221  0.0119 -0.3152
 8737TIP3    H147626   5.774   1.784   2.580  0.5772 -0.4739 -0.4988
 8737TIP3    H247627   5.745   1.837   2.719 -0.3148  0.0694 -0.8856
 8738TIP3   OH247628   0.023   2.279   1.647  0.2153 -0.3454  0.2260
 8738TIP3    H147629  -0.043   2.216   1.618  1.1347 -0.5738 -1.5123
 8738TIP3    H247630   0.035   2.338   1.572  1.2505  0.3050  0.8725
 8739TIP3   OH247631   2.542   5.532  13.810  0.2938  0.8807  0.1823
 8739TIP3    H147632   2.607   5.579  13.862  0.8564 -2.4157  2.8197
 8739TIP3    H247633   2.472   5.512  13.872 -0.2027 -1.1080 -0.9188
 8740TIP3   OH247634   0.721   1.044  14.285 -0.7171  0.3994 -0.0413
 8740TIP3    H147635   0.743   0.980  14.352 -2.0778  0.4242  0.4696
 8740TIP3    H247636   0.752   1.127  14.320  1.1313  0.0484 -0.7441
 8741TIP3   OH247637   2.592   0.781   2.808 -0.4020 -0.4426 -0.1846
 8741TIP3    H147638   2.681   0.752   2.827 -0.5307 -0.2567  0.7256
 8741TIP3    H247639   2.585   0.868   2.848 -0.3376  0.4543 -2.0210
 8742TIP3   OH247640   1.159   6.251   3.279  0.6492 -0.6134 -0.4143
 8742TIP3    H147641   1.098   6.228   3.349  2.0133 -0.3425  0.9138
 8742TIP3    H247642   1.143   6.185   3.211 -1.1373 -0.5148 -0.1531
 8743TIP3   OH247643   4.341   1.996  11.377 -0.0031 -0.3014 -0.3377
 8743TIP3    H147644   4.278   1.930  11.405 -1.5144  1.6048  1.0703
 8743TIP3    H247645   4.363   2.044  11.457  1.4683  0.5652 -1.2148
 8744TIP3   OH247646   4.637   1.610  14.887  0.0466  0.1832 -0.2229
 8744TIP3    H147647   4.542   1.608  14.877 -0.0402 -0.6714  0.6166
 8744TIP3    H247648   4.670   1.577  14.804 -0.4756 -1.6239  0.2385
 8745TIP3   OH247649   4.265   5.098   6.220 -0.2414 -0.0405 -0.1007
 8745TIP3    H147650   4.324   5.133   6.287  1.2210 -0.4120 -1.1324
 8745TIP3    H247651   4.191   5.158   6.219  1.6035  2.3695 -0.9466
 8746TIP3   OH247652   2.399   2.905  11.872 -0.3929  0.5990 -0.6648
 8746TIP3    H147653   2.447   2.960  11.811  0.1892  0.5729 -0.2407
 8746TIP3    H247654   2.346   2.965  11.923 -0.8220  0.6278 -1.1437
 8747TIP3   OH247655   6.231   1.032  14.500 -0.4209  0.0046  0.5472
 8747TIP3    H147656   6.171   0.987  14.440  0.6003  0.7656 -1.0984
 8747TIP3    H247657   6.278   0.961  14.544 -0.5866 -0.5557 -0.1676
 8748TIP3   OH247658   5.088   1.088   2.584  0.5303  0.1608 -0.3054
 8748TIP3    H147659   5.134   1.074   2.501 -0.2661  2.3053 -1.1700
 8748TIP3    H247660   4.998   1.064   2.566  0.3523  0.6371 -0.0647
 8749TIP3   OH247661   2.172   2.166   4.423 -0.1379  0.5548  0.9126
 8749TIP3    H147662   2.138   2.255   4.431 -0.7792  0.4693 -0.6150
 8749TIP3    H247663   2.094   2.111   4.415  0.1922  0.3909 -3.0529
 8750TIP3   OH247664   1.406   4.354  17.043  0.0330  0.0287 -0.2823
 8750TIP3    H147665   1.478   4.297  17.016  0.7388  1.1299 -0.7857
 8750TIP3    H247666   1.328   4.300  17.034  0.6903 -0.8839 -0.6656
 8751TIP3   OH247667   5.692   6.364   5.487 -0.2158  0.1210  1.0125
 8751TIP3    H147668   5.785   6.351   5.468 -0.4880 -0.0539 -0.2847
 8751TIP3    H247669   5.646   6.314   5.420 -1.2507  1.9700  0.2579
 8752TIP3   OH247670   1.530   3.659   0.269 -0.0361 -0.0757 -0.6693
 8752TIP3    H147671   1.527   3.568   0.298  0.1425  0.2100  0.2883
 8752TIP3    H247672   1.558   3.655   0.178  2.0923 -0.8639 -0.0250
 8753TIP3   OH247673   0.718   2.428   1.624  0.0612 -0.4095 -0.0882
 8753TIP3    H147674   0.703   2.519   1.596  0.7598 -0.3538 -0.2898
 8753TIP3    H247675   0.713   2.432   1.720  1.2716  0.0729 -0.0244
 8754TIP3   OH247676   3.099   2.193  13.481 -0.0016 -0.3723 -0.1967
 8754TIP3    H147677   3.122   2.100  13.492  1.2660 -0.1102 -0.4422
 8754TIP3    H247678   3.036   2.193  13.409 -1.4809 -1.2111  1.0474
 8755TIP3   OH247679   4.125   6.435   4.051 -0.2523 -0.8679 -0.9623
 8755TIP3    H147680   4.185   6.429   3.977  0.4851  0.1285 -0.4791
 8755TIP3    H247681   4.176   6.477   4.120 -0.2950 -3.5456  0.8226
 8756TIP3   OH247682   1.032   5.119   3.630  0.4514 -0.3067  0.0162
 8756TIP3    H147683   1.127   5.108   3.630  0.4937  0.0614 -0.0388
 8756TIP3    H247684   1.012   5.163   3.712  0.2271 -1.2136  0.4611
 8757TIP3   OH247685   5.556   6.624   2.808 -0.1833 -0.1886  0.0883
 8757TIP3    H147686   5.496   6.567   2.854  0.0288  0.0730  0.6918
 8757TIP3    H247687   5.603   6.566   2.747 -0.4983 -0.5189  0.1592
 8758TIP3   OH247688   2.174   6.043   1.854  0.2454  0.7029  0.2979
 8758TIP3    H147689   2.166   6.070   1.763 -0.4055  0.7741  0.3724
 8758TIP3    H247690   2.121   6.105   1.903 -1.9593 -1.1195  0.3778
 8759TIP3   OH247691   3.253   1.563   4.003 -0.0810 -0.1618 -0.0957
 8759TIP3    H147692   3.308   1.637   3.975 -1.1248  0.4444 -0.5721
 8759TIP3    H247693   3.207   1.596   4.081  0.0362 -0.5846  0.1545
 8760TIP3   OH247694   6.012   5.291   3.011 -0.0413 -0.5811 -0.0931
 8760TIP3    H147695   6.079   5.335   3.063  0.0199 -0.2588 -0.4363
 8760TIP3    H247696   6.037   5.309   2.920 -0.2901 -0.9153 -0.2278
 8761TIP3   OH247697   3.016   3.386  12.198 -0.2030  0.2750  0.5490
 8761TIP3    H147698   3.111   3.374  12.201 -0.4321 -1.8621  1.1894
 8761TIP3    H247699   2.982   3.321  12.260 -2.1056  0.8284  0.1518
 8762TIP3   OH247700   1.630   4.626  12.971  0.1388  0.1031 -0.3381
 8762TIP3    H147701   1.681   4.577  12.905 -1.5785 -2.2399 -0.0646
 8762TIP3    H247702   1.600   4.704  12.925  1.8103  0.2564 -1.2593
 8763TIP3   OH247703   2.604   5.519   5.342  0.0141  0.5074 -0.4670
 8763TIP3    H147704   2.544   5.591   5.363 -0.9946 -0.1031 -1.1801
 8763TIP3    H247705   2.638   5.541   5.255  1.9827  1.5849  0.5190
 8764TIP3   OH247706   0.656   1.937   2.912  0.3110 -0.4057 -0.3277
 8764TIP3    H147707   0.666   1.891   2.996 -1.0202  0.3626  0.2701
 8764TIP3    H247708   0.699   2.021   2.926  0.0217 -0.2470 -0.3863
 8765TIP3   OH247709   4.776   5.684   4.288 -0.0057  0.2980 -0.0334
 8765TIP3    H147710   4.789   5.766   4.240  1.6933  0.2576  0.2994
 8765TIP3    H247711   4.800   5.616   4.226 -0.0922  0.1184  0.1305
 8766TIP3   OH247712   3.362   1.415   4.846  0.0173 -0.0606  0.1214
 8766TIP3    H147713   3.283   1.467   4.860 -0.1766  0.4588 -2.3327
 8766TIP3    H247714   3.429   1.458   4.898 -1.1195 -0.0522  1.6428
 8767TIP3   OH247715   4.846   5.419  14.768 -0.0311 -0.4015 -0.0331
 8767TIP3    H147716   4.868   5.407  14.675 -1.1161 -0.7048 -0.2625
 8767TIP3    H247717   4.887   5.344  14.811 -0.3999 -0.8384 -0.4235
 8768TIP3   OH247718   5.344   6.381   6.841  0.5275  0.3544 -0.0626
 8768TIP3    H147719   5.419   6.360   6.897  0.1073 -0.2525  0.2832
 8768TIP3    H247720   5.316   6.297   6.805  1.5005  0.8560 -2.1368
 8769TIP3   OH247721   5.466   0.148  11.158 -0.3212  0.8982  0.1439
 8769TIP3    H147722   5.524   0.197  11.216 -0.6318  1.8616 -0.3257
 8769TIP3    H247723   5.524   0.106  11.095 -0.0323  0.4254  0.7212
 8770TIP3   OH247724   2.617   6.184  11.764 -0.4273 -0.7112 -0.1362
 8770TIP3    H147725   2.595   6.258  11.706 -1.3343 -0.6719  0.2385
 8770TIP3    H247726   2.532   6.149  11.791 -0.0084 -1.1492  0.6456
 8771TIP3   OH247727   3.141   6.559   1.067 -0.4838 -0.6254  0.1127
 8771TIP3    H147728   3.160   6.466   1.057 -0.4291 -0.6969  0.8215
 8771TIP3    H247729   3.078   6.562   1.140 -3.1757 -0.4087 -2.0470
 8772TIP3   OH247730   5.688   6.222   2.836  0.1688  0.3698 -0.4790
 8772TIP3    H147731   5.719   6.260   2.754 -0.4429 -0.3593 -1.0628
 8772TIP3    H247732   5.707   6.129   2.829 -0.5140  0.1907 -0.0987
 8773TIP3   OH247733   5.536   5.284   2.738  0.2437 -0.0791 -0.3424
 8773TIP3    H147734   5.501   5.205   2.696 -0.9917  0.7750 -0.9745
 8773TIP3    H247735   5.469   5.350   2.725  1.3436  1.1505 -0.0008
 8774TIP3   OH247736   3.557   3.155  14.769  0.3430 -0.1477 -0.6644
 8774TIP3    H147737   3.546   3.082  14.831 -1.9980  0.3871 -0.3821
 8774TIP3    H247738   3.490   3.219  14.794  1.1902  1.3493 -2.0103
 8775TIP3   OH247739   3.663   2.879   1.368 -0.1550  0.2248 -0.1040
 8775TIP3    H147740   3.716   2.884   1.447  1.7523 -0.6065 -1.2689
 8775TIP3    H247741   3.666   2.787   1.343 -3.4785 -0.1987  0.5880
 8776TIP3   OH247742   5.942   6.263   5.458  0.2041 -0.2033 -0.0442
 8776TIP3    H147743   5.953   6.170   5.439  0.1799 -0.1236 -0.4603
 8776TIP3    H247744   5.984   6.308   5.385 -0.7250  0.1108 -0.3958
 8777TIP3   OH247745   3.232   4.387  14.695 -0.6497  0.3811 -0.4705
 8777TIP3    H147746   3.263   4.332  14.766  0.6059 -0.8356 -1.8772
 8777TIP3    H247747   3.225   4.328  14.620 -1.4985  1.6921 -1.4770
 8778TIP3   OH247748   3.191   2.810  17.060  0.5455  0.4995 -0.1637
 8778TIP3    H147749   3.145   2.739  17.015  1.0107  1.3416 -2.0943
 8778TIP3    H247750   3.280   2.805  17.026  1.5208 -0.0708  2.2693
 8779TIP3   OH247751   4.894   4.836   2.222 -0.9701 -0.0367 -0.3180
 8779TIP3    H147752   4.831   4.773   2.257  0.2310 -1.3999 -0.5171
 8779TIP3    H247753   4.950   4.858   2.296 -0.5084 -0.2967 -0.5900
 8780TIP3   OH247754   3.195   2.228  12.423 -0.2842 -0.0683 -0.5953
 8780TIP3    H147755   3.247   2.303  12.394 -0.1687 -0.7491 -2.2674
 8780TIP3    H247756   3.172   2.182  12.343 -1.3077 -1.2141  0.3075
 8781TIP3   OH247757   5.148   1.512   4.212  0.0090 -0.4095  0.1422
 8781TIP3    H147758   5.109   1.462   4.284 -0.2913  0.2409  0.4395
 8781TIP3    H247759   5.241   1.519   4.236 -0.0986 -0.1579  0.4926
 8782TIP3   OH247760   1.301   6.111   1.285  0.0409  0.3816  0.1874
 8782TIP3    H147761   1.344   6.026   1.272 -1.9904 -0.6033 -0.5863
 8782TIP3    H247762   1.291   6.146   1.196 -0.1092  0.9155  0.4141
 8783TIP3   OH247763   1.309   4.200   1.417 -0.0228 -0.3263  0.3463
 8783TIP3    H147764   1.300   4.105   1.416  1.2242 -0.5006 -2.0824
 8783TIP3    H247765   1.234   4.232   1.367  0.6578 -0.2211 -0.6406
 8784TIP3   OH247766   1.015   2.944  10.260  0.0987 -0.0628 -0.2951
 8784TIP3    H147767   1.079   2.874  10.247 -0.7736 -1.3218  1.6741
 8784TIP3    H247768   1.049   3.017  10.209  2.7572 -0.8871  0.1154
 8785TIP3   OH247769   0.416   1.381  14.768 -0.3596 -0.3513 -0.3116
 8785TIP3    H147770   0.417   1.453  14.831 -1.6992 -1.1594  0.7156
 8785TIP3    H247771   0.507   1.353  14.762  0.3281  1.8471 -1.3073
 8786TIP3   OH247772   2.051   1.300  14.093  0.3575  0.4553 -0.3271
 8786TIP3    H147773   2.056   1.333  14.003  1.6617  0.2678 -0.3305
 8786TIP3    H247774   1.985   1.356  14.135 -0.8364  0.0564 -1.5841
 8787TIP3   OH247775   1.473   5.910   1.506  0.4560 -1.0335 -0.6188
 8787TIP3    H147776   1.537   5.964   1.460  1.6613 -1.0551  0.9437
 8787TIP3    H247777   1.489   5.821   1.474 -0.4449 -0.7368 -1.9937
 8788TIP3   OH247778   4.545   2.733  15.964  0.1326  0.1324 -0.2230
 8788TIP3    H147779   4.575   2.796  15.898  1.7433  2.1796  2.2553
 8788TIP3    H247780   4.623   2.681  15.984 -0.0996  0.0920  0.6104
 8789TIP3   OH247781   1.887   5.529   0.638  0.0581 -0.2708 -0.3558
 8789TIP3    H147782   1.931   5.566   0.715 -0.8981 -0.4533  0.2889
 8789TIP3    H247783   1.939   5.451   0.616  0.2527 -0.2949  0.1834
 8790TIP3   OH247784   5.349   0.391   4.740 -0.0188  0.1544  0.0416
 8790TIP3    H147785   5.261   0.384   4.776 -0.2433 -2.1790 -0.7767
 8790TIP3    H247786   5.392   0.457   4.794 -2.0559  0.8816  0.8726
 8791TIP3   OH247787   4.942   2.991   5.106 -0.0729  0.5523 -0.2489
 8791TIP3    H147788   4.854   3.023   5.123 -0.5599 -1.2842  0.9959
 8791TIP3    H247789   4.930   2.902   5.072  1.2697  0.8559 -1.6657
 8792TIP3   OH247790   1.428   0.187   1.992 -0.4976  0.0446  0.6062
 8792TIP3    H147791   1.471   0.271   2.007 -1.8405  0.6590  1.1718
 8792TIP3    H247792   1.356   0.186   2.054 -1.1279 -1.0850 -0.1111
 8793TIP3   OH247793   1.160   1.459  17.068 -0.4954  0.4864 -0.1993
 8793TIP3    H147794   1.144   1.553  17.080 -0.6702  0.6099 -1.2414
 8793TIP3    H247795   1.142   1.444  16.975 -0.9035 -0.6746  0.0529
 8794TIP3   OH247796   6.280   0.706  16.349  0.6172  0.0355  0.2663
 8794TIP3    H147797   6.288   0.685  16.256  0.2784  3.0562 -0.5472
 8794TIP3    H247798   6.363   0.746  16.373 -0.2612  1.9032  0.4214
 8795TIP3   OH247799   5.198   5.823   3.655  0.6679 -0.3751 -0.1265
 8795TIP3    H147800   5.228   5.790   3.570  0.2502 -0.7550 -0.1347
 8795TIP3    H247801   5.242   5.767   3.719  0.7988 -0.2432 -0.1016
 8796TIP3   OH247802   5.661   0.559  15.472  0.2630  0.6789 -0.1797
 8796TIP3    H147803   5.647   0.651  15.453 -2.5976  0.3404 -0.2153
 8796TIP3    H247804   5.707   0.525  15.395 -0.0032  1.7626 -0.8369
 8797TIP3   OH247805   1.767   3.760   3.971 -0.4086 -0.3643 -0.2453
 8797TIP3    H147806   1.853   3.794   3.944 -0.4322  0.1020  0.2625
 8797TIP3    H247807   1.768   3.765   4.067 -1.6659  1.2757 -0.2929
 8798TIP3   OH247808   1.306   0.001  12.841 -0.1166  0.3336 -0.2372
 8798TIP3    H147809   1.334   0.090  12.817  0.1955  0.1128 -0.7010
 8798TIP3    H247810   1.358  -0.019  12.920 -0.2473  0.5921 -0.0831
 8799TIP3   OH247811   0.046   4.177  13.383  0.3103  0.0160  0.0341
 8799TIP3    H147812   0.031   4.112  13.315  0.3096  0.6392 -0.5717
 8799TIP3    H247813  -0.041   4.212  13.403  0.3717  0.1910 -0.0022
 8800TIP3   OH247814   5.109   5.612   2.457 -0.8654 -0.9239 -0.4751
 8800TIP3    H147815   5.033   5.625   2.399 -1.0820 -0.8346 -0.1722
 8800TIP3    H247816   5.094   5.672   2.530  1.4281  2.1170 -2.2371
 8801TIP3   OH247817   2.773   6.477   4.451 -0.4459  0.9165  0.5916
 8801TIP3    H147818   2.745   6.494   4.541 -0.3782  1.2917  0.5451
 8801TIP3    H247819   2.693   6.490   4.399 -0.1224  2.3419  0.4196
 8802TIP3   OH247820   0.501   5.072  15.372  0.0979  0.8019  0.4196
 8802TIP3    H147821   0.440   5.104  15.305 -1.1360  0.1955  1.2244
 8802TIP3    H247822   0.445   5.037  15.440  1.3787 -1.4259  0.4041
 8803TIP3   OH247823   3.262   1.846   0.633  0.4167 -0.1602  0.3925
 8803TIP3    H147824   3.219   1.876   0.714 -1.3193  0.3610 -0.6662
 8803TIP3    H247825   3.266   1.924   0.578  1.1905 -0.6125 -0.2052
 8804TIP3   OH247826   0.811   6.135  12.760  0.7488 -0.5128  0.5871
 8804TIP3    H147827   0.843   6.046  12.741  0.3681 -0.7433  1.0035
 8804TIP3    H247828   0.837   6.151  12.850 -0.8113 -0.9562  1.1593
 8805TIP3   OH247829   4.067   2.101  13.289  0.1063 -0.3243 -0.6355
 8805TIP3    H147830   4.072   2.190  13.255  2.2296  0.1905  0.8656
 8805TIP3    H247831   3.997   2.104  13.354 -0.2352  0.0642 -1.0111
 8806TIP3   OH247832   2.830   4.076   0.062 -0.1542 -0.0775 -0.4566
 8806TIP3    H147833   2.908   4.025   0.081 -0.1860 -0.0696 -0.3058
 8806TIP3    H247834   2.761   4.010   0.047 -0.4096 -0.0774  0.6314
 8807TIP3   OH247835   3.961   2.543   3.633  0.4670  0.2958 -0.3499
 8807TIP3    H147836   4.002   2.565   3.716 -0.6653 -0.6340  0.4794
 8807TIP3    H247837   3.977   2.450   3.621  1.0812  0.5180 -1.4658
 8808TIP3   OH247838   6.160   2.178  12.582 -0.3047  0.3293 -0.4090
 8808TIP3    H147839   6.130   2.098  12.538 -0.4882 -0.7627  1.5972
 8808TIP3    H247840   6.254   2.163  12.595 -0.1324  0.9145 -0.9389
 8809TIP3   OH247841   6.540   6.106  13.668  0.0210 -0.1032 -0.4417
 8809TIP3    H147842   6.511   6.144  13.751  1.7481 -1.7187  1.0011
 8809TIP3    H247843   6.568   6.181  13.616 -0.9902  0.9514  0.4666
 8810TIP3   OH247844   4.375   0.991  11.673 -0.6265 -0.6739  0.0891
 8810TIP3    H147845   4.285   1.020  11.662 -0.6812 -0.3605  1.3152
 8810TIP3    H247846   4.427   1.071  11.661 -0.6702 -0.3794  1.7169
 8811TIP3   OH247847   2.855   3.657   3.531 -0.2319  0.3906 -0.7273
 8811TIP3    H147848   2.762   3.639   3.542 -0.0048  0.5175  2.3311
 8811TIP3    H247849   2.865   3.676   3.437 -3.1959  0.1318 -1.2034
 8812TIP3   OH247850   4.613   4.262   2.671 -0.2490 -0.6273  0.1607
 8812TIP3    H147851   4.706   4.285   2.672 -0.5071  0.4643 -0.6188
 8812TIP3    H247852   4.610   4.177   2.716  1.2132 -1.0321 -0.4390
 8813TIP3   OH247853   0.945   2.819   1.027  0.0157 -0.3824 -0.3539
 8813TIP3    H147854   0.878   2.785   1.087 -0.9279  1.5172 -0.2437
 8813TIP3    H247855   0.909   2.803   0.940 -1.4804  2.1274 -0.2863
 8814TIP3   OH247856   3.957   2.948  14.523  0.0768 -0.0551 -0.4781
 8814TIP3    H147857   3.905   3.027  14.539 -0.1036 -0.3598  0.5303
 8814TIP3    H247858   4.000   2.964  14.439  0.6917  1.4878  0.0781
 8815TIP3   OH247859   6.324   1.035   4.442  0.1038  0.0567  0.2824
 8815TIP3    H147860   6.271   1.051   4.521 -1.4218  1.3947 -0.9426
 8815TIP3    H247861   6.338   1.122   4.405 -0.6335 -0.6742 -1.8108
 8816TIP3   OH247862   4.177   4.704  13.245 -0.5589 -0.0760 -0.4020
 8816TIP3    H147863   4.237   4.726  13.316 -0.4871  0.5364 -0.6431
 8816TIP3    H247864   4.150   4.789  13.210 -1.3355 -0.3526 -0.4888
 8817TIP3   OH247865   6.236   1.879  11.955 -0.4711  0.0295 -0.4753
 8817TIP3    H147866   6.322   1.911  11.984 -0.2301 -0.7454 -0.3189
 8817TIP3    H247867   6.173   1.932  12.004 -0.1161 -2.1190  2.5990
 8818TIP3   OH247868   2.860   2.360   1.894  0.5205  0.2864 -0.0485
 8818TIP3    H147869   2.798   2.337   1.963  2.0594 -0.9882  0.9917
 8818TIP3    H247870   2.935   2.396   1.940  2.1917 -1.9492 -0.8399
 8819TIP3   OH247871   0.333   4.986  13.685  0.3203  0.8820  0.4800
 8819TIP3    H147872   0.272   4.964  13.756 -0.2730  1.3421  0.1187
 8819TIP3    H247873   0.281   5.037  13.624  0.9723  0.9375 -0.0335
 8820TIP3   OH247874   2.835   0.244  14.933  0.0445  0.0504 -0.2127
 8820TIP3    H147875   2.876   0.162  14.962 -0.8836 -0.1744  0.5236
 8820TIP3    H247876   2.762   0.215  14.878 -0.7995  0.3336  0.7244
 8821TIP3   OH247877   3.615   4.380  11.516  0.8897  0.1920 -0.1150
 8821TIP3    H147878   3.533   4.348  11.553  1.1930 -1.6205 -0.8746
 8821TIP3    H247879   3.597   4.471  11.493 -1.2017 -0.3888 -1.0658
 8822TIP3   OH247880   5.307   3.685  16.200  0.5153  0.0695  0.4898
 8822TIP3    H147881   5.264   3.770  16.201  0.5248  0.0740  0.6837
 8822TIP3    H247882   5.383   3.696  16.258  0.1851 -0.2405  0.9858
 8823TIP3   OH247883   1.265   0.417  10.827  0.3980  0.5515  0.0854
 8823TIP3    H147884   1.187   0.425  10.882 -0.3958 -1.7602 -0.6143
 8823TIP3    H247885   1.314   0.345  10.866 -0.3406 -1.3687 -2.3362
 8824TIP3   OH247886   6.749   2.599   5.289  0.4596  0.4864  0.0221
 8824TIP3    H147887   6.757   2.684   5.332 -2.0895  0.9712 -0.2842
 8824TIP3    H247888   6.740   2.619   5.196 -4.0931  0.3840  0.2141
 8825TIP3   OH247889   3.181   3.703   5.735  0.4000 -0.0752  0.4535
 8825TIP3    H147890   3.210   3.739   5.651  0.2886  0.6052  0.7055
 8825TIP3    H247891   3.170   3.779   5.792 -0.0307 -0.4858  0.9323
 8826TIP3   OH247892   5.364   3.096  14.864 -0.5062 -0.2165 -0.7764
 8826TIP3    H147893   5.379   3.105  14.958 -1.6148  0.0596 -0.6040
 8826TIP3    H247894   5.362   3.001  14.849  1.8197 -0.2975 -0.9311
 8827TIP3   OH247895   6.156   6.219   3.712  0.5289  0.2626  0.6501
 8827TIP3    H147896   6.186   6.262   3.633 -0.3956 -2.0558 -1.0626
 8827TIP3    H247897   6.097   6.283   3.753  1.1221  1.5515 -0.4356
 8828TIP3   OH247898   0.216   2.896   3.059 -0.0605 -0.0116 -0.5233
 8828TIP3    H147899   0.227   2.959   2.988 -0.7366 -0.2348 -0.8284
 8828TIP3    H247900   0.298   2.902   3.108 -0.1464  1.1798 -0.4827
 8829TIP3   OH247901   5.286   6.498  11.613  0.1995 -0.5388  0.0079
 8829TIP3    H147902   5.375   6.488  11.580  0.0014 -0.1887 -0.6439
 8829TIP3    H247903   5.272   6.593  11.617 -0.7194 -0.5816 -1.5162
 8830TIP3   OH247904   2.955   5.592   5.954  0.0849  0.4986 -0.0966
 8830TIP3    H147905   2.929   5.512   5.909  0.3846 -0.2656  1.0449
 8830TIP3    H247906   3.042   5.612   5.921 -0.0932  0.5061 -0.5703
 8831TIP3   OH247907   6.578   6.736  16.190 -0.0918 -0.2679  0.2748
 8831TIP3    H147908   6.620   6.814  16.154  1.0470 -1.2567 -0.6291
 8831TIP3    H247909   6.635   6.708  16.261 -0.1868 -0.6089  0.2158
 8832TIP3   OH247910   3.531   5.241   6.738  0.2238 -0.1199  0.7506
 8832TIP3    H147911   3.583   5.193   6.802  0.4000 -0.8835  0.0501
 8832TIP3    H247912   3.568   5.216   6.653 -1.2358 -0.6598  0.2297
 8833TIP3   OH247913   5.186   0.871   1.868  0.4280  0.4093 -0.2914
 8833TIP3    H147914   5.098   0.844   1.893  0.5871 -0.6688 -0.8408
 8833TIP3    H247915   5.219   0.800   1.813  0.7152  1.9170 -2.1817
 8834TIP3   OH247916   0.360   1.366  17.146 -0.0489  0.2864  0.0392
 8834TIP3    H147917   0.397   1.407  17.224  0.5174 -0.2898  0.0806
 8834TIP3    H247918   0.435   1.321  17.105 -1.2485 -4.4719  2.3078
 8835TIP3   OH247919   3.594   1.133   1.346  0.1879 -0.0136  0.6445
 8835TIP3    H147920   3.614   1.040   1.356  0.1252 -0.0855  0.1065
 8835TIP3    H247921   3.661   1.177   1.398  1.8617 -0.2480 -1.1852
 8836TIP3   OH247922   4.966   1.949  14.906  0.1269  0.4118 -0.1741
 8836TIP3    H147923   4.977   1.854  14.912  0.1027  0.3734 -0.6593
 8836TIP3    H247924   4.922   1.962  14.822  1.8812  0.9826 -1.0694
 8837TIP3   OH247925   2.190   1.196   0.288 -0.3382 -0.3517  0.2334
 8837TIP3    H147926   2.258   1.132   0.266 -0.4570 -0.4495  0.1482
 8837TIP3    H247927   2.236   1.262   0.340  0.4131  0.9542 -1.9548
 8838TIP3   OH247928   2.269   3.503   2.198 -0.2900 -0.1042  0.3732
 8838TIP3    H147929   2.318   3.521   2.278 -0.5372 -0.3217  0.5747
 8838TIP3    H247930   2.220   3.423   2.217 -3.5583  1.9927  1.4838
 8839TIP3   OH247931   3.833   4.967   3.942  0.1158  0.5770 -0.3318
 8839TIP3    H147932   3.822   4.924   4.027 -0.0852  0.1076 -0.5915
 8839TIP3    H247933   3.922   4.944   3.916  0.1046  0.5470 -0.3438
 8840TIP3   OH247934   0.704   4.020   5.223  0.1693 -0.8180  0.2203
 8840TIP3    H147935   0.723   4.074   5.300  1.0563  1.6814 -1.6236
 8840TIP3    H247936   0.611   3.998   5.232 -0.6790  2.2924  0.4106
 8841TIP3   OH247937   0.657   1.827   5.267  0.0105 -0.3447 -0.2217
 8841TIP3    H147938   0.732   1.767   5.265  2.0481  2.0087  0.6346
 8841TIP3    H247939   0.604   1.797   5.340  1.0463 -1.0433  0.2716
 8842TIP3   OH247940   5.515   2.048   3.709  0.1663 -0.4654 -0.0823
 8842TIP3    H147941   5.562   1.987   3.766  1.8020  0.7360 -0.0657
 8842TIP3    H247942   5.547   2.135   3.735 -0.2293  0.2296 -1.7411
 8843TIP3   OH247943   6.646   1.447   4.577  0.1205  0.5655 -0.6008
 8843TIP3    H147944   6.652   1.353   4.590  1.6192  0.7450  0.2866
 8843TIP3    H247945   6.663   1.460   4.483 -0.2979 -0.0493 -0.7628
 8844TIP3   OH247946   4.784   2.572  11.613  0.2274  0.6100 -0.6003
 8844TIP3    H147947   4.773   2.507  11.543  1.6832  0.1806 -0.4503
 8844TIP3    H247948   4.697   2.577  11.653  0.1566 -1.6283 -0.3022
 8845TIP3   OH247949   4.080   2.903  13.071 -0.0753 -0.3505  0.2943
 8845TIP3    H147950   4.166   2.897  13.112 -0.1519 -2.1910  0.2885
 8845TIP3    H247951   4.023   2.852  13.127 -0.6678 -1.0051 -0.8588
 8846TIP3   OH247952   4.041   4.558   1.290 -0.1823  0.4445  0.0390
 8846TIP3    H147953   4.020   4.579   1.199  0.5183 -1.0148 -0.4808
 8846TIP3    H247954   4.133   4.533   1.288 -0.4828 -0.8187  0.9286
 8847TIP3   OH247955   3.488   1.309   2.384 -0.7453 -0.1294  0.2132
 8847TIP3    H147956   3.484   1.215   2.366 -1.9374  0.3409 -2.5298
 8847TIP3    H247957   3.398   1.332   2.407 -0.7714  0.5570 -0.5423
 8848TIP3   OH247958   5.115   1.915   0.306  0.7038 -0.5406 -0.3692
 8848TIP3    H147959   5.123   1.835   0.358  0.4525 -0.1955  0.2109
 8848TIP3    H247960   5.184   1.972   0.338 -0.6431  0.4100  0.9562
 8849TIP3   OH247961   5.896   1.829   1.114 -0.0699 -0.0963 -0.0044
 8849TIP3    H147962   5.830   1.886   1.076  0.8555  1.3380  0.4388
 8849TIP3    H247963   5.960   1.815   1.044 -0.4232 -0.8432 -0.1941
 8850TIP3   OH247964   5.520   1.845  17.133 -0.3734 -0.3492  0.5784
 8850TIP3    H147965   5.503   1.808  17.220 -1.3317  0.3673  0.7131
 8850TIP3    H247966   5.442   1.825  17.082  0.8088 -2.1702 -0.6550
 8851TIP3   OH247967   3.365   6.641   1.687 -0.0384 -0.5381 -0.5630
 8851TIP3    H147968   3.423   6.707   1.648 -2.7878  1.9015 -0.8696
 8851TIP3    H247969   3.283   6.651   1.640 -1.2242 -2.7881  0.8566
 8852TIP3   OH247970   5.198   0.134   6.421  0.5342 -0.1393  0.0082
 8852TIP3    H147971   5.255   0.077   6.473 -1.3351 -1.4200  0.7680
 8852TIP3    H247972   5.131   0.163   6.483  0.3838  1.3882 -0.8358
 8853TIP3   OH247973   6.523   5.090  13.921  0.4069 -0.0132  0.2901
 8853TIP3    H147974   6.611   5.110  13.955  0.7556 -1.6443  0.4238
 8853TIP3    H247975   6.536   5.081  13.826  0.1921  0.6379  0.1924
 8854TIP3   OH247976   2.457   5.898  13.977 -0.1588  0.2493 -0.4541
 8854TIP3    H147977   2.513   5.825  14.003 -2.6125 -1.0764  1.6383
 8854TIP3    H247978   2.406   5.865  13.903 -1.1802 -0.2031  0.4138
 8855TIP3   OH247979   5.984   3.020   0.704 -0.1265  0.2668 -0.1610
 8855TIP3    H147980   6.022   2.953   0.648  0.9929 -0.1389  1.0279
 8855TIP3    H247981   5.890   2.999   0.708 -0.2339  0.3323 -1.8578
 8856TIP3   OH247982   5.345   5.980  16.798 -0.3013 -0.3404 -0.2034
 8856TIP3    H147983   5.359   5.886  16.812  0.0921 -0.4527 -1.2793
 8856TIP3    H247984   5.428   6.012  16.762 -0.2919  0.5145  0.5300
 8857TIP3   OH247985   1.028   2.516   2.065  0.3419  0.6827 -0.0873
 8857TIP3    H147986   0.999   2.554   2.147 -1.8330  1.1523 -1.0173
 8857TIP3    H247987   1.079   2.438   2.091 -0.2728  0.8393  1.6744
 8858TIP3   OH247988   4.121   4.483   4.749 -0.9406 -0.1672 -0.3997
 8858TIP3    H147989   4.213   4.489   4.774 -0.7414 -0.3893 -1.0593
 8858TIP3    H247990   4.097   4.391   4.763 -1.3573  0.1103  0.7605
 8859TIP3   OH247991   5.174   4.248  16.600 -0.5088  0.0948 -0.2413
 8859TIP3    H147992   5.264   4.279  16.597 -0.2448 -0.4964  1.1532
 8859TIP3    H247993   5.166   4.193  16.522  0.5881 -0.4837  0.0287
 8860TIP3   OH247994   1.031   1.855  12.883  0.7455  0.1487  0.2279
 8860TIP3    H147995   1.100   1.841  12.949  0.7807  0.4174  0.2491
 8860TIP3    H247996   1.076   1.897  12.810  0.8851 -0.9415 -0.3289
 8861TIP3   OH247997   3.466   3.772   3.904 -0.3560 -0.1231 -0.0825
 8861TIP3    H147998   3.405   3.798   3.835 -2.7278  0.3888  2.0515
 8861TIP3    H247999   3.485   3.853   3.951 -1.3681 -0.9069  1.7709
 8862TIP3   OH248000   1.117   4.025  16.744  0.1050  0.1228 -0.1879
 8862TIP3    H148001   1.187   4.013  16.808  0.4600 -0.5454 -0.6846
 8862TIP3    H248002   1.051   3.960  16.769 -1.2988  2.0721  1.5072
 8863TIP3   OH248003   3.266   2.716   5.080 -0.7855  0.0957  0.0937
 8863TIP3    H148004   3.183   2.739   5.123 -0.0005  1.4768  0.9538
 8863TIP3    H248005   3.294   2.635   5.123 -1.3265  0.0115  0.2969
 8864TIP3   OH248006   6.098   6.565  16.511 -0.5372 -0.3798 -0.1376
 8864TIP3    H148007   6.036   6.493  16.505 -1.0396  0.0138  0.2369
 8864TIP3    H248008   6.047   6.643  16.490 -0.4846  0.1009  1.4482
 8865TIP3   OH248009   3.631   6.500  12.000  0.2141 -0.6336 -0.2545
 8865TIP3    H148010   3.680   6.516  11.920  1.7759 -1.3998  0.5045
 8865TIP3    H248011   3.689   6.445  12.053 -0.4089  0.5613  1.7687
 8866TIP3   OH248012   5.086   2.650   1.156 -0.4045  0.2677 -0.5419
 8866TIP3    H148013   5.083   2.632   1.062 -0.1493  1.2297 -0.7361
 8866TIP3    H248014   5.153   2.717   1.166  0.0541 -0.3098  0.4112
 8867TIP3   OH248015   1.756   5.434   2.750 -0.5076  0.4442  0.7589
 8867TIP3    H148016   1.848   5.417   2.771 -0.1579  0.5546 -0.5717
 8867TIP3    H248017   1.760   5.498   2.680 -1.5204 -0.9280 -0.6175
 8868TIP3   OH248018   4.949   3.743   3.217  0.4520 -0.5837  0.1956
 8868TIP3    H148019   5.041   3.733   3.193  1.0132 -0.1450  2.0023
 8868TIP3    H248020   4.932   3.837   3.211  0.0180 -0.6887 -0.3930
 8869TIP3   OH248021   3.561   6.442  11.338  0.1951  0.1858 -0.3186
 8869TIP3    H148022   3.626   6.472  11.401  1.1368  0.4785 -1.3870
 8869TIP3    H248023   3.549   6.349  11.359 -0.6131  0.6041  1.2032
 8870TIP3   OH248024   6.143   3.994  12.632  0.2299 -0.1582  0.1060
 8870TIP3    H148025   6.097   4.056  12.575 -0.2901 -0.4707  0.1811
 8870TIP3    H248026   6.234   3.998  12.602  0.0980  0.2250 -0.2598
 8871TIP3   OH248027   0.677   1.421   4.444 -0.0214 -0.0632  0.3521
 8871TIP3    H148028   0.601   1.402   4.389  0.1451 -1.1950  0.5081
 8871TIP3    H248029   0.734   1.345   4.434  0.0026 -0.3064  2.1195
 8872TIP3   OH248030   5.173   3.881  15.618 -0.2599  0.0917  0.0612
 8872TIP3    H148031   5.087   3.845  15.639 -0.2356 -0.4262 -0.7003
 8872TIP3    H248032   5.163   3.976  15.630 -0.6345 -0.0550  0.9968
 8873TIP3   OH248033   4.883   6.596  11.161  0.0896  0.0446 -0.1685
 8873TIP3    H148034   4.891   6.505  11.131  0.2935 -1.2833  3.4294
 8873TIP3    H248035   4.920   6.595  11.249  0.8005  3.8541 -0.2878
 8874TIP3   OH248036   2.667   1.635   3.758  0.2920  0.5802 -0.1238
 8874TIP3    H148037   2.596   1.586   3.799  1.0871  0.3593  1.0237
 8874TIP3    H248038   2.715   1.674   3.831  2.4395 -0.7598 -0.7388
 8875TIP3   OH248039   5.399   3.847  14.055 -0.3756  1.0313 -0.5019
 8875TIP3    H148040   5.315   3.891  14.046 -1.6359 -1.4490 -2.0783
 8875TIP3    H248041   5.399   3.813  14.144 -0.9324  1.2580 -0.4112
 8876TIP3   OH248042   3.848   2.807   6.299 -0.1149 -0.2119  0.0797
 8876TIP3    H148043   3.817   2.833   6.386 -0.4052 -0.9455  0.2058
 8876TIP3    H248044   3.843   2.888   6.247  1.7558  0.6786  1.1791
 8877TIP3   OH248045   1.427   5.875  13.449 -0.3562  0.4948 -0.3318
 8877TIP3    H148046   1.331   5.872  13.454 -0.4281  0.8256 -1.2809
 8877TIP3    H248047   1.447   5.863  13.356  0.4338  2.1898 -0.4205
 8878TIP3   OH248048   3.250   5.677   2.817  0.1125 -0.1274  0.1708
 8878TIP3    H148049   3.267   5.726   2.898 -0.5234 -1.6314  1.2590
 8878TIP3    H248050   3.174   5.623   2.837  0.8456 -1.6429 -0.9223
 8879TIP3   OH248051   3.577   3.893   2.104  0.4319 -0.4561 -0.1619
 8879TIP3    H148052   3.617   3.908   2.190 -1.6079  1.7823  0.4788
 8879TIP3    H248053   3.651   3.899   2.043  1.6026  0.0669  1.2242
 8880TIP3   OH248054   3.572   6.548   5.684  0.3429  0.0946  0.7342
 8880TIP3    H148055   3.619   6.555   5.767 -0.8568  0.0721  1.4309
 8880TIP3    H248056   3.530   6.633   5.673  0.7842  0.2212 -0.0430
 8881TIP3   OH248057   4.830   6.293   1.635 -0.6732  0.3823  0.0264
 8881TIP3    H148058   4.905   6.251   1.676 -0.8224 -0.8115 -0.8799
 8881TIP3    H248059   4.865   6.375   1.599  0.2683 -0.2949 -0.6382
 8882TIP3   OH248060   4.718   0.362  12.729  0.1406 -0.4035  0.0363
 8882TIP3    H148061   4.676   0.275  12.727  1.3419 -1.0743  1.7360
 8882TIP3    H248062   4.651   0.420  12.765 -0.8965 -0.4315 -1.6978
 8883TIP3   OH248063   6.290   4.271   4.164 -0.0319 -0.2954 -0.0842
 8883TIP3    H148064   6.368   4.220   4.142 -0.4001 -0.9788  0.1758
 8883TIP3    H248065   6.219   4.229   4.117 -0.1801  0.6383 -0.7366
 8884TIP3   OH248066   1.465   4.612   0.791  0.1735 -0.0192 -0.2337
 8884TIP3    H148067   1.505   4.665   0.722 -1.5275  1.1650 -0.3662
 8884TIP3    H248068   1.383   4.582   0.753  0.0565 -0.8700  0.6588
 8885TIP3   OH248069   0.385   5.218  12.819  0.5080  0.0332  0.6300
 8885TIP3    H148070   0.453   5.279  12.847  0.8396  1.1887 -2.3586
 8885TIP3    H248071   0.433   5.139  12.793  0.4866  0.0086  0.6658
 8886TIP3   OH248072   4.276   0.372   6.259  0.0262 -0.0281  0.0447
 8886TIP3    H148073   4.187   0.406   6.268 -0.0928 -0.6849  1.7432
 8886TIP3    H248074   4.297   0.336   6.346  2.4727  1.3688  0.1166
 8887TIP3   OH248075   4.246   6.552   4.297 -0.1567  0.0989  0.0676
 8887TIP3    H148076   4.285   6.639   4.288 -1.7056  0.8274  0.0897
 8887TIP3    H248077   4.320   6.492   4.288  0.9487  1.4050  0.0361
 8888TIP3   OH248078   4.522   4.478   1.575 -0.3245 -0.1898  0.6875
 8888TIP3    H148079   4.476   4.550   1.619 -0.2249  0.0644  0.3785
 8888TIP3    H248080   4.611   4.482   1.611 -0.2082  0.0983  0.3736
 8889TIP3   OH248081   2.323   1.209   4.636  0.5109 -0.0706  0.2814
 8889TIP3    H148082   2.285   1.209   4.548  0.1857  0.9709  0.4046
 8889TIP3    H248083   2.412   1.178   4.624  0.2621 -0.5865 -0.3159
 8890TIP3   OH248084   4.586   5.852  15.722  0.1970  0.0671  0.4237
 8890TIP3    H148085   4.502   5.878  15.761 -0.4910 -1.2620 -0.1221
 8890TIP3    H248086   4.614   5.777  15.774 -0.5352 -1.4842 -1.2923
 8891TIP3   OH248087   0.331   1.640  15.253 -0.3096  0.5635 -0.2932
 8891TIP3    H148088   0.302   1.707  15.191  0.9544  1.4865  0.0478
 8891TIP3    H248089   0.406   1.681  15.297 -1.0521 -0.1136  1.7147
 8892TIP3   OH248090   1.365   3.225  12.696  1.0391  0.1067 -0.0582
 8892TIP3    H148091   1.335   3.231  12.786  2.0586  0.6322  0.2622
 8892TIP3    H248092   1.339   3.307  12.655  1.1068  0.1162 -0.0815
 8893TIP3   OH248093   1.762   5.044  17.045 -0.0733  0.0719 -0.3130
 8893TIP3    H148094   1.817   5.104  16.994  0.7276  0.2461  0.7071
 8893TIP3    H248095   1.820   4.972  17.068 -0.7765 -0.6308 -0.7291
 8894TIP3   OH248096   6.785   3.274   3.052 -0.4930 -0.2455  0.5504
 8894TIP3    H148097   6.796   3.322   2.970  0.2918  0.0429  0.8144
 8894TIP3    H248098   6.873   3.246   3.076 -1.0622 -3.1775 -0.3671
 8895TIP3   OH248099   3.383   5.546  16.244 -0.2918 -0.3335  0.6112
 8895TIP3    H148100   3.423   5.459  16.242 -0.5151 -0.4373 -1.7871
 8895TIP3    H248101   3.289   5.529  16.239 -0.3159  0.0296 -0.3381
 8896TIP3   OH248102   4.444   0.147   0.207 -0.1970 -0.1488  0.0955
 8896TIP3    H148103   4.539   0.138   0.203 -0.2434 -0.2109 -1.4966
 8896TIP3    H248104   4.427   0.189   0.292  1.2402 -0.1360  0.3926
 8897TIP3   OH248105   2.489   3.863  14.482 -0.2945  0.3548 -0.2082
 8897TIP3    H148106   2.533   3.939  14.519  0.2534 -0.2416  0.3982
 8897TIP3    H248107   2.534   3.848  14.399  0.1314  0.2180  0.0445
 8898TIP3   OH248108   0.131   2.302   2.169  0.6596  0.1201  0.5100
 8898TIP3    H148109   0.201   2.356   2.135 -1.1139  2.7785  0.7939
 8898TIP3    H248110   0.079   2.279   2.092  1.4431 -1.3689  0.3774
 8899TIP3   OH248111   5.855   0.492  12.310  0.4038  0.3693 -0.2694
 8899TIP3    H148112   5.925   0.519  12.251  1.3653  2.2271  1.5602
 8899TIP3    H248113   5.786   0.558  12.297 -0.0167 -0.0916 -0.3996
 8900TIP3   OH248114   4.245   5.164  10.500 -0.3444 -0.3686 -0.1178
 8900TIP3    H148115   4.341   5.163  10.506 -0.3109  1.6098  0.3549
 8900TIP3    H248116   4.216   5.108  10.572  0.4576 -0.5341  0.0847
 8901TIP3   OH248117   4.428   0.572  14.345  0.0318 -0.6309  0.2275
 8901TIP3    H148118   4.467   0.610  14.266  1.3420 -0.1108  1.1061
 8901TIP3    H248119   4.451   0.632  14.415 -0.1058 -1.6951  1.2117
 8902TIP3   OH248120   2.133   4.853   0.461  0.0629  0.0398 -0.1325
 8902TIP3    H148121   2.204   4.827   0.520 -0.5568  0.1595  0.6923
 8902TIP3    H248122   2.073   4.779   0.462  0.4941 -0.3620 -1.3921
 8903TIP3   OH248123   4.438   4.292   6.741  0.1019 -0.1542  0.7112
 8903TIP3    H148124   4.466   4.219   6.685  0.4202  1.7063 -1.7214
 8903TIP3    H248125   4.344   4.299   6.726 -0.0178 -0.3738  1.3458
 8904TIP3   OH248126   3.642   0.227   3.285  0.0048 -0.4360  0.2662
 8904TIP3    H148127   3.556   0.210   3.245 -0.7149 -0.6751  1.8420
 8904TIP3    H248128   3.661   0.149   3.336  0.9305 -0.1711  0.3522
 8905TIP3   OH248129   1.254   4.914  13.786  0.1991  1.0021  0.3166
 8905TIP3    H148130   1.344   4.945  13.774 -0.3088  1.7249 -2.2089
 8905TIP3    H248131   1.263   4.820  13.803  1.4154  1.0421 -0.0095
 8906TIP3   OH248132   6.739   3.526  15.067 -0.3107  0.1105 -0.7160
 8906TIP3    H148133   6.780   3.469  15.131 -2.3068 -1.3570 -0.6706
 8906TIP3    H248134   6.810   3.551  15.008  1.6419  1.7033  2.1106
 8907TIP3   OH248135   2.096   1.812  12.079  0.7342  0.1248  0.0189
 8907TIP3    H148136   2.043   1.753  12.132  0.7890 -0.5014 -0.6048
 8907TIP3    H248137   2.178   1.764  12.065  1.7808  1.3464  1.5476
 8908TIP3   OH248138   6.603   3.309   4.462 -0.6997 -0.0798 -0.1061
 8908TIP3    H148139   6.603   3.400   4.431  0.8365  0.1217  0.3822
 8908TIP3    H248140   6.541   3.264   4.405 -0.5316  1.0102 -1.1953
 8909TIP3   OH248141   6.439   3.814  15.402  0.2971  0.6555 -0.5569
 8909TIP3    H148142   6.377   3.882  15.376 -0.1545 -0.0544 -1.3700
 8909TIP3    H248143   6.514   3.825  15.343  0.1016  0.2678 -0.8779
 8910TIP3   OH248144   1.351   5.056  11.792 -0.0244  0.2747 -0.0352
 8910TIP3    H148145   1.401   5.107  11.727 -0.9876 -0.0532 -1.0680
 8910TIP3    H248146   1.281   5.015  11.741 -0.2751 -0.7217  1.0755
 8911TIP3   OH248147   0.810   3.285  15.742 -0.0113 -0.3979  0.6928
 8911TIP3    H148148   0.828   3.285  15.836 -1.8133  2.4488  1.1868
 8911TIP3    H248149   0.893   3.309  15.701  0.9707 -2.3486  1.4425
 8912TIP3   OH248150   1.657   3.711  12.435 -0.5723 -0.0337 -0.1807
 8912TIP3    H148151   1.581   3.723  12.493 -0.7992 -0.3793 -0.4050
 8912TIP3    H248152   1.714   3.785  12.456 -1.8608  1.3875 -1.4016
 8913TIP3   OH248153   6.695   2.384  17.049  1.0083  0.4500  0.2807
 8913TIP3    H148154   6.765   2.345  16.996  1.7352  0.0526  1.4912
 8913TIP3    H248155   6.625   2.404  16.986  0.9238 -2.0579 -0.5177
 8914TIP3   OH248156   4.460   6.145  13.603  0.0489 -0.1857  0.4881
 8914TIP3    H148157   4.520   6.086  13.649  0.1207  0.3222  1.0487
 8914TIP3    H248158   4.382   6.148  13.658 -1.8844 -3.3876 -1.7605
 8915TIP3   OH248159   1.443   6.651   0.981 -0.8286 -0.2739  0.1132
 8915TIP3    H148160   1.386   6.686   0.912 -1.3166 -1.0200  0.1297
 8915TIP3    H248161   1.465   6.727   1.035 -0.1916  0.3853 -1.0269
 8916TIP3   OH248162   3.219   0.424  15.237 -0.1050 -0.2642  0.8239
 8916TIP3    H148163   3.211   0.519  15.228 -1.1425 -0.4719 -1.0115
 8916TIP3    H248164   3.130   0.391  15.227  0.6051 -1.6154 -2.2355
 8917TIP3   OH248165   3.304   5.503  11.857 -0.6447 -0.3966  0.2022
 8917TIP3    H148166   3.235   5.556  11.897  0.0045  0.4931  0.1490
 8917TIP3    H248167   3.386   5.545  11.883 -0.1115 -1.3519  0.1305
 8918TIP3   OH248168   1.811   2.135  14.947  0.0312 -0.1530  0.6711
 8918TIP3    H148169   1.828   2.229  14.953 -0.8274  0.4216 -3.0763
 8918TIP3    H248170   1.725   2.123  14.986  0.0947  0.6482  1.0648
 8919TIP3   OH248171   6.624   5.948   2.277 -0.3808 -0.3539 -0.1207
 8919TIP3    H148172   6.642   5.866   2.232 -1.2856 -0.7871  0.2759
 8919TIP3    H248173   6.695   5.958   2.339 -1.0607 -1.6492  0.9100
 8920TIP3   OH248174   0.528   2.613  16.005  0.3074 -0.0350 -0.6735
 8920TIP3    H148175   0.522   2.546  15.938 -1.2414  0.5491 -1.1674
 8920TIP3    H248176   0.516   2.696  15.958 -0.0816  0.4292  0.2083
 8921TIP3   OH248177   5.958   5.397  12.362  0.3076 -0.7250 -0.4462
 8921TIP3    H148178   5.873   5.361  12.387  1.0954 -2.1861  0.2761
 8921TIP3    H248179   5.940   5.450  12.285 -1.2913 -0.7866 -0.1488
 8922TIP3   OH248180   0.236   0.939  15.451  0.2158  0.5867  0.6055
 8922TIP3    H148181   0.316   0.991  15.441 -0.0265  0.8497 -0.0287
 8922TIP3    H248182   0.172   0.984  15.396  0.2271 -0.8710 -0.6564
 8923TIP3   OH248183   4.283   3.094   5.152 -0.0983  0.2258 -0.3163
 8923TIP3    H148184   4.355   3.134   5.103  1.2801 -0.5869  0.9640
 8923TIP3    H248185   4.249   3.164   5.208 -0.9820  0.8704 -1.6075
 8924TIP3   OH248186   4.354   4.291  16.651  0.6525 -0.6342 -0.3762
 8924TIP3    H148187   4.289   4.284  16.581  0.3159 -0.4166 -0.0889
 8924TIP3    H248188   4.329   4.223  16.713 -0.4474  0.6517  0.6526
 8925TIP3   OH248189   1.978   4.015   5.776  0.2827  0.2220  0.1823
 8925TIP3    H148190   1.991   3.947   5.842  0.6803  0.7720  0.6819
 8925TIP3    H248191   1.923   4.080   5.820 -0.1589  0.1998 -0.3167
 8926TIP3   OH248192   3.052   1.624  12.733 -0.2011  0.0471  0.5024
 8926TIP3    H148193   3.043   1.669  12.649 -0.1333  0.9983  0.9949
 8926TIP3    H248194   3.074   1.534  12.709  2.6576  0.8912 -0.4892
 8927TIP3   OH248195   0.590   1.552   2.528 -0.3629 -0.0176 -0.3521
 8927TIP3    H148196   0.634   1.621   2.579 -0.4854  0.7516 -1.2682
 8927TIP3    H248197   0.507   1.592   2.502 -0.7196 -0.7512 -0.3426
 8928TIP3   OH248198   4.590   6.385   4.912 -0.5082  0.1819  0.2743
 8928TIP3    H148199   4.613   6.444   4.983 -0.8162  0.3642  0.2244
 8928TIP3    H248200   4.503   6.352   4.934  0.0584 -1.0074  0.7874
 8929TIP3   OH248201   2.768   0.222   2.191 -0.7838 -0.4223  0.4475
 8929TIP3    H148202   2.859   0.199   2.208 -0.9170 -0.5898  0.9734
 8929TIP3    H248203   2.738   0.158   2.127 -0.3124  0.1163 -0.3325
 8930TIP3   OH248204   6.337   0.706   5.230  0.3803 -0.0732  0.2136
 8930TIP3    H148205   6.406   0.706   5.164 -1.0613  1.3465 -1.4043
 8930TIP3    H248206   6.349   0.788   5.278  0.4672 -0.3328  0.6349
 8931TIP3   OH248207   5.379   5.514  13.563 -0.4005  0.1761 -0.1632
 8931TIP3    H148208   5.325   5.446  13.605  0.0503  0.6161  1.1715
 8931TIP3    H248209   5.318   5.586  13.546 -0.4366  0.3023  0.4746
 8932TIP3   OH248210   5.440   3.442  11.646 -0.2663  0.0874  0.0792
 8932TIP3    H148211   5.420   3.473  11.558 -1.1936  0.7077  0.4954
 8932TIP3    H248212   5.506   3.503  11.679 -0.2639  0.1327 -0.0110
 8933TIP3   OH248213   4.064   5.124  14.887 -0.1360  0.6942  0.0629
 8933TIP3    H148214   4.119   5.132  14.965 -0.7446  0.6202  0.5116
 8933TIP3    H248215   4.060   5.030  14.871 -0.2541  0.6872  0.1275
 8934TIP3   OH248216   4.128   1.023   0.466 -0.1588  0.2030 -0.0597
 8934TIP3    H148217   4.162   0.943   0.507  0.0283  0.3826  0.1374
 8934TIP3    H248218   4.111   1.082   0.540  0.3447  0.5931 -0.2528
 8935TIP3   OH248219   3.814   5.282   2.807  0.0170 -0.1199 -0.2768
 8935TIP3    H148220   3.821   5.344   2.879 -0.7052  0.9707 -1.1102
 8935TIP3    H248221   3.764   5.209   2.843  1.2328 -0.4379  0.8364
 8936TIP3   OH248222   5.485   0.996   0.691  0.8188  0.2376  0.3049
 8936TIP3    H148223   5.406   0.996   0.745 -0.8178  1.0183 -1.9502
 8936TIP3    H248224   5.513   1.088   0.690  0.7397  0.2536 -0.3157
 8937TIP3   OH248225   5.829   3.571   2.482  0.0355 -0.2895 -0.2621
 8937TIP3    H148226   5.797   3.501   2.539 -0.5094  1.2866  1.4844
 8937TIP3    H248227   5.921   3.549   2.466  0.1205 -0.9644  1.0037
 8938TIP3   OH248228   2.694   5.044  16.926  0.1422 -0.0181 -0.5355
 8938TIP3    H148229   2.639   5.033  16.849  0.5455 -1.1658 -0.6915
 8938TIP3    H248230   2.708   5.138  16.934  0.2872  0.0980 -2.0032
 8939TIP3   OH248231   3.350   6.028   1.906 -0.0350 -0.5361  0.0596
 8939TIP3    H148232   3.443   6.022   1.931 -0.4906  1.5499  2.7683
 8939TIP3    H248233   3.303   6.027   1.989 -2.4421 -0.9640 -1.2174
 8940TIP3   OH248234   5.614   0.672  13.286  0.7767  0.4281  0.2143
 8940TIP3    H148235   5.675   0.742  13.265 -0.4392  0.8332 -2.2159
 8940TIP3    H248236   5.531   0.716  13.303  0.3425 -0.3231  0.0918
 8941TIP3   OH248237   4.964   1.588   1.979 -0.2071 -0.0319  0.7466
 8941TIP3    H148238   5.057   1.605   1.994  0.2916 -2.5398  1.0103
 8941TIP3    H248239   4.925   1.674   1.967  2.6238  1.0016 -2.4344
 8942TIP3   OH248240   6.424   5.019  13.487 -0.1214 -0.2149  0.0225
 8942TIP3    H148241   6.394   4.976  13.407 -2.3529  1.8862 -0.3856
 8942TIP3    H248242   6.504   5.065  13.461  1.0303 -2.1782 -0.0933
 8943TIP3   OH248243   3.148   4.670   4.610  0.5449 -0.2978  0.0521
 8943TIP3    H148244   3.129   4.581   4.581  0.5858 -0.8491  1.6273
 8943TIP3    H248245   3.236   4.664   4.648  1.2446  0.7966 -1.2822
 8944TIP3   OH248246   5.594   2.270   2.425  0.1640  0.1753 -0.1150
 8944TIP3    H148247   5.647   2.350   2.423 -0.9739  0.9906  0.9572
 8944TIP3    H248248   5.510   2.295   2.387 -1.4076  0.5082  3.2125
 8945TIP3   OH248249   4.768   5.755  12.291  0.3132  0.1820  0.0935
 8945TIP3    H148250   4.710   5.758  12.367 -0.2225 -0.3911 -0.2759
 8945TIP3    H248251   4.712   5.779  12.217  0.7272  0.3364 -0.1704
 8946TIP3   OH248252   2.642   2.308  12.841  0.0197  0.0449 -0.0749
 8946TIP3    H148253   2.722   2.260  12.820  1.1051  2.0175 -0.6944
 8946TIP3    H248254   2.593   2.309  12.759 -0.3842 -0.6458  0.1471
 8947TIP3   OH248255   1.383   3.611  14.426 -0.3582  0.1890  0.1760
 8947TIP3    H148256   1.470   3.647  14.405  0.3597 -0.8452  1.2219
 8947TIP3    H248257   1.401   3.520  14.450 -1.8071 -0.1623 -0.0339
 8948TIP3   OH248258   4.081   3.766  12.487 -0.2047  0.0963 -0.6323
 8948TIP3    H148259   4.112   3.766  12.396  0.2053 -0.5888 -0.5003
 8948TIP3    H248260   4.005   3.824  12.486 -0.6013 -0.4067 -1.5539
 8949TIP3   OH248261   3.319   4.716  11.810  0.0602 -0.1121 -0.1973
 8949TIP3    H148262   3.250   4.780  11.828 -0.3724 -0.9504  1.2813
 8949TIP3    H248263   3.379   4.725  11.884  0.0949 -1.2687 -0.0684
 8950TIP3   OH248264   2.653   0.531  15.911  0.4663  0.2244 -0.0719
 8950TIP3    H148265   2.581   0.514  15.850  2.6632 -1.6315 -2.3661
 8950TIP3    H248266   2.665   0.447  15.957  1.6797  0.2542 -0.3211
 8951TIP3   OH248267   4.356   0.842   4.636  0.1611  0.1742  0.1393
 8951TIP3    H148268   4.361   0.936   4.620 -0.2550 -0.1946 -2.7782
 8951TIP3    H248269   4.440   0.808   4.604  0.9590 -0.3539  2.5961
 8952TIP3   OH248270   4.776   2.819  15.778  0.4939  0.0985 -0.9132
 8952TIP3    H148271   4.843   2.783  15.836 -0.1202  0.4776  0.0516
 8952TIP3    H248272   4.752   2.746  15.721  2.2253  0.1415 -1.7782
 8953TIP3   OH248273   1.951   4.149   5.489  0.0851  0.0196 -0.1257
 8953TIP3    H148274   1.948   4.069   5.541 -1.3079 -0.5740 -1.0450
 8953TIP3    H248275   1.872   4.197   5.515 -0.3490 -0.0417 -1.2854
 8954TIP3   OH248276   4.198   0.469   4.807 -0.0289 -0.6179 -0.4884
 8954TIP3    H148277   4.188   0.563   4.795 -0.1094 -0.4339  0.8827
 8954TIP3    H248278   4.163   0.452   4.895 -1.5745 -2.1707 -1.3236
 8955TIP3   OH248279   5.391   0.192   2.920  0.0193  0.2927 -0.7131
 8955TIP3    H148280   5.458   0.138   2.878 -0.6550 -0.6317 -0.6544
 8955TIP3    H248281   5.422   0.282   2.912  1.4869 -0.1537 -0.2529
 8956TIP3   OH248282   4.325   0.105  12.364 -0.5735 -0.5052 -0.0923
 8956TIP3    H148283   4.401   0.122  12.419 -1.7998  0.2463  1.4634
 8956TIP3    H248284   4.252   0.095  12.426 -1.6697 -1.6530 -1.4948
 8957TIP3   OH248285   6.648   5.896   5.723 -0.5045 -0.0041 -0.0501
 8957TIP3    H148286   6.616   5.828   5.663 -1.9223  1.7097 -1.3292
 8957TIP3    H248287   6.669   5.970   5.667  1.3951  0.5431  1.2839
 8958TIP3   OH248288   0.137   3.502   1.613  0.0337 -0.0249  0.5809
 8958TIP3    H148289   0.160   3.595   1.613  0.9089 -0.2355  0.7634
 8958TIP3    H248290   0.043   3.501   1.627  0.1809  0.7983  1.7260
 8959TIP3   OH248291   2.702   4.736  17.029  0.7238 -0.2406  0.3712
 8959TIP3    H148292   2.613   4.767  17.049 -1.0556 -3.8475 -0.9878
 8959TIP3    H248293   2.697   4.706  16.938  2.6215 -2.6904  0.9672
 8960TIP3   OH248294   6.757   4.716   2.684 -0.0628 -0.1658 -0.5943
 8960TIP3    H148295   6.684   4.657   2.669 -0.4194  0.8759 -3.7595
 8960TIP3    H248296   6.720   4.788   2.735 -0.2978 -1.2804  0.8718
 8961TIP3   OH248297   1.301   4.234  16.658 -0.3450 -0.1991 -0.3948
 8961TIP3    H148298   1.324   4.208  16.569 -0.2591 -1.7262  0.0429
 8961TIP3    H248299   1.246   4.163  16.691 -1.0972  0.7515  0.4835
 8962TIP3   OH248300   6.270   4.800   2.509 -0.0065 -0.3964  0.0307
 8962TIP3    H148301   6.274   4.799   2.413 -0.0950 -0.4373  0.0268
 8962TIP3    H248302   6.301   4.713   2.535 -0.1967 -0.4656  0.0294
 8963TIP3   OH248303   6.498   1.702  12.017  0.4494 -0.0889 -0.6902
 8963TIP3    H148304   6.586   1.713  12.053  0.5058 -0.4750 -0.7130
 8963TIP3    H248305   6.473   1.790  11.988  0.4757  0.1839  0.1064
 8964TIP3   OH248306   0.413   4.656   3.152  0.5269 -0.1179 -0.1657
 8964TIP3    H148307   0.359   4.732   3.174 -0.7807 -0.5945 -1.5436
 8964TIP3    H248308   0.478   4.652   3.222 -0.1701  1.4946  0.6350
 8965TIP3   OH248309   3.521   4.228  13.551 -0.4421 -0.2814 -0.3694
 8965TIP3    H148310   3.551   4.155  13.497  2.1355  0.6173 -0.2814
 8965TIP3    H248311   3.540   4.306  13.500  0.4138  0.5050  1.0812
 8966TIP3   OH248312   6.028   6.462   4.275 -0.9378  0.0443  0.2410
 8966TIP3    H148313   6.028   6.545   4.322 -1.5699 -0.0388  0.3967
 8966TIP3    H248314   5.941   6.426   4.290 -1.4184  0.3695 -1.6382
 8967TIP3   OH248315   3.441   5.525   2.253  0.7510  0.0124  0.3653
 8967TIP3    H148316   3.459   5.452   2.313  0.1817 -1.4682 -1.1841
 8967TIP3    H248317   3.523   5.538   2.207  0.6971 -0.0212  0.2600
 8968TIP3   OH248318   0.303   6.788  11.716  0.2660 -0.1837  0.0114
 8968TIP3    H148319   0.354   6.716  11.678  0.1919  0.6354 -1.7259
 8968TIP3    H248320   0.281   6.758  11.804 -1.6068 -3.2355 -1.3423
 8969TIP3   OH248321   0.299   4.897   4.926 -0.5839 -0.0277  0.3539
 8969TIP3    H148322   0.354   4.846   4.985 -0.6190 -1.3955 -0.7488
 8969TIP3    H248323   0.289   4.982   4.970  3.0865  0.6253  0.2121
 8970TIP3   OH248324   3.235   0.647   5.314  0.0183 -0.0701  0.0125
 8970TIP3    H148325   3.245   0.684   5.402  0.7238  0.9958 -0.4957
 8970TIP3    H248326   3.174   0.707   5.270 -1.7477 -1.5616  0.2844
 8971TIP3   OH248327   1.423   4.385   4.124  0.1703 -0.3500  0.2316
 8971TIP3    H148328   1.354   4.324   4.097  1.4816 -2.6974  1.7604
 8971TIP3    H248329   1.396   4.413   4.211  1.2717 -1.6179  1.0162
 8972TIP3   OH248330   5.022   5.992   0.664  0.2791 -0.8217 -0.4125
 8972TIP3    H148331   4.985   5.918   0.712 -0.0999  1.1911  2.6682
 8972TIP3    H248332   5.113   5.967   0.648 -0.4688 -2.9409 -1.8055
 8973TIP3   OH248333   1.362   5.281  12.566  0.3241  0.4585 -0.2716
 8973TIP3    H148334   1.271   5.271  12.537  0.0834  2.5828 -0.3847
 8973TIP3    H248335   1.414   5.249  12.492 -0.3227  0.0236 -0.5455
 8974TIP3   OH248336   4.455   6.654   5.970 -0.1768 -0.0394 -0.2524
 8974TIP3    H148337   4.459   6.700   6.053 -1.3538 -2.0453  0.9999
 8974TIP3    H248338   4.368   6.675   5.935 -0.2921 -0.4275 -0.2038
 8975TIP3   OH248339   0.575   0.659  13.127 -0.3347  0.4735 -1.0216
 8975TIP3    H148340   0.554   0.686  13.217 -0.9433  1.2380 -1.3907
 8975TIP3    H248341   0.598   0.566  13.136 -2.1060  0.0617 -0.3188
 8976TIP3   OH248342   3.763   1.382   1.134 -0.1916 -0.2771 -0.0640
 8976TIP3    H148343   3.726   1.430   1.060  1.3307  1.6128  0.3077
 8976TIP3    H248344   3.700   1.394   1.205 -0.6501 -0.3025 -0.4637
 8977TIP3   OH248345   6.342   4.170   2.615  0.0964  0.0659 -0.0315
 8977TIP3    H148346   6.347   4.233   2.687  0.1768 -0.3262  0.3131
 8977TIP3    H248347   6.289   4.098   2.650 -1.8239  0.8698 -1.1461
 8978TIP3   OH248348   3.945   5.669   5.452  0.2856 -0.6536 -0.1823
 8978TIP3    H148349   3.956   5.764   5.456 -0.7843 -0.4489 -1.1684
 8978TIP3    H248350   3.978   5.636   5.535 -0.8638  0.7652  0.8901
 8979TIP3   OH248351   2.738   5.095   0.994 -0.3303 -0.0053  0.5247
 8979TIP3    H148352   2.730   5.046   0.912  0.6498 -0.6016  0.7641
 8979TIP3    H248353   2.824   5.070   1.028 -0.1849  1.2105  1.1062
 8980TIP3   OH248354   6.273   6.148   2.566 -0.2705 -0.4279 -0.0096
 8980TIP3    H148355   6.288   6.220   2.627 -0.2444  0.0316 -0.5567
 8980TIP3    H248356   6.216   6.185   2.499 -1.5324 -1.3442  0.5099
 8981TIP3   OH248357   3.670   6.007   5.030 -0.3676 -0.2374  0.6098
 8981TIP3    H148358   3.710   5.972   5.110  1.1382  1.1836  0.5260
 8981TIP3    H248359   3.713   5.961   4.959  0.6803  0.8016  0.5429
 8982TIP3   OH248360   4.361   6.461  13.674 -0.2717 -0.1561  0.2052
 8982TIP3    H148361   4.344   6.432  13.763  0.0976  1.5331  0.8660
 8982TIP3    H248362   4.456   6.457  13.665 -0.2473  0.4749  0.1782
 8983TIP3   OH248363   6.062   6.439   6.388 -0.1974 -0.4982  0.2240
 8983TIP3    H148364   5.983   6.469   6.433 -0.4448 -0.7254 -0.0593
 8983TIP3    H248365   6.066   6.492   6.309  0.4109  0.1244  0.6552
 8984TIP3   OH248366   2.854   4.407   5.426  0.1772  0.0583 -0.5472
 8984TIP3    H148367   2.893   4.322   5.449  0.1726  0.0663 -0.5103
 8984TIP3    H248368   2.851   4.454   5.509 -1.9963 -0.7590 -0.1081
 8985TIP3   OH248369   5.848   3.608  14.714 -0.4886  0.1106  0.0824
 8985TIP3    H148370   5.885   3.659  14.787 -0.6360  2.9199 -1.6624
 8985TIP3    H248371   5.769   3.656  14.689 -1.5538 -1.9458 -0.6852
 8986TIP3   OH248372   4.597   4.450  16.666  0.2670 -0.2090 -0.5459
 8986TIP3    H148373   4.631   4.387  16.730  0.5520 -1.2169 -1.6654
 8986TIP3    H248374   4.502   4.441  16.672  0.1978  0.9449  0.9231
 8987TIP3   OH248375   4.212   2.479   1.322 -0.2319 -0.0544  0.0247
 8987TIP3    H148376   4.132   2.522   1.292 -0.2226 -0.2491 -0.2795
 8987TIP3    H248377   4.205   2.479   1.417  0.7521  2.5707  0.1843
 8988TIP3   OH248378   3.633   4.421  13.361  0.1137 -0.0728 -0.4320
 8988TIP3    H148379   3.720   4.384  13.372 -0.0735 -0.8759 -1.4982
 8988TIP3    H248380   3.644   4.515  13.377  1.3513 -0.0245 -1.4238
 8989TIP3   OH248381   3.808   2.209   2.527 -0.4012  0.4487 -0.0468
 8989TIP3    H148382   3.722   2.166   2.529 -0.8469  1.1302 -2.1066
 8989TIP3    H248383   3.871   2.137   2.527 -0.9651 -0.0669  1.1357
 8990TIP3   OH248384   0.334   3.201   3.403  0.7931 -0.1247  0.5496
 8990TIP3    H148385   0.375   3.124   3.442  0.8386 -0.8838 -0.9494
 8990TIP3    H248386   0.406   3.252   3.367  0.8296  0.9831  2.0781
 8991TIP3   OH248387   3.411   4.525   4.081 -0.4823  0.4202 -0.3110
 8991TIP3    H148388   3.371   4.568   4.157  1.9479  2.0748  0.1156
 8991TIP3    H248389   3.432   4.437   4.113 -1.6735  0.2752  0.1353
 8992TIP3   OH248390   0.402   2.211  15.564  0.0327  0.4413 -0.0982
 8992TIP3    H148391   0.444   2.130  15.592 -1.3207  0.1063  1.0536
 8992TIP3    H248392   0.473   2.262  15.524  1.2890 -0.5524  0.7897
 8993TIP3   OH248393   0.809   5.500   4.598  0.1444 -0.0537  0.0903
 8993TIP3    H148394   0.860   5.420   4.585  0.1340  0.2140 -1.9906
 8993TIP3    H248395   0.719   5.470   4.605  0.0941 -0.2412 -1.0918
 8994TIP3   OH248396   3.486   1.775   1.945  0.1259  0.1405 -0.0853
 8994TIP3    H148397   3.480   1.698   2.001  1.6409  0.7100  0.9340
 8994TIP3    H248398   3.566   1.761   1.894  1.5291  1.8555  1.5106
 8995TIP3   OH248399   4.721   6.647  16.753 -0.3644 -0.0482  0.5307
 8995TIP3    H148400   4.627   6.669  16.753 -0.5007 -0.6140  1.1669
 8995TIP3    H248401   4.728   6.573  16.813  1.0367  2.2247  3.3795
 8996TIP3   OH248402   2.006   4.178  13.427  0.0808  0.4434  0.1666
 8996TIP3    H148403   1.981   4.147  13.514 -0.3623 -0.6179 -0.3116
 8996TIP3    H248404   2.061   4.107  13.392  2.5251  2.0157  0.5782
 8997TIP3   OH248405   1.021   1.261  16.558 -0.2668 -0.1868 -0.1241
 8997TIP3    H148406   1.052   1.251  16.468  0.2040 -2.2140  0.2208
 8997TIP3    H248407   1.099   1.285  16.608  0.2227 -2.3797  0.2562
 8998TIP3   OH248408   1.877   6.474   1.786 -0.3763 -0.2279 -0.0620
 8998TIP3    H148409   1.938   6.435   1.723  1.1640  1.9188 -0.0014
 8998TIP3    H248410   1.831   6.542   1.737 -0.8116 -0.0460  0.5774
 8999TIP3   OH248411   5.932   4.561   6.536  0.4445 -0.0543  0.0608
 8999TIP3    H148412   6.017   4.591   6.506  0.2577 -0.5630 -1.0594
 8999TIP3    H248413   5.903   4.500   6.468 -1.9251  1.9754 -0.9056
 9000TIP3   OH248414   1.295   0.875   1.075 -0.1265  0.1114 -0.6026
 9000TIP3    H148415   1.233   0.841   1.140 -1.6920  2.0503 -0.9892
 9000TIP3    H248416   1.289   0.814   1.002  0.2412 -1.0303  0.2776
 9001TIP3   OH248417   6.127   1.559  12.543  0.0125  0.0902  0.3911
 9001TIP3    H148418   6.198   1.612  12.578  1.2118  0.0072 -1.7047
 9001TIP3    H248419   6.131   1.574  12.448 -1.3798 -1.5887  0.0179
 9002TIP3   OH248420   4.200   0.864   5.660  0.7521 -0.1817  0.1618
 9002TIP3    H148421   4.253   0.872   5.581 -0.3188  0.2579 -0.5394
 9002TIP3    H248422   4.207   0.950   5.702 -0.6544  0.4384 -0.7813
 9003TIP3   OH248423   2.600   2.262   5.917  0.7552  0.7201 -0.0013
 9003TIP3    H148424   2.669   2.210   5.959  0.3215 -0.3920 -0.6046
 9003TIP3    H248425   2.646   2.334   5.875  1.2527  1.6215  1.9696
 9004TIP3   OH248426   4.025   3.580   0.273 -0.1067 -0.0931 -0.5058
 9004TIP3    H148427   4.112   3.541   0.265 -0.5829 -1.2243 -0.5082
 9004TIP3    H248428   3.992   3.583   0.183 -0.9428 -1.8725 -0.3186
 9005TIP3   OH248429   6.088   6.676  13.626  0.4401  0.4305  0.3893
 9005TIP3    H148430   6.066   6.728  13.548  1.7554  0.0841 -0.2297
 9005TIP3    H248431   6.150   6.731  13.675 -0.8422  0.9149  1.5385
 9006TIP3   OH248432   3.011   2.741   5.208  0.1004  0.0660 -0.0285
 9006TIP3    H148433   2.932   2.737   5.154  0.5606 -2.0785 -0.6374
 9006TIP3    H248434   3.039   2.650   5.217  3.2673  0.8114 -0.9913
 9007TIP3   OH248435   2.960   3.951   2.066 -0.5594 -0.0923 -0.2864
 9007TIP3    H148436   3.046   3.978   2.097 -0.3089 -0.1256 -0.9489
 9007TIP3    H248437   2.915   4.033   2.045  0.3186 -0.1331 -2.6159
 9008TIP3   OH248438   4.651   6.180   0.852 -0.0204  0.0990  0.3681
 9008TIP3    H148439   4.588   6.111   0.831 -1.2522  1.0147  0.9262
 9008TIP3    H248440   4.735   6.136   0.854 -0.4510 -0.9173 -1.7194
 9009TIP3   OH248441   3.826   6.467  11.159  0.2640 -0.4189 -0.2416
 9009TIP3    H148442   3.789   6.511  11.236 -1.0070 -1.9391  0.0711
 9009TIP3    H248443   3.787   6.380  11.160  3.2974 -1.8861 -0.4040
 9010TIP3   OH248444   3.341   1.165   4.704  0.0832  0.0917 -0.5543
 9010TIP3    H148445   3.357   1.253   4.740  1.0030 -0.6033  0.8182
 9010TIP3    H248446   3.265   1.132   4.752  1.4060 -0.8989  0.9425
 9011TIP3   OH248447   1.067   2.861   4.996  0.0808 -0.2269 -0.8801
 9011TIP3    H148448   1.135   2.897   4.939 -0.4792 -1.3147 -2.2737
 9011TIP3    H248449   1.001   2.826   4.937 -1.5263  0.4033  0.4400
 9012TIP3   OH248450   6.021   3.252   3.360  0.0852 -0.3393 -0.4080
 9012TIP3    H148451   6.073   3.292   3.430 -0.5939  0.3263 -0.2757
 9012TIP3    H248452   5.984   3.173   3.398 -1.3756  0.7023  0.4380
 9013TIP3   OH248453   3.901   2.008   1.010 -0.0867 -0.1420  0.1656
 9013TIP3    H148454   3.936   1.942   1.070 -0.9983 -1.2998 -0.5531
 9013TIP3    H248455   3.909   2.090   1.059 -0.3081 -0.9728  1.6722
 9014TIP3   OH248456   5.583   4.705   0.865 -0.0688  0.3541  0.0208
 9014TIP3    H148457   5.607   4.767   0.796 -1.3546  0.6038 -0.2404
 9014TIP3    H248458   5.545   4.759   0.934  0.2444  0.0035  0.4696
 9015TIP3   OH248459   4.421   2.310  13.118 -0.1018 -0.5161  0.1766
 9015TIP3    H148460   4.479   2.382  13.142 -0.1887  0.3941 -2.0833
 9015TIP3    H248461   4.420   2.253  13.194  1.1131  1.1436  1.5027
 9016TIP3   OH248462   6.250   2.470  12.933 -0.2847  0.3002 -0.0405
 9016TIP3    H148463   6.335   2.429  12.950  0.1565  0.1111 -2.3882
 9016TIP3    H248464   6.238   2.530  13.007  2.1112  0.6608  0.1518
 9017TIP3   OH248465   3.232   1.826  11.028  0.2811  0.7159 -0.6506
 9017TIP3    H148466   3.256   1.743  10.987 -1.0657 -0.0792  0.0977
 9017TIP3    H248467   3.291   1.890  10.989  2.4873 -0.8354 -0.0662
 9018TIP3   OH248468   1.295   4.843   0.042 -0.1794  0.4099  0.1022
 9018TIP3    H148469   1.374   4.833  -0.012  0.0533  0.0794  0.5023
 9018TIP3    H248470   1.276   4.937   0.040 -0.0121  0.4375 -0.3244
 9019TIP3   OH248471   0.105   1.662   5.629  0.1506 -0.2785  0.1140
 9019TIP3    H148472   0.156   1.743   5.638  0.5711 -0.5736  0.3901
 9019TIP3    H248473   0.154   1.597   5.679  0.7717 -1.1599 -1.5815
 9020TIP3   OH248474   3.784   3.342   3.946 -0.1669  0.2524 -0.4353
 9020TIP3    H148475   3.765   3.427   3.907  0.8428  0.5786 -0.2447
 9020TIP3    H248476   3.793   3.360   4.040 -1.7609 -0.3862 -0.1307
 9021TIP3   OH248477   2.580   5.893   2.492 -0.2268  0.0052  0.4173
 9021TIP3    H148478   2.493   5.927   2.474  0.2953  1.1365 -0.0618
 9021TIP3    H248479   2.635   5.928   2.422  0.2366 -2.3790 -0.4918
 9022TIP3   OH248480   4.228   2.366   2.105 -0.2697 -0.2762 -0.4834
 9022TIP3    H148481   4.286   2.305   2.151  1.5683  2.6266  1.3193
 9022TIP3    H248482   4.143   2.355   2.149  0.2381 -0.9162  0.3777
 9023TIP3   OH248483   4.472   5.702  15.196  0.3085  0.3476 -0.7875
 9023TIP3    H148484   4.513   5.617  15.208  2.9339  1.7315  1.2468
 9023TIP3    H248485   4.523   5.744  15.127 -0.7326  0.4768 -1.5174
 9024TIP3   OH248486   5.193   3.251  13.270 -0.4084 -0.0892 -0.3772
 9024TIP3    H148487   5.117   3.201  13.242 -1.1689  0.7847  0.0883
 9024TIP3    H248488   5.259   3.185  13.290 -0.6381 -0.8194 -1.9084
 9025TIP3   OH248489   1.044   4.754   3.016 -0.0043  0.5047 -0.1362
 9025TIP3    H148490   1.099   4.687   3.056 -1.4665 -0.3080  0.6089
 9025TIP3    H248491   0.963   4.707   2.992 -0.1738  1.5163 -1.7217
 9026TIP3   OH248492   3.075   2.825   6.452  0.3589 -0.3299 -0.1136
 9026TIP3    H148493   3.132   2.895   6.421  0.1505 -0.5677 -1.0505
 9026TIP3    H248494   3.123   2.744   6.434  0.1935 -0.4804  0.1064
 9027TIP3   OH248495   0.699   1.850   6.664  0.3855 -0.1003 -0.0542
 9027TIP3    H148496   0.701   1.929   6.610 -0.9891 -0.9349 -1.3984
 9027TIP3    H248497   0.639   1.791   6.618 -1.2687 -0.6937  2.6573
 9028TIP3   OH248498   1.851   2.198   1.279  0.2165 -0.0132  0.1115
 9028TIP3    H148499   1.770   2.155   1.308 -0.2415 -0.0776 -1.1755
 9028TIP3    H248500   1.920   2.134   1.298 -0.0654 -0.0834  0.9470
 9029TIP3   OH248501   6.342   1.424  14.302 -0.1004 -0.4220 -0.1690
 9029TIP3    H148502   6.397   1.461  14.233  0.3114  0.4076  0.5678
 9029TIP3    H248503   6.365   1.331  14.303  1.0176 -0.1712 -0.1579
 9030TIP3   OH248504   1.374   1.512  11.533  0.3275 -0.3888 -0.1890
 9030TIP3    H148505   1.357   1.510  11.438  1.0700  0.9801 -0.3768
 9030TIP3    H248506   1.464   1.545  11.540 -0.2234  0.9398  1.0439
 9031TIP3   OH248507   0.138   4.616   1.122 -0.3344  0.5817  0.5077
 9031TIP3    H148508   0.191   4.637   1.045 -1.9229  5.6235  0.4167
 9031TIP3    H248509   0.190   4.647   1.196  0.4519 -2.7021  1.4919
 9032TIP3   OH248510   1.129   6.773   4.381 -0.4007 -0.1553 -0.3571
 9032TIP3    H148511   1.111   6.703   4.319  0.2404  0.0553 -0.7982
 9032TIP3    H248512   1.090   6.743   4.463 -0.3530 -0.9092 -0.5992
 9033TIP3   OH248513   5.464   3.133  11.155  0.7230  0.2249 -0.1502
 9033TIP3    H148514   5.396   3.105  11.215  2.0218 -1.9715  0.4011
 9033TIP3    H248515   5.425   3.205  11.106 -1.3934  0.1029  1.2490
 9034TIP3   OH248516   0.879   4.898  14.179  0.1332  0.7547  0.7250
 9034TIP3    H148517   0.887   4.836  14.107  1.4119  1.4080  0.2632
 9034TIP3    H248518   0.805   4.866  14.231 -0.8264  0.2628 -0.8647
 9035TIP3   OH248519   3.194   6.465  12.788  0.1514  0.0416 -0.0381
 9035TIP3    H148520   3.255   6.537  12.771 -0.5128  0.9459  1.2270
 9035TIP3    H248521   3.114   6.490  12.743  0.7890 -1.3562 -2.0659
 9036TIP3   OH248522   0.857   0.317   2.599 -0.5276 -0.0068 -0.1240
 9036TIP3    H148523   0.834   0.227   2.578 -1.2945 -0.3959  2.0980
 9036TIP3    H248524   0.953   0.320   2.593 -0.4484 -1.1511  0.3602
 9037TIP3   OH248525   3.307   5.123  11.427 -0.5470  0.5455 -0.2224
 9037TIP3    H148526   3.237   5.181  11.456  0.8472  2.1948  0.0205
 9037TIP3    H248527   3.368   5.180  11.381  1.3399 -0.5344  0.8055
 9038TIP3   OH248528   0.860   2.408  15.714 -0.3721  0.3881 -0.0967
 9038TIP3    H148529   0.841   2.497  15.743  1.6817  0.7230  0.4394
 9038TIP3    H248530   0.942   2.386  15.758 -1.6181 -2.3999  1.0556
 9039TIP3   OH248531   1.732   0.228  14.353  0.0389  0.1599  0.2483
 9039TIP3    H148532   1.759   0.203  14.442  0.2939  0.0827  0.1512
 9039TIP3    H248533   1.746   0.323  14.349 -0.2067  0.2012  0.3702
 9040TIP3   OH248534   2.314   2.547   4.098 -0.6808  0.2949 -0.3933
 9040TIP3    H148535   2.225   2.512   4.092 -1.0234  0.6297  1.9667
 9040TIP3    H248536   2.367   2.484   4.051 -1.8341 -1.3309  0.3911
 9041TIP3   OH248537   4.236   4.798   1.449  0.6703 -0.5097  0.6041
 9041TIP3    H148538   4.290   4.865   1.492  0.2686  1.4123 -1.6733
 9041TIP3    H248539   4.247   4.815   1.355  0.2712 -3.4855 -0.0760
 9042TIP3   OH248540   2.601   2.466   2.009  0.0208  0.0666  0.3670
 9042TIP3    H148541   2.586   2.503   2.096 -1.0520  0.3101  0.0966
 9042TIP3    H248542   2.628   2.376   2.025  0.7112  0.3801  0.9768
 9043TIP3   OH248543   1.496   0.619   4.034  0.4913  0.2788  0.6946
 9043TIP3    H148544   1.407   0.631   4.068  0.3276 -0.8383  0.6901
 9043TIP3    H248545   1.485   0.562   3.959  1.1734  0.5005  0.4213
 9044TIP3   OH248546   4.370   5.357   1.164  0.3777 -0.0602  0.1989
 9044TIP3    H148547   4.411   5.427   1.112  2.1542 -0.7010  0.6475
 9044TIP3    H248548   4.284   5.344   1.124  1.1369  0.4269 -1.7064
 9045TIP3   OH248549   4.560   5.183   2.543 -0.1036 -0.0981  0.2175
 9045TIP3    H148550   4.643   5.230   2.542 -0.1476  0.0380  1.3906
 9045TIP3    H248551   4.517   5.211   2.624 -0.0092 -2.3353  1.1325
 9046TIP3   OH248552   0.762   0.023   6.830 -0.6041  0.3821 -0.0305
 9046TIP3    H148553   0.675   0.047   6.862 -0.1587  0.8878  0.8603
 9046TIP3    H248554   0.752  -0.065   6.793 -1.0973 -0.3558  1.7772
 9047TIP3   OH248555   4.117   1.115   2.267 -0.1443 -0.2251 -0.8120
 9047TIP3    H148556   4.129   1.034   2.316  1.3028 -0.1130 -0.9559
 9047TIP3    H248557   4.068   1.089   2.189 -0.1810 -0.8467 -0.5889
 9048TIP3   OH248558   0.759   2.095  16.664 -0.3439  0.3717 -1.0626
 9048TIP3    H148559   0.822   2.166  16.652 -0.6103  0.7558 -0.3024
 9048TIP3    H248560   0.748   2.057  16.577  0.4865  0.6810 -1.3110
 9049TIP3   OH248561   0.848   3.864   5.593  0.3970 -0.0904  0.0377
 9049TIP3    H148562   0.838   3.799   5.663 -0.4957  0.7000  0.6647
 9049TIP3    H248563   0.842   3.813   5.512 -0.2515 -0.8074  0.5201
 9050TIP3   OH248564   6.453   1.469  15.853  0.4200 -0.2647  0.6212
 9050TIP3    H148565   6.499   1.474  15.936  1.3524 -0.3922  0.1284
 9050TIP3    H248566   6.471   1.381  15.820 -1.1270 -0.7356  0.9324
 9051TIP3   OH248567   2.155   0.870  12.373  0.1900  0.2513  0.4432
 9051TIP3    H148568   2.156   0.878  12.468  0.0538  0.8445  0.4011
 9051TIP3    H248569   2.074   0.822  12.354  0.8888 -1.0686  0.6954
 9052TIP3   OH248570   1.422   0.300   3.422  0.0625  0.4936 -0.4842
 9052TIP3    H148571   1.420   0.208   3.447 -0.3562  0.3417 -1.0621
 9052TIP3    H248572   1.441   0.299   3.329 -1.6345  0.9077 -0.8782
 9053TIP3   OH248573   3.539   4.661   2.778  0.0471 -0.1338 -0.5397
 9053TIP3    H148574   3.495   4.677   2.695 -1.3296  2.8013  0.6085
 9053TIP3    H248575   3.468   4.643   2.840  0.7517  0.6039  0.5348
 9054TIP3   OH248576   2.524   2.436   1.154 -0.0965  0.0318  0.4842
 9054TIP3    H148577   2.478   2.357   1.180 -0.4005 -0.0321 -0.2402
 9054TIP3    H248578   2.583   2.454   1.227 -1.2729  0.1345  1.4289
 9055TIP3   OH248579   5.721   6.614  17.223  0.4702 -0.0491  0.4668
 9055TIP3    H148580   5.814   6.614  17.202  0.8971  0.8051  2.2384
 9055TIP3    H248581   5.714   6.666  17.303 -1.4283 -0.7873  0.8295
 9056TIP3   OH248582   1.494   6.557  13.948  0.2324 -0.2150  0.2459
 9056TIP3    H148583   1.577   6.574  13.902  0.0457  1.9286  0.5993
 9056TIP3    H248584   1.473   6.640  13.991 -3.1688  0.0366 -1.5344
 9057TIP3   OH248585   4.838   2.746   0.355  0.1701 -0.3888  0.1386
 9057TIP3    H148586   4.928   2.736   0.386 -0.4340 -1.3342  1.6670
 9057TIP3    H248587   4.788   2.679   0.402 -1.7032  1.4014  0.8634
 9058TIP3   OH248588   4.130   4.895  11.459 -0.1077  0.0955 -0.1192
 9058TIP3    H148589   4.127   4.829  11.528 -1.6796 -1.7629 -1.8430
 9058TIP3    H248590   4.042   4.932  11.457 -0.4480 -0.7251 -1.8595
 9059TIP3   OH248591   5.069   5.570  14.270 -0.3241 -0.0880 -0.4985
 9059TIP3    H148592   5.013   5.646  14.254 -0.0114 -0.0092 -1.2548
 9059TIP3    H248593   5.063   5.518  14.190  0.3275 -0.3030 -0.4162
 9060TIP3   OH248594   5.257   6.714   2.461 -0.4037  0.1522  0.2913
 9060TIP3    H148595   5.272   6.629   2.420 -0.7624 -0.9360  2.2629
 9060TIP3    H248596   5.242   6.694   2.553  0.5952  2.4611  1.0519
 9061TIP3   OH248597   2.583   3.359  10.679 -0.0044 -0.4341  0.4883
 9061TIP3    H148598   2.644   3.295  10.715  0.4682 -0.9186 -1.0735
 9061TIP3    H248599   2.625   3.444  10.695  0.4528 -0.6774  0.6003
 9062TIP3   OH248600   5.371   4.093   4.193  0.1839 -0.1674  0.0501
 9062TIP3    H148601   5.330   4.007   4.184 -0.1829 -0.0379  0.4185
 9062TIP3    H248602   5.317   4.151   4.139 -0.3818  0.0825  0.8595
 9063TIP3   OH248603   0.774   0.849  16.582  0.3837  0.4224  0.1914
 9063TIP3    H148604   0.772   0.799  16.500  0.2168 -0.7773  0.8992
 9063TIP3    H248605   0.852   0.905  16.574  0.6100  0.0135 -0.6037
 9064TIP3   OH248606   5.898   1.784  11.072 -0.1851 -0.3010  0.3921
 9064TIP3    H148607   5.975   1.727  11.067 -0.6587 -0.8309 -1.2687
 9064TIP3    H248608   5.840   1.754  11.003 -0.4160  2.2514 -0.6479
 9065TIP3   OH248609   0.661   1.857   5.715 -0.1474 -0.1052  0.0424
 9065TIP3    H148610   0.676   1.765   5.736  2.5295  0.1270 -0.5110
 9065TIP3    H248611   0.660   1.861   5.620  0.0428  0.4845  0.0593
 9066TIP3   OH248612   1.604   6.325  14.601 -0.6769 -0.3954  0.1116
 9066TIP3    H148613   1.658   6.274  14.540 -0.2052  0.7430 -0.4595
 9066TIP3    H248614   1.666   6.364  14.662 -0.8508  0.7375 -0.4074
 9067TIP3   OH248615   5.546   1.825  12.552 -0.4595  0.1916  0.5174
 9067TIP3    H148616   5.471   1.790  12.504  1.3164 -2.5523 -0.5104
 9067TIP3    H248617   5.528   1.800  12.643 -1.1044  0.1547  0.3883
 9068TIP3   OH248618   2.152   2.253  12.158 -0.3182  0.6514  0.3967
 9068TIP3    H148619   2.150   2.271  12.252 -1.8002 -0.0398  0.5134
 9068TIP3    H248620   2.211   2.178  12.149  0.6255  1.3409  0.6371
 9069TIP3   OH248621   2.882   0.063  16.592  0.0463 -0.3140 -0.3671
 9069TIP3    H148622   2.810   0.090  16.535 -1.5607 -0.4925  1.4750
 9069TIP3    H248623   2.886  -0.032  16.581  0.0917 -0.2932 -0.5459
 9070TIP3   OH248624   4.098   0.080   4.620  0.3644 -0.1149 -0.3343
 9070TIP3    H148625   4.073   0.172   4.627 -0.4443 -0.3288 -0.3000
 9070TIP3    H248626   4.117   0.067   4.527  1.3113  0.2812 -0.2125
 9071TIP3   OH248627   1.921   2.260   3.280  0.0897 -0.4488  0.5466
 9071TIP3    H148628   1.844   2.286   3.229  0.3531  0.1159  0.4202
 9071TIP3    H248629   1.995   2.298   3.231  0.3290  0.3550  1.4964
 9072TIP3   OH248630   2.924   4.803   1.069  0.3139 -0.3442 -0.0500
 9072TIP3    H148631   2.930   4.716   1.109  1.9860 -0.0967  0.3051
 9072TIP3    H248632   2.845   4.799   1.015 -0.5715 -1.5122  1.2746
 9073TIP3   OH248633   0.116   4.517  14.318  0.3062  0.0232  0.0552
 9073TIP3    H148634   0.098   4.542  14.227 -0.8765 -0.1306  0.2220
 9073TIP3    H248635   0.162   4.434  14.312  2.4701  1.1859 -0.4529
 9074TIP3   OH248636   4.238   3.659  15.662  0.1241 -0.0761 -0.0238
 9074TIP3    H148637   4.226   3.569  15.633  0.0492 -0.5535  1.4236
 9074TIP3    H248638   4.294   3.652  15.739 -0.5947  1.0453  0.6181
 9075TIP3   OH248639   1.476   4.284  12.454 -0.6755 -0.2985 -0.8291
 9075TIP3    H148640   1.542   4.219  12.430 -1.8858 -1.1552 -1.9617
 9075TIP3    H248641   1.473   4.280  12.550 -0.2981 -1.4575 -0.8552
 9076TIP3   OH248642   2.230   4.852   2.112 -0.0424  0.2040  0.5008
 9076TIP3    H148643   2.308   4.819   2.068 -0.1197  0.5707  0.0714
 9076TIP3    H248644   2.165   4.783   2.100 -0.5994  0.9913 -1.5267
 9077TIP3   OH248645   0.037   2.509  16.464  0.2572  0.2987 -0.3058
 9077TIP3    H148646  -0.016   2.554  16.530  0.3790  0.4098 -0.2842
 9077TIP3    H248647   0.015   2.416  16.474 -0.2154  0.3788 -0.5420
 9078TIP3   OH248648   1.348   1.649   2.999  0.6100 -0.8239 -0.1786
 9078TIP3    H148649   1.338   1.555   3.015 -1.8365 -0.8014 -1.1795
 9078TIP3    H248650   1.295   1.690   3.067 -0.1649 -0.2848 -1.0857
 9079TIP3   OH248651   6.681   2.551  16.712  0.0036 -0.1308  0.1517
 9079TIP3    H148652   6.728   2.478  16.752  2.2500  1.7132  1.1222
 9079TIP3    H248653   6.667   2.613  16.784 -3.1196 -0.1393 -0.3221
 9080TIP3   OH248654   3.790   0.309   4.706 -0.2171 -0.7096  0.2420
 9080TIP3    H148655   3.773   0.237   4.766  0.5913 -0.7254  0.4517
 9080TIP3    H248656   3.781   0.388   4.760 -0.6282 -0.6681  0.1189
 9081TIP3   OH248657   6.234   2.151  12.252  0.0797  0.6485  0.4332
 9081TIP3    H148658   6.151   2.105  12.241 -1.1417  2.9314 -0.5033
 9081TIP3    H248659   6.247   2.199  12.170  3.2986 -1.0057 -0.1897
 9082TIP3   OH248660   2.937   5.635  15.928  0.2687  0.1211  0.0634
 9082TIP3    H148661   3.030   5.618  15.911  0.4163  1.0176 -0.0534
 9082TIP3    H248662   2.931   5.645  16.023  0.6526  2.0115 -0.0701
 9083TIP3   OH248663   5.183   3.662  10.706 -0.0947  0.4941 -0.9311
 9083TIP3    H148664   5.101   3.661  10.756 -0.5728 -1.0333 -1.6891
 9083TIP3    H248665   5.161   3.708  10.625 -0.8275 -1.5973 -2.0163
 9084TIP3   OH248666   0.032   1.842   3.597 -0.0213  0.0419 -0.6134
 9084TIP3    H148667  -0.022   1.860   3.520 -0.3640  2.2041  0.0511
 9084TIP3    H248668   0.028   1.747   3.608 -2.6493 -0.0087 -1.3569
 9085TIP3   OH248669   2.035   3.615   3.637 -0.1413 -0.3319  0.3440
 9085TIP3    H148670   2.039   3.659   3.722  0.9672 -0.9898  0.6500
 9085TIP3    H248671   2.123   3.625   3.601  0.1149 -2.1900  0.3742
 9086TIP3   OH248672   0.804   6.218   1.084  0.3821 -0.6720 -0.5311
 9086TIP3    H148673   0.787   6.125   1.098 -0.3632 -0.6482 -1.1785
 9086TIP3    H248674   0.723   6.261   1.109  1.1208 -0.0573  0.9282
 9087TIP3   OH248675   5.763   3.209   5.133  0.5231 -0.4382  0.4536
 9087TIP3    H148676   5.715   3.284   5.168 -1.0119 -0.1116 -2.0616
 9087TIP3    H248677   5.696   3.141   5.122  1.1536 -0.9032 -0.6589
 9088TIP3   OH248678   1.896   0.329   0.402  0.2365  0.1088  0.5329
 9088TIP3    H148679   1.931   0.240   0.405  1.0467  0.4288  1.0601
 9088TIP3    H248680   1.864   0.345   0.491  0.8869  0.6406  0.6831
 9089TIP3   OH248681   2.708   2.545  11.749 -0.5780  0.1241 -0.4352
 9089TIP3    H148682   2.619   2.566  11.720 -0.8803 -1.0722 -0.4458
 9089TIP3    H248683   2.726   2.460  11.709 -0.4219 -0.8591  1.5654
 9090TIP3   OH248684   4.157   3.126   1.499  0.7674 -0.7605  0.0427
 9090TIP3    H148685   4.201   3.205   1.531  0.5784 -0.9672  0.8304
 9090TIP3    H248686   4.072   3.157   1.468 -0.0441 -0.8734  2.0012
 9091TIP3   OH248687   5.989   1.569   3.151  0.7378 -0.4056 -0.5464
 9091TIP3    H148688   5.949   1.613   3.226  2.6730  0.0852  0.2493
 9091TIP3    H248689   5.981   1.632   3.079 -1.3843 -0.9916 -0.9117
 9092TIP3   OH248690   2.394   4.887  15.551  0.0964  0.4721  0.0082
 9092TIP3    H148691   2.432   4.934  15.476 -0.9894 -0.0494 -0.9176
 9092TIP3    H248692   2.366   4.957  15.610  1.0589  0.8949 -0.0138
 9093TIP3   OH248693   5.264   6.749   2.930  0.0904 -0.4589  0.2662
 9093TIP3    H148694   5.190   6.809   2.939  0.3169  0.3932 -2.5828
 9093TIP3    H248695   5.338   6.805   2.907  0.1193 -1.7128 -3.3589
 9094TIP3   OH248696   6.717   6.753   1.334 -0.7036 -0.1453 -0.3218
 9094TIP3    H148697   6.625   6.738   1.309 -1.0260  0.6312  0.3376
 9094TIP3    H248698   6.740   6.676   1.386 -1.6442  0.5506  1.2104
 9095TIP3   OH248699   5.061   3.516   0.215  0.1541  0.1945  0.4112
 9095TIP3    H148700   5.000   3.474   0.276 -0.0301  1.0942  0.8629
 9095TIP3    H248701   5.141   3.530   0.265  0.6634 -0.7480 -0.1073
 9096TIP3   OH248702   0.081   4.914  16.889  0.4889 -0.0019 -0.2013
 9096TIP3    H148703   0.142   4.982  16.920  0.7574  2.0981 -4.4931
 9096TIP3    H248704   0.127   4.874  16.815 -1.2711 -2.2329 -0.1844
 9097TIP3   OH248705   5.108   0.921   0.391  0.5276 -0.3483  0.2026
 9097TIP3    H148706   5.053   0.959   0.459  1.7784  1.7429  0.1059
 9097TIP3    H248707   5.048   0.866   0.340 -0.7341 -0.8089  2.0799
 9098TIP3   OH248708   2.857   3.130  13.591  0.0346  0.5012 -0.1554
 9098TIP3    H148709   2.867   3.141  13.686 -0.7454  1.8011 -0.2170
 9098TIP3    H248710   2.775   3.174  13.569  0.4979  0.7364 -1.5259
 9099TIP3   OH248711   2.460   2.974  12.569 -0.0551 -0.1258  0.3436
 9099TIP3    H148712   2.412   3.055  12.580 -0.4205  0.2483 -2.9900
 9099TIP3    H248713   2.499   2.957  12.655  0.0708  3.5697  1.1816
 9100TIP3   OH248714   4.341   4.272   1.101  0.4470 -0.7293  0.8855
 9100TIP3    H148715   4.428   4.241   1.077  1.1169 -0.6482  3.0598
 9100TIP3    H248716   4.354   4.322   1.182 -1.4095  0.5719  0.4571
 9101TIP3   OH248717   6.641   2.120   0.658  0.3764  0.0417 -0.5734
 9101TIP3    H148718   6.612   2.061   0.589  0.0512  0.1737 -0.5502
 9101TIP3    H248719   6.730   2.145   0.633  0.8336 -1.0974 -0.1692
 9102TIP3   OH248720   0.660   6.581   6.248  0.2081 -0.3068  0.1497
 9102TIP3    H148721   0.620   6.640   6.313  1.0267  2.1075 -1.4059
 9102TIP3    H248722   0.718   6.525   6.299  0.1999  0.9572  1.6157
 9103TIP3   OH248723   6.770   1.740   2.078  0.5071 -0.3586 -0.2473
 9103TIP3    H148724   6.750   1.830   2.105 -1.3264 -0.2875 -1.6793
 9103TIP3    H248725   6.701   1.717   2.016  2.4057 -1.8356 -1.9590
 9104TIP3   OH248726   3.330   6.477  17.101 -0.7192 -0.2796  0.6029
 9104TIP3    H148727   3.359   6.492  17.011 -0.1153  0.1944  0.8717
 9104TIP3    H248728   3.237   6.498  17.101 -0.7957 -0.6178  0.0104
 9105TIP3   OH248729   6.417   5.793   4.669  0.8917  0.0338  0.5622
 9105TIP3    H148730   6.460   5.748   4.743  2.4231 -0.0080 -0.3085
 9105TIP3    H248731   6.332   5.819   4.703  0.1349 -2.9817  1.3371
 9106TIP3   OH248732   3.692   3.564   5.081 -0.2698  0.3767  0.1536
 9106TIP3    H148733   3.649   3.493   5.127  0.6786  0.0822  0.6097
 9106TIP3    H248734   3.622   3.626   5.060 -0.7730  0.3794  1.7251
 9107TIP3   OH248735   4.127   1.680  14.798 -0.3849 -0.5229 -0.3458
 9107TIP3    H148736   4.104   1.771  14.779 -1.0748 -0.8780 -1.2872
 9107TIP3    H248737   4.067   1.655  14.868  0.7259  0.1443  0.8803
 9108TIP3   OH248738   6.645   5.381  10.655 -0.2206  0.3384  0.2288
 9108TIP3    H148739   6.594   5.449  10.699 -1.3935 -0.0280 -0.5138
 9108TIP3    H248740   6.711   5.355  10.719 -0.4514  1.4091  0.9178
 9109TIP3   OH248741   2.999   3.817  14.390  0.0198  0.1688 -0.7329
 9109TIP3    H148742   2.946   3.751  14.345  0.9579 -0.7325 -0.5436
 9109TIP3    H248743   3.036   3.771  14.465 -0.9558  1.4591  0.6129
 9110TIP3   OH248744   4.926   3.240  15.655 -0.0378 -0.0091  0.0413
 9110TIP3    H148745   4.884   3.314  15.699  0.0087 -0.8572  1.6119
 9110TIP3    H248746   4.852   3.183  15.630 -0.1390  0.9540 -1.9828
 9111TIP3   OH248747   3.755   0.815  13.704 -0.4437 -0.1576 -0.0514
 9111TIP3    H148748   3.687   0.811  13.771 -0.1369 -0.2954  0.2548
 9111TIP3    H248749   3.768   0.725  13.677  0.3416 -0.2619  0.6326
 9112TIP3   OH248750   1.433   3.623  13.387 -0.6058  0.2905  0.0007
 9112TIP3    H148751   1.355   3.616  13.332 -0.1813 -1.4502 -0.4521
 9112TIP3    H248752   1.442   3.536  13.427  0.2525  0.9138  1.2376
 9113TIP3   OH248753   5.750   0.249  12.991  0.1988 -0.7278  0.2247
 9113TIP3    H148754   5.724   0.320  13.050 -2.9567 -2.1089  0.7254
 9113TIP3    H248755   5.749   0.289  12.904 -0.0643  0.1916  0.6375
 9114TIP3   OH248756   3.150   3.427   0.331  0.2544  0.6404 -0.3928
 9114TIP3    H148757   3.196   3.372   0.267 -0.7346 -0.0417 -0.5302
 9114TIP3    H248758   3.112   3.498   0.278 -1.7866 -0.6965 -0.8432
 9115TIP3   OH248759   4.355   1.427   0.268  0.3312 -0.3166  0.5025
 9115TIP3    H148760   4.272   1.416   0.314 -0.8948 -3.3217 -2.0216
 9115TIP3    H248761   4.389   1.338   0.260  0.7747  0.0305 -3.5510
 9116TIP3   OH248762   0.166   0.122  14.422 -0.1184 -0.3555  0.1877
 9116TIP3    H148763   0.207   0.054  14.475 -0.7434 -1.6161 -0.8847
 9116TIP3    H248764   0.072   0.103  14.427 -0.4150  1.0713  0.7021
 9117TIP3   OH248765   4.544   0.028  17.004  0.6682  0.5180  0.3152
 9117TIP3    H148766   4.632   0.040  16.968 -0.1571 -0.5221 -2.2787
 9117TIP3    H248767   4.546  -0.059  17.044  0.2704 -0.4978 -1.7570
 9118TIP3   OH248768   5.780   5.070  16.965  0.1143 -0.1448  0.0820
 9118TIP3    H148769   5.860   5.097  16.920  0.4960  0.0816  0.8862
 9118TIP3    H248770   5.751   5.147  17.013  0.5635 -0.8048  1.4502
 9119TIP3   OH248771   5.823   4.230  16.068 -0.0114 -0.2034  0.0656
 9119TIP3    H148772   5.910   4.194  16.086  1.0506  1.6340 -1.0866
 9119TIP3    H248773   5.782   4.167  16.009  2.2325  0.8330 -2.8502
 9120TIP3   OH248774   1.064   5.656   5.365 -0.0421  0.3126 -0.0936
 9120TIP3    H148775   1.001   5.709   5.414  0.5116  1.2342 -0.3696
 9120TIP3    H248776   1.089   5.586   5.426 -0.6610  0.4503  0.3269
 9121TIP3   OH248777   5.394   4.580   1.088 -0.1145 -0.1444 -0.6859
 9121TIP3    H148778   5.460   4.599   1.155 -1.5871  2.7388  0.0895
 9121TIP3    H248779   5.377   4.664   1.046 -4.3423 -0.3131  0.1961
 9122TIP3   OH248780   5.591   0.197   1.517  0.8062 -0.0850  0.0473
 9122TIP3    H148781   5.634   0.134   1.459  0.2198  1.1681 -1.8481
 9122TIP3    H248782   5.647   0.274   1.516  0.9103 -0.1112  1.4018
 9123TIP3   OH248783   2.012   4.880  11.676 -0.0962 -0.4086  0.8051
 9123TIP3    H148784   1.936   4.899  11.620 -0.3737 -0.7677  1.0543
 9123TIP3    H248785   2.062   4.816  11.625 -0.1862 -0.4981  0.8276
 9124TIP3   OH248786   2.240   1.930   2.946  0.0506  0.1664 -0.2166
 9124TIP3    H148787   2.327   1.956   2.914 -0.2906  0.2478 -1.1019
 9124TIP3    H248788   2.221   1.848   2.901 -0.3541  0.1760 -0.0647
 9125TIP3   OH248789   4.534   2.863  14.142 -0.0228 -0.4811 -0.4889
 9125TIP3    H148790   4.516   2.811  14.221  0.5815  0.6113  0.4024
 9125TIP3    H248791   4.570   2.801  14.080 -0.4451 -1.3624  0.1209
 9126TIP3   OH248792   6.466   3.390   2.558 -0.2840  0.0076 -0.1847
 9126TIP3    H148793   6.485   3.352   2.643 -1.0248 -0.5314 -0.2421
 9126TIP3    H248794   6.410   3.325   2.515 -0.3683  0.5145 -0.8645
 9127TIP3   OH248795   3.438   6.317   5.189 -0.0253  0.2655  0.0596
 9127TIP3    H148796   3.489   6.360   5.258  1.4284 -2.2515  0.6960
 9127TIP3    H248797   3.444   6.223   5.210 -1.1462 -0.4398 -2.4262
 9128TIP3   OH248798   1.711   5.171  15.323 -0.3431  0.1328 -0.2948
 9128TIP3    H148799   1.699   5.231  15.397  0.6442  0.7958 -0.6468
 9128TIP3    H248800   1.695   5.226  15.246 -0.7863 -0.4050 -0.5847
 9129TIP3   OH248801   6.508   5.596  13.633  0.0805 -0.0927  0.1865
 9129TIP3    H148802   6.455   5.545  13.695 -0.1165 -0.3596 -0.1886
 9129TIP3    H248803   6.507   5.685  13.667  1.7383 -0.6179  1.7201
 9130TIP3   OH248804   1.745   4.472   0.453  0.2280 -0.2390  0.0029
 9130TIP3    H148805   1.751   4.411   0.379 -2.4385 -1.7717  0.9245
 9130TIP3    H248806   1.742   4.415   0.530 -2.4759  0.9800  0.8870
 9131TIP3   OH248807   3.521   4.993  16.583  0.2683  0.0413 -0.0939
 9131TIP3    H148808   3.597   4.945  16.615 -0.2417 -1.0574 -0.4693
 9131TIP3    H248809   3.555   5.079  16.558  1.7762 -1.0489 -2.0455
 9132TIP3   OH248810   2.635   2.832   3.777  1.1762 -0.5028  0.1517
 9132TIP3    H148811   2.641   2.826   3.873 -2.2697  0.1458  0.5473
 9132TIP3    H248812   2.647   2.924   3.757  1.2663 -0.5420  0.0218
 9133TIP3   OH248813   3.283   0.102   6.127 -0.1608 -0.2590  0.4899
 9133TIP3    H148814   3.291   0.049   6.206  0.8019 -2.3855 -0.9606
 9133TIP3    H248815   3.373   0.120   6.100 -0.4511 -0.4249 -0.6565
 9134TIP3   OH248816   0.848   4.421   0.553 -0.5995  0.0065 -0.2606
 9134TIP3    H148817   0.923   4.471   0.584 -0.1704 -1.2015  0.7100
 9134TIP3    H248818   0.820   4.370   0.629 -0.8512 -1.4386 -1.2828
 9135TIP3   OH248819   1.848   2.436  13.715  0.0350 -0.3418  0.3141
 9135TIP3    H148820   1.785   2.508  13.716  0.0205 -0.3367 -0.3351
 9135TIP3    H248821   1.867   2.419  13.807  0.5370  0.9406  0.4809
 9136TIP3   OH248822   1.085   1.935  14.764  0.0710 -0.8705 -0.1478
 9136TIP3    H148823   1.032   2.014  14.767 -0.4088 -1.1821 -0.3587
 9136TIP3    H248824   1.025   1.866  14.736  0.6957 -1.1387 -0.8534
 9137TIP3   OH248825   2.045   3.485   2.433  0.6435 -0.4664  0.1810
 9137TIP3    H148826   1.985   3.528   2.371  0.6575  1.1053  1.1935
 9137TIP3    H248827   2.066   3.401   2.392 -0.9459 -0.3474 -0.9777
 9138TIP3   OH248828   3.930   0.293   3.099 -0.1304 -0.4563  0.6236
 9138TIP3    H148829   3.838   0.283   3.074 -0.0224 -1.5733  0.6198
 9138TIP3    H248830   3.968   0.206   3.088  0.3036 -0.6741  3.1632
 9139TIP3   OH248831   5.313   4.459  12.370  0.0970  0.4315  1.3375
 9139TIP3    H148832   5.319   4.467  12.465 -0.2607 -0.1990  1.4174
 9139TIP3    H248833   5.404   4.467  12.340  0.2945 -0.0812  1.7873
 9140TIP3   OH248834   6.005   5.522  11.341  0.5656 -0.1338  0.7271
 9140TIP3    H148835   6.079   5.496  11.287  0.4606  2.3523 -0.7934
 9140TIP3    H248836   6.035   5.600  11.387 -0.4050 -0.3656  1.7971
 9141TIP3   OH248837   2.191   5.780  11.949  0.0800  0.0153  0.2586
 9141TIP3    H148838   2.137   5.740  11.881  0.3199  0.0579  0.0409
 9141TIP3    H248839   2.273   5.802  11.905  0.7482 -1.1651  0.8596
 9142TIP3   OH248840   0.731   6.287  13.867  0.1323  0.3933 -0.3144
 9142TIP3    H148841   0.691   6.203  13.891 -0.9995  0.3050 -2.2850
 9142TIP3    H248842   0.796   6.303  13.935 -0.8008 -1.2440  1.0430
 9143TIP3   OH248843   6.078   4.429   0.862  0.2309 -0.4804 -0.2434
 9143TIP3    H148844   6.073   4.338   0.834  0.7634 -0.1315 -1.5269
 9143TIP3    H248845   6.143   4.469   0.805  1.5280  0.2564  1.6270
 9144TIP3   OH248846   4.852   5.930   0.979 -0.2509 -0.0099  0.0140
 9144TIP3    H148847   4.877   6.018   1.010  0.7614 -0.3926  0.3371
 9144TIP3    H248848   4.926   5.875   1.004 -0.7421 -0.9009 -0.4734
 9145TIP3   OH248849   2.280   6.077  10.590 -0.4826  0.1425  0.3380
 9145TIP3    H148850   2.282   5.984  10.614 -2.3794  0.4819  2.1119
 9145TIP3    H248851   2.209   6.084  10.526  0.2345  0.2564 -0.4582
 9146TIP3   OH248852   6.553   1.527  16.132 -0.2445 -0.6334  0.1833
 9146TIP3    H148853   6.544   1.443  16.175 -1.5192 -0.5748  0.0821
 9146TIP3    H248854   6.638   1.561  16.160  0.1158 -1.7834  0.5026
 9147TIP3   OH248855   1.189   0.588   6.401 -0.3996  0.1809 -0.0099
 9147TIP3    H148856   1.229   0.504   6.376 -0.2786  0.3479 -0.4004
 9147TIP3    H248857   1.162   0.626   6.317 -1.8632 -0.1569  0.2732
 9148TIP3   OH248858   0.734   4.838  11.921  0.0800 -0.5093  0.7548
 9148TIP3    H148859   0.755   4.931  11.925 -0.1869 -0.4230  0.3122
 9148TIP3    H248860   0.784   4.798  11.992 -0.3876  0.0824  1.4238
 9149TIP3   OH248861   6.039   2.682  15.531  0.1932  0.1275 -0.6899
 9149TIP3    H148862   6.037   2.759  15.474 -0.5670  1.0347  0.5205
 9149TIP3    H248863   6.086   2.710  15.609 -0.0805 -0.6359 -0.2365
 9150TIP3   OH248864   0.302   4.754  17.064 -0.0436 -0.2533 -0.3291
 9150TIP3    H148865   0.353   4.701  17.125  0.1544 -1.8357 -1.7908
 9150TIP3    H248866   0.221   4.704  17.051 -1.1294  1.2312  0.4085
 9151TIP3   OH248867   6.279   3.844  15.076  0.2139 -0.3283  0.4388
 9151TIP3    H148868   6.226   3.848  14.996  0.0643  4.1363  0.5164
 9151TIP3    H248869   6.232   3.783  15.133 -0.9101 -1.9031 -1.9635
 9152TIP3   OH248870   4.446   0.508  13.628  0.1185  0.0726  0.7045
 9152TIP3    H148871   4.470   0.601  13.626 -2.5243  0.8586  1.2704
 9152TIP3    H248872   4.520   0.465  13.671  0.1785  2.4062  3.1860
 9153TIP3   OH248873   0.689   4.514   3.752  0.0030  0.0929  0.0190
 9153TIP3    H148874   0.622   4.453   3.720  0.3336 -0.3087  0.0880
 9153TIP3    H248875   0.652   4.550   3.833 -0.1824 -0.0301 -0.0106
 9154TIP3   OH248876   3.688   2.254  14.665 -0.2870  0.2307 -0.2835
 9154TIP3    H148877   3.729   2.172  14.640  0.7028  0.4283  0.6096
 9154TIP3    H248878   3.661   2.240  14.756 -0.9894  0.5676 -0.4321
 9155TIP3   OH248879   1.011   4.974   5.115  0.4324  0.4529  0.0645
 9155TIP3    H148880   1.079   4.911   5.138  1.0622  1.3928  0.8388
 9155TIP3    H248881   1.020   5.044   5.180 -1.1227  0.7060  0.0511
 9156TIP3   OH248882   5.644   2.462  15.723  0.1826  0.0389 -0.2398
 9156TIP3    H148883   5.733   2.453  15.688  0.4241  1.3062  0.0159
 9156TIP3    H248884   5.615   2.549  15.694 -0.9809 -0.3485 -0.3139
 9157TIP3   OH248885   1.251   0.242   2.186  0.0072  0.0476  0.3672
 9157TIP3    H148886   1.256   0.295   2.265 -0.8994 -1.7095  1.6658
 9157TIP3    H248887   1.159   0.219   2.178  0.1274 -0.0575 -1.0637
 9158TIP3   OH248888   2.033   5.877   4.702  0.2193 -0.1397  0.0791
 9158TIP3    H148889   2.004   5.959   4.741  1.2176 -0.3402  1.3132
 9158TIP3    H248890   2.032   5.814   4.775  1.1684 -0.7759 -0.4301
 9159TIP3   OH248891   4.571   1.459   0.817 -0.4304  0.1461 -0.3787
 9159TIP3    H148892   4.492   1.406   0.815  0.1112 -0.6840 -0.2087
 9159TIP3    H248893   4.584   1.486   0.726  0.6143 -2.0491 -0.9451
 9160TIP3   OH248894   6.540   4.102  14.789 -0.2957 -0.2014 -0.3095
 9160TIP3    H148895   6.633   4.115  14.771 -0.5000  0.9419 -0.5691
 9160TIP3    H248896   6.532   4.007  14.805  0.7215 -0.4813 -1.3459
 9161TIP3   OH248897   6.604   3.710  11.554  0.0370  0.9119 -0.2487
 9161TIP3    H148898   6.587   3.772  11.484 -3.1250 -0.2031 -0.6422
 9161TIP3    H248899   6.533   3.726  11.617 -0.7161 -1.9668 -0.2176
 9162TIP3   OH248900   3.020   5.526  13.665  0.4467 -0.0153 -0.2592
 9162TIP3    H148901   3.077   5.593  13.627  0.1994  1.5169  1.8919
 9162TIP3    H248902   3.045   5.445  13.621  1.2763  1.3359 -2.4206
 9163TIP3   OH248903   6.377   5.995   1.628  0.4069 -0.0385 -0.1954
 9163TIP3    H148904   6.334   6.068   1.583 -0.2449 -0.2840  0.0214
 9163TIP3    H248905   6.312   5.963   1.690  0.5106 -1.0968 -0.6068
 9164TIP3   OH248906   5.057   5.789   4.558  0.6400  0.0868  0.4071
 9164TIP3    H148907   4.964   5.769   4.560  0.8946 -1.4565 -0.6105
 9164TIP3    H248908   5.096   5.731   4.624  0.7851  1.6294  1.7532
 9165TIP3   OH248909   5.331   0.336   3.744 -0.0403 -0.0385 -0.3400
 9165TIP3    H148910   5.251   0.386   3.764  1.1653  1.7886  0.1919
 9165TIP3    H248911   5.388   0.353   3.819  1.4690  0.0745 -1.4864
 9166TIP3   OH248912   1.672   1.211  15.395 -0.9485 -0.2896  0.2573
 9166TIP3    H148913   1.639   1.202  15.485 -2.8082 -2.1232 -0.5364
 9166TIP3    H248914   1.641   1.297  15.367  0.0290  0.4979  1.4694
 9167TIP3   OH248915   5.211   4.964  13.192 -0.2929  0.5340  0.3361
 9167TIP3    H148916   5.117   4.947  13.188  0.0560 -2.5518  2.1907
 9167TIP3    H248917   5.229   4.984  13.284  0.8648  1.2644 -0.0222
 9168TIP3   OH248918   5.595   6.588  14.421 -0.6870 -0.3312  0.3878
 9168TIP3    H148919   5.664   6.536  14.379 -2.2557 -2.2792  0.0569
 9168TIP3    H248920   5.551   6.632  14.348 -0.6280 -0.1430  0.4647
 9169TIP3   OH248921   3.712   4.684  13.438  0.0583  0.3057 -0.4470
 9169TIP3    H148922   3.661   4.720  13.366  0.4690  0.1273 -0.8323
 9169TIP3    H248923   3.707   4.750  13.507  0.1633  0.7518 -0.8661
 9170TIP3   OH248924   0.053   6.272  16.132 -0.5272  0.1019  0.1293
 9170TIP3    H148925   0.119   6.235  16.191 -0.2348  0.4943  0.0493
 9170TIP3    H248926   0.009   6.195  16.095 -0.5842 -0.1503  0.7080
 9171TIP3   OH248927   5.798   3.719  12.477  0.0460 -0.4536 -0.0318
 9171TIP3    H148928   5.744   3.788  12.438  2.2420  2.1962  1.2782
 9171TIP3    H248929   5.869   3.706  12.414  1.7561  1.3983  1.4144
 9172TIP3   OH248930   2.302   4.826  11.766  0.1980  0.8715 -0.0165
 9172TIP3    H148931   2.258   4.787  11.690 -0.0458  0.1600  0.4753
 9172TIP3    H248932   2.374   4.766  11.786 -0.4242  0.4252  0.9985
 9173TIP3   OH248933   1.865   6.545   5.465  0.3742 -0.1318  0.0202
 9173TIP3    H148934   1.782   6.511   5.498  0.1004  0.2312 -0.2789
 9173TIP3    H248935   1.841   6.590   5.383  1.1765 -1.8935 -1.2429
 9174TIP3   OH248936   0.395   6.265   6.395  0.5324 -0.1704 -0.2529
 9174TIP3    H148937   0.302   6.267   6.372  1.0424 -0.4818 -2.5418
 9174TIP3    H248938   0.414   6.354   6.427 -0.4808 -0.0416  0.0178
 9175TIP3   OH248939   4.991   5.620  15.721 -0.5051  0.0163  0.4815
 9175TIP3    H148940   4.932   5.544  15.720  1.8886 -1.9561 -0.2477
 9175TIP3    H248941   4.982   5.658  15.633 -1.4679  0.4347  0.7414
 9176TIP3   OH248942   5.813   6.707  10.759 -0.3125 -0.7736  0.0874
 9176TIP3    H148943   5.827   6.718  10.665 -1.3897  0.1333  0.0266
 9176TIP3    H248944   5.901   6.710  10.796 -0.0751  3.3271 -0.4381
 9177TIP3   OH248945   6.115   1.828  17.147  0.1273  0.0474  0.6919
 9177TIP3    H148946   6.149   1.912  17.115  0.2300 -0.4074 -0.4463
 9177TIP3    H248947   6.057   1.798  17.077 -0.2742 -0.6070  1.3033
 9178TIP3   OH248948   0.081   4.557  16.454  0.6048  0.2634 -0.0034
 9178TIP3    H148949   0.161   4.542  16.504 -0.9293  0.9352  2.8263
 9178TIP3    H248950   0.095   4.643  16.413  0.6753  1.2094  1.9280
 9179TIP3   OH248951   2.350   0.057   1.500 -0.0528  0.0418  0.4617
 9179TIP3    H148952   2.290   0.097   1.438  1.5612  1.2578 -0.3678
 9179TIP3    H248953   2.313  -0.031   1.515 -1.8032  0.6008 -0.2745
 9180TIP3   OH248954   1.880   2.384  15.732  0.9016  0.1767 -0.2669
 9180TIP3    H148955   1.805   2.367  15.787  1.2228 -0.2153  0.0530
 9180TIP3    H248956   1.956   2.375  15.790  1.3399 -1.6917 -1.0671
 9181TIP3   OH248957   6.777   0.144   2.105  0.5839 -0.3400  0.1166
 9181TIP3    H148958   6.765   0.056   2.070  0.2352  0.5159 -2.0755
 9181TIP3    H248959   6.710   0.152   2.174  0.9925 -1.9394  0.7321
 9182TIP3   OH248960   2.879   3.362   1.677  0.1736 -0.0944  0.2472
 9182TIP3    H148961   2.865   3.376   1.771  1.1334 -3.4199  1.0066
 9182TIP3    H248962   2.974   3.358   1.667  0.0721 -2.4079 -0.3320
 9183TIP3   OH248963   2.953   4.041  12.319  0.2626  0.0122  0.5618
 9183TIP3    H148964   2.896   4.014  12.247 -0.2711  1.0891  0.5612
 9183TIP3    H248965   2.998   3.961  12.345 -0.2228 -0.5776 -0.3597
 9184TIP3   OH248966   5.726   1.871   3.158  0.2899  0.4526  0.0386
 9184TIP3    H148967   5.673   1.803   3.116 -0.8989  1.0881  0.4647
 9184TIP3    H248968   5.663   1.937   3.187  1.1811  0.5697  1.8417
 9185TIP3   OH248969   1.755   4.041  15.893 -0.5207  0.5729  1.0837
 9185TIP3    H148970   1.731   4.126  15.930 -0.1014  0.5624  1.3834
 9185TIP3    H248971   1.708   4.037  15.810 -0.5255  1.1092  1.0580
 9186TIP3   OH248972   4.762   0.291   0.692  0.5898 -0.3672 -1.0858
 9186TIP3    H148973   4.667   0.302   0.700  0.8018  0.6292  0.3202
 9186TIP3    H248974   4.792   0.369   0.645  0.9103  0.2360  0.0855
 9187TIP3   OH248975   0.675   1.330   1.971  0.2602 -0.4667  0.1455
 9187TIP3    H148976   0.642   1.249   1.932  2.7683 -2.2975  1.5485
 9187TIP3    H248977   0.762   1.341   1.933  1.0525  0.0600  2.0079
 9188TIP3   OH248978   1.654   6.576  12.285 -0.0624 -0.0666 -0.4297
 9188TIP3    H148979   1.563   6.547  12.292  0.4356 -1.6292 -0.0124
 9188TIP3    H248980   1.688   6.572  12.374  0.1028  1.6879 -0.3773
 9189TIP3   OH248981   0.105   6.047   0.820  0.6030  0.1043  0.4549
 9189TIP3    H148982   0.138   6.118   0.764  0.0920  0.1682  0.2319
 9189TIP3    H248983   0.155   6.055   0.901  0.5421  0.7270  0.4368
 9190TIP3   OH248984   4.552   4.647   2.705  0.1433  0.0629 -0.0463
 9190TIP3    H148985   4.463   4.679   2.689  0.9851  3.0609  0.7293
 9190TIP3    H248986   4.604   4.683   2.633  0.8776 -1.1276 -0.1448
 9191TIP3   OH248987   1.548   5.732  12.460 -0.3132 -0.1830 -0.2992
 9191TIP3    H148988   1.518   5.790  12.390 -0.6400 -1.2797 -1.0916
 9191TIP3    H248989   1.641   5.716  12.441 -0.2667 -0.0586 -0.1788
 9192TIP3   OH248990   5.585   3.064   3.403 -0.0935  0.0834 -0.4378
 9192TIP3    H148991   5.649   3.050   3.472 -0.2049 -2.6601 -0.7729
 9192TIP3    H248992   5.502   3.076   3.449 -0.7349 -4.6041  0.1691
 9193TIP3   OH248993   4.463   1.296  12.005  0.4172  0.0533  0.0323
 9193TIP3    H148994   4.370   1.297  11.983 -0.0028 -0.5000  1.6235
 9193TIP3    H248995   4.507   1.273  11.924 -0.7560  1.1502 -0.9521
 9194TIP3   OH248996   2.576   2.954   1.576 -0.0744  0.2154  0.1811
 9194TIP3    H148997   2.671   2.943   1.576 -0.1654 -0.6373  0.4268
 9194TIP3    H248998   2.548   2.928   1.663 -0.5321  0.5320  0.1339
 9195TIP3   OH248999   4.933   5.989   6.245 -0.3606  0.1289  0.1971
 9195TIP3    H149000   4.928   5.897   6.218 -0.1045  0.1186  0.1838
 9195TIP3    H249001   4.933   5.986   6.340  0.7175  0.0485  0.2099
 9196TIP3   OH249002   5.096   0.346   3.093  0.1064 -0.2609  0.1757
 9196TIP3    H149003   5.115   0.268   3.146  0.1695 -0.2789  0.1272
 9196TIP3    H249004   5.182   0.377   3.066  0.0554 -0.4838 -0.2485
 9197TIP3   OH249005   2.188   5.000  11.167 -0.2875  0.1602 -0.0877
 9197TIP3    H149006   2.122   5.014  11.100  0.1087 -1.5555 -0.8716
 9197TIP3    H249007   2.248   5.075  11.157 -0.5371  0.2239 -1.2675
 9198TIP3   OH249008   5.857   3.837   4.718  0.1248  0.0223 -0.0235
 9198TIP3    H149009   5.844   3.757   4.768  2.4047 -0.3272  0.1059
 9198TIP3    H249010   5.819   3.906   4.774 -1.0155 -0.8204  0.2817
 9199TIP3   OH249011   2.257   4.763   4.330 -0.2931  0.1161 -0.1218
 9199TIP3    H149012   2.331   4.798   4.280 -0.3196  2.3435  1.2760
 9199TIP3    H249013   2.297   4.713   4.400 -0.1776 -0.2963 -0.4778
 9200TIP3   OH249014   5.908   5.446  16.173 -0.1690  0.3809 -0.8742
 9200TIP3    H149015   5.933   5.488  16.091 -2.2588  1.6747 -0.9012
 9200TIP3    H249016   5.851   5.509  16.217 -0.4105 -0.9397  0.8279
 9201TIP3   OH249017   4.176   2.584  12.677  0.0433 -0.2548  0.2392
 9201TIP3    H149018   4.153   2.522  12.746  0.5333 -0.9469 -0.2002
 9201TIP3    H249019   4.177   2.669  12.720 -2.4155 -0.2765  0.4839
 9202TIP3   OH249020   4.991   2.010  11.356  0.7016 -0.0662  0.4271
 9202TIP3    H149021   5.020   1.933  11.406 -1.1918 -1.2051 -0.1239
 9202TIP3    H249022   5.017   2.085  11.410  2.8172 -1.0459  0.8568
 9203TIP3   OH249023   5.738   4.789  12.201  0.9807 -0.2682  0.0062
 9203TIP3    H149024   5.790   4.853  12.251 -1.4895  1.1946  0.8906
 9203TIP3    H249025   5.761   4.806  12.110  2.5497 -0.1862  0.3785
 9204TIP3   OH249026   3.453   1.382   0.158 -0.0953  0.1278 -0.1257
 9204TIP3    H149027   3.531   1.329   0.175 -0.1452 -0.3277 -1.2343
 9204TIP3    H249028   3.482   1.446   0.093 -0.4873  0.3580 -0.0754
 9205TIP3   OH249029   1.272   5.228   2.376 -0.4524 -0.3760 -0.1557
 9205TIP3    H149030   1.289   5.264   2.463 -1.2456 -1.3094  0.4116
 9205TIP3    H249031   1.192   5.177   2.387 -0.4414 -0.6903 -1.3913
 9206TIP3   OH249032   1.567   5.136   5.166 -0.4099 -0.0857 -0.2977
 9206TIP3    H149033   1.515   5.186   5.104 -0.1250 -2.1720 -2.3484
 9206TIP3    H249034   1.523   5.051   5.173  1.2003 -0.9521  0.0023
 9207TIP3   OH249035   3.913   6.102   0.664 -0.3783  0.1411  0.0258
 9207TIP3    H149036   3.868   6.030   0.620  1.7458 -2.4245  1.7764
 9207TIP3    H249037   4.002   6.101   0.630  0.2947  0.4875  1.6400
 9208TIP3   OH249038   2.889   4.094   6.122 -0.0026 -0.1953 -0.6392
 9208TIP3    H149039   2.939   4.176   6.125 -2.8365  1.7067 -1.7449
 9208TIP3    H249040   2.860   4.080   6.212  1.4529 -0.6927 -0.2184
 9209TIP3   OH249041   0.990   1.570  12.382 -0.1132 -0.1483 -0.4236
 9209TIP3    H149042   0.925   1.640  12.369 -0.5110 -0.1812  1.1500
 9209TIP3    H249043   1.043   1.572  12.303  0.4231  2.5190 -0.1031
 9210TIP3   OH249044   0.350   5.134   2.214  0.2691 -0.2261 -0.6001
 9210TIP3    H149045   0.309   5.220   2.218  0.0783 -0.3481  0.6758
 9210TIP3    H249046   0.385   5.121   2.302 -0.6451 -1.8874 -0.4445
 9211TIP3   OH249047   1.531   3.683   5.481 -0.3989  0.1520 -0.1479
 9211TIP3    H149048   1.616   3.649   5.509 -0.4311  1.4306  1.6651
 9211TIP3    H249049   1.470   3.613   5.502  0.0587 -0.4099 -0.6160
 9212TIP3   OH249050   3.011   1.208   3.178 -0.2984  0.1416  0.1683
 9212TIP3    H149051   3.029   1.134   3.120 -2.3351 -0.9403  0.8025
 9212TIP3    H249052   3.061   1.189   3.258 -0.4799 -0.3368  0.1693
 9213TIP3   OH249053   1.292   0.353   4.163 -0.0250 -0.0040  0.1129
 9213TIP3    H149054   1.284   0.258   4.167 -1.3089  0.1061  0.7144
 9213TIP3    H249055   1.379   0.372   4.198  1.7351 -1.1301 -3.1905
 9214TIP3   OH249056   1.689   1.078   4.787  0.0576  0.1425 -0.3393
 9214TIP3    H149057   1.659   0.992   4.816  0.2843  0.4383  0.8006
 9214TIP3    H249058   1.640   1.094   4.706 -2.5741  0.4261  1.1897
 9215TIP3   OH249059   5.446   2.869   1.703 -0.4680  0.1530  0.3977
 9215TIP3    H149060   5.507   2.820   1.758 -1.3824 -1.0744  0.3657
 9215TIP3    H249061   5.474   2.961   1.712  0.7478 -0.2638  1.1533
 9216TIP3   OH249062   2.596   4.088  14.600  0.0691  0.2900 -0.5720
 9216TIP3    H149063   2.588   4.178  14.569  1.6314  0.6245 -0.1096
 9216TIP3    H249064   2.681   4.058  14.566  1.1273  0.1490  2.0093
 9217TIP3   OH249065   5.623   2.430   0.755  0.3401  0.1373  0.1592
 9217TIP3    H149066   5.623   2.520   0.720 -1.6819  0.2257  0.3122
 9217TIP3    H249067   5.679   2.435   0.833 -0.4916  1.5085  0.7056
 9218TIP3   OH249068   5.938   5.841  14.151  0.3816  1.2614  0.0664
 9218TIP3    H149069   6.029   5.827  14.179  0.8064  2.4044 -0.6450
 9218TIP3    H249070   5.890   5.766  14.187  1.7027  0.3282 -0.0148
 9219TIP3   OH249071   3.804   2.240  11.915  0.1270  0.1735  0.1104
 9219TIP3    H149072   3.722   2.214  11.874 -0.7394  1.3220  1.0412
 9219TIP3    H249073   3.837   2.311  11.860  0.6588 -0.4710 -0.4195
 9220TIP3   OH249074   4.418   1.407   2.557 -0.5771 -0.3104 -0.4708
 9220TIP3    H149075   4.362   1.397   2.634  0.0911  0.1024  0.0788
 9220TIP3    H249076   4.363   1.378   2.484 -1.2687 -0.5735  0.1379
 9221TIP3   OH249077   3.690   3.838   0.652  0.1253 -0.6020 -0.2900
 9221TIP3    H149078   3.657   3.905   0.592  2.2415 -0.6669 -1.6326
 9221TIP3    H249079   3.719   3.767   0.596  0.8529 -1.2887  0.9121
 9222TIP3   OH249080   1.869   6.665  13.505 -0.1772  0.3217 -0.2585
 9222TIP3    H149081   1.908   6.591  13.459  0.9639  1.1889 -0.7230
 9222TIP3    H249082   1.912   6.667  13.590  0.2330  0.7915 -0.4692
 9223TIP3   OH249083   6.200   0.705  12.386  0.0162  0.1290  0.3483
 9223TIP3    H149084   6.143   0.771  12.346  0.1072  0.8105  1.3185
 9223TIP3    H249085   6.261   0.681  12.317 -0.8541  0.0706 -0.4264
 9224TIP3   OH249086   4.903   4.999   1.817  0.1387  0.8274 -0.7660
 9224TIP3    H149087   4.860   5.065   1.763  0.7072  1.6228 -0.2838
 9224TIP3    H249088   4.906   4.921   1.763 -0.7422  1.1390 -1.2730
 9225TIP3   OH249089   1.401   1.162   5.965 -0.3882  0.5458 -0.2854
 9225TIP3    H149090   1.457   1.218   6.018  2.0917 -0.8565 -1.2411
 9225TIP3    H249091   1.361   1.102   6.028  0.4068  0.5951  0.2759
 9226TIP3   OH249092   2.703   3.096   3.503  0.5731  0.5067  0.0804
 9226TIP3    H149093   2.723   3.164   3.439  4.3411 -0.7468 -0.3420
 9226TIP3    H249094   2.764   3.113   3.576 -1.0135 -0.2833  1.6818
 9227TIP3   OH249095   6.775   3.056  17.101 -0.2532  0.1199  1.1858
 9227TIP3    H149096   6.868   3.031  17.101  0.0731  1.2669  0.7834
 9227TIP3    H249097   6.759   3.086  17.191 -0.0790  0.4861  1.0936
 9228TIP3   OH249098   0.538   6.612  12.688  0.1459 -0.1439  0.2797
 9228TIP3    H149099   0.498   6.548  12.629  0.6514  0.4323 -0.7012
 9228TIP3    H249100   0.564   6.560  12.764  1.1880 -1.2498 -0.7991
 9229TIP3   OH249101   2.742   5.174   5.852 -0.5822  0.0878  0.1195
 9229TIP3    H149102   2.653   5.143   5.832 -0.6045 -0.8271  1.4668
 9229TIP3    H249103   2.741   5.190   5.946  1.3230 -2.2548  0.6364
 9230TIP3   OH249104   1.557   2.135  11.259  0.2124  0.0572 -0.2071
 9230TIP3    H149105   1.517   2.129  11.172 -0.0626  0.2811 -0.0990
 9230TIP3    H249106   1.581   2.044  11.280  0.7589  0.0762 -0.7328
 9231TIP3   OH249107   0.620   1.437  10.951 -0.0643 -0.3419  0.4484
 9231TIP3    H149108   0.675   1.411  10.878  0.3100 -0.7155  0.8547
 9231TIP3    H249109   0.660   1.517  10.984 -0.5940  0.1688 -0.1372
 9232TIP3   OH249110   1.082   0.619   3.428  0.0609 -0.7148 -0.4793
 9232TIP3    H149111   1.116   0.655   3.346 -1.6985  1.3263 -0.4011
 9232TIP3    H249112   1.156   0.572   3.466  1.6171  0.3010 -2.0990
 9233TIP3   OH249113   5.570   3.680   0.747 -0.1618  0.4361 -0.2971
 9233TIP3    H149114   5.487   3.723   0.766 -1.0718 -1.4314  0.2344
 9233TIP3    H249115   5.635   3.728   0.797 -1.4996 -0.2324  2.2515
 9234TIP3   OH249116   4.817   6.398  14.606 -0.4805 -0.7908 -0.0754
 9234TIP3    H149117   4.781   6.422  14.521  0.4997  1.1274 -0.0076
 9234TIP3    H249118   4.750   6.343  14.646 -0.8294 -2.0274 -2.1874
 9235TIP3   OH249119   2.900   6.599  12.106 -0.4977 -0.5283 -0.3329
 9235TIP3    H149120   2.824   6.550  12.140 -0.4545 -1.2319 -1.2070
 9235TIP3    H249121   2.869   6.635  12.023  0.0853 -0.7170 -0.6345
 9236TIP3   OH249122   0.792   0.732   3.418  0.3979  0.5700 -0.2058
 9236TIP3    H149123   0.856   0.666   3.392  2.8057  2.0757  1.5075
 9236TIP3    H249124   0.789   0.793   3.344  2.0500  1.2017  0.1966
 9237TIP3   OH249125   0.736   2.174   2.590  0.4476  0.6325  0.2897
 9237TIP3    H149126   0.805   2.121   2.629  0.2877  0.3579  0.2078
 9237TIP3    H249127   0.681   2.111   2.543 -0.2663  0.7413  0.9538
 9238TIP3   OH249128   5.179   1.711   6.549  0.2008  0.3357 -0.6153
 9238TIP3    H149129   5.221   1.634   6.587  0.3701  1.2226  1.1495
 9238TIP3    H249130   5.129   1.749   6.622  0.9965  2.4682 -1.0976
 9239TIP3   OH249131   3.590   2.507  13.488 -0.0391  0.2189  0.2924
 9239TIP3    H149132   3.629   2.507  13.401 -0.1444  0.5039  0.2424
 9239TIP3    H249133   3.546   2.422  13.495  0.3405  0.0161  0.2398
 9240TIP3   OH249134   2.028   6.449  14.460  0.0636 -0.7969 -0.5842
 9240TIP3    H149135   2.108   6.502  14.463 -1.0557  0.9734 -0.8948
 9240TIP3    H249136   2.050   6.376  14.402  2.2494 -1.8212  1.3291
 9241TIP3   OH249137   4.570   0.507  11.974 -0.4078  0.0180 -0.0949
 9241TIP3    H149138   4.536   0.592  12.001  1.4796  0.9885 -0.5837
 9241TIP3    H249139   4.583   0.459  12.056  0.9008  1.1962  0.4289
 9242TIP3   OH249140   4.685   4.241  16.834 -0.6378 -0.1499  0.1295
 9242TIP3    H149141   4.728   4.220  16.751 -0.2876  1.2148 -0.0636
 9242TIP3    H249142   4.696   4.162  16.888  0.4775 -0.5079 -0.5874
 9243TIP3   OH249143   3.334   0.864  13.980  0.5050  0.1630  0.3413
 9243TIP3    H149144   3.356   0.950  14.016 -2.4803  1.7670 -1.2860
 9243TIP3    H249145   3.303   0.882  13.891 -0.4916 -2.5525  0.0370
 9244TIP3   OH249146   0.189   3.452  16.665 -0.7162 -0.4561 -0.5284
 9244TIP3    H149147   0.134   3.528  16.682  0.5413  0.5995 -0.9898
 9244TIP3    H249148   0.277   3.488  16.653 -0.1775 -1.9267 -1.2951
 9245TIP3   OH249149   0.863   2.479  13.340 -0.4170  0.1859 -0.2447
 9245TIP3    H149150   0.790   2.528  13.377 -0.3328  0.6863 -0.7225
 9245TIP3    H249151   0.824   2.398  13.308 -0.9053  0.7378 -1.1156
 9246TIP3   OH249152   6.066   0.635   3.194 -0.7021 -0.1620  0.2011
 9246TIP3    H149153   5.985   0.682   3.213 -0.8142  0.7195 -2.2058
 9246TIP3    H249154   6.043   0.575   3.123  0.9749  0.9419 -1.3487
 9247TIP3   OH249155   4.895   4.155   1.519  0.0165  0.1371  0.9341
 9247TIP3    H149156   4.815   4.162   1.468  0.2694  1.2990  0.6469
 9247TIP3    H249157   4.868   4.172   1.609 -0.0836  0.4555  0.8466
 9248TIP3   OH249158   2.091   1.772  16.182  0.4852 -0.2552  0.1825
 9248TIP3    H149159   2.177   1.771  16.224  1.9288 -1.3584 -2.5399
 9248TIP3    H249160   2.087   1.688  16.135 -2.2533 -0.3789  0.4750
 9249TIP3   OH249161   6.328   3.956   4.558 -0.1462  0.0180 -0.2984
 9249TIP3    H149162   6.280   3.967   4.476 -0.6622  0.6882  0.0842
 9249TIP3    H249163   6.382   4.034   4.566  1.3363 -0.9090 -0.9170
 9250TIP3   OH249164   6.402   1.538   3.326 -0.5833 -0.7122  0.1376
 9250TIP3    H149165   6.309   1.531   3.303 -0.2438  0.1931 -1.6865
 9250TIP3    H249166   6.412   1.480   3.401 -2.5383 -1.1427  0.1272
 9251TIP3   OH249167   6.212   5.245   1.463 -0.0561  0.6018 -0.1069
 9251TIP3    H149168   6.121   5.256   1.436  0.2363 -1.0694 -1.9485
 9251TIP3    H249169   6.222   5.307   1.536 -2.0636  2.3109 -1.1585
 9252TIP3   OH249170   5.468   4.319  16.617 -0.2194 -0.4078 -0.2688
 9252TIP3    H149171   5.557   4.291  16.595  0.3680  0.3828  0.9805
 9252TIP3    H249172   5.470   4.332  16.712 -1.7841 -0.7577 -0.1631
 9253TIP3   OH249173   5.993   4.512  10.173  0.5977  0.3364 -0.5613
 9253TIP3    H149174   6.050   4.440  10.148  0.2327 -0.1896  0.0741
 9253TIP3    H249175   5.905   4.482  10.152  0.5750  1.3662 -2.0579
 9254TIP3   OH249176   3.775   1.445  12.077  0.0449  0.1115  0.2715
 9254TIP3    H149177   3.756   1.353  12.097 -0.6731  0.1935  0.0094
 9254TIP3    H249178   3.864   1.444  12.041  0.7134 -0.2425  1.8727
 9255TIP3   OH249179   6.192   4.883  16.952 -0.1185  0.0416  0.4099
 9255TIP3    H149180   6.229   4.843  16.873  2.9610 -0.3350  1.8885
 9255TIP3    H249181   6.245   4.961  16.967 -1.9646  1.2337  1.0422
 9256TIP3   OH249182   1.741   4.454  14.604 -0.1517  0.6691  0.4559
 9256TIP3    H149183   1.738   4.422  14.694  0.6455 -0.4789  0.0850
 9256TIP3    H249184   1.710   4.545  14.611 -0.4410  0.4941  1.8272
 9257TIP3   OH249185   3.605   6.571   3.098  0.1027  0.3132 -0.4241
 9257TIP3    H149186   3.682   6.567   3.040  0.4692  0.0563  0.0646
 9257TIP3    H249187   3.561   6.487   3.085  0.1619  0.2730 -0.3703
 9258TIP3   OH249188   3.582   3.952   4.475 -0.2400  0.0606  0.5748
 9258TIP3    H149189   3.510   3.930   4.415 -0.4626  2.0850  0.0238
 9258TIP3    H249190   3.617   4.034   4.440  1.1303  0.0857  1.9294
 9259TIP3   OH249191   2.992   2.542   0.976  0.4790 -0.0073  0.1496
 9259TIP3    H149192   3.038   2.475   1.026 -1.4183 -0.2566  1.6648
 9259TIP3    H249193   3.053   2.616   0.974  2.1002 -1.2899 -0.4700
 9260TIP3   OH249194   2.436   2.413   6.259  0.2203 -0.3868  0.3049
 9260TIP3    H149195   2.358   2.380   6.305 -1.6759  0.7493 -1.8729
 9260TIP3    H249196   2.405   2.489   6.210  2.1314 -1.2164 -2.4524
 9261TIP3   OH249197   4.429   1.387  13.079 -0.1173 -0.8469  0.1184
 9261TIP3    H149198   4.432   1.393  13.174 -0.2021  1.1745  0.0338
 9261TIP3    H249199   4.496   1.322  13.056 -0.4626 -1.7483  1.5539
 9262TIP3   OH249200   3.526   2.325  15.424  0.8238  0.1420 -0.4705
 9262TIP3    H149201   3.451   2.373  15.459 -0.3050 -0.0858 -2.4112
 9262TIP3    H249202   3.559   2.274  15.498  0.2583  1.6882  0.8937
 9263TIP3   OH249203   4.940   2.623  11.827 -0.1636  0.1871  0.0587
 9263TIP3    H149204   4.920   2.540  11.870 -2.9327  1.0837  0.7622
 9263TIP3    H249205   4.890   2.621  11.745 -2.0363  1.8769  1.0466
 9264TIP3   OH249206   3.112   5.812  15.007 -0.5587  0.3049  0.2712
 9264TIP3    H149207   3.198   5.838  14.974  0.0052 -1.4567  0.2495
 9264TIP3    H249208   3.055   5.813  14.931 -0.1190 -0.2913 -0.0650
 9265TIP3   OH249209   3.594   2.423  16.160 -0.5072  0.3848 -0.2006
 9265TIP3    H149210   3.501   2.428  16.181 -0.8154  0.5324 -1.5456
 9265TIP3    H249211   3.630   2.364  16.226 -1.5778  0.2011  0.2402
 9266TIP3   OH249212   4.655   5.182   5.684  0.1643  0.1568 -0.6862
 9266TIP3    H149213   4.739   5.203   5.725 -0.2314  1.6341 -0.5765
 9266TIP3    H249214   4.652   5.236   5.605 -0.9876  0.7119 -0.2963
 9267TIP3   OH249215   1.214   1.994   4.540  0.7627  0.4114  0.3129
 9267TIP3    H149216   1.249   1.920   4.490  2.0244  0.7144  0.7351
 9267TIP3    H249217   1.129   2.011   4.499 -0.1723 -2.0914  1.0220
 9268TIP3   OH249218   2.435   3.828   4.002 -0.1504 -0.0122  0.0881
 9268TIP3    H149219   2.396   3.908   4.038 -0.5326  0.1455 -0.6473
 9268TIP3    H249220   2.362   3.784   3.959 -0.2198 -1.4049  1.5527
 9269TIP3   OH249221   2.272   6.149   0.798 -0.4281  0.1709  0.2824
 9269TIP3    H149222   2.216   6.141   0.721  0.3107  0.5522 -0.3168
 9269TIP3    H249223   2.218   6.192   0.864 -1.3165 -0.8641  0.2471
 9270TIP3   OH249224   3.048   4.800   3.561  0.7260  0.4486 -0.1565
 9270TIP3    H149225   2.963   4.828   3.596  1.0545  1.1453  0.0879
 9270TIP3    H249226   3.031   4.788   3.467 -0.4345 -2.4829  0.3087
 9271TIP3   OH249227   2.071   2.313   5.514  0.1317 -0.2468  0.3632
 9271TIP3    H149228   1.990   2.337   5.468  0.1215  1.8541  1.3737
 9271TIP3    H249229   2.134   2.299   5.444 -0.7228 -0.4778 -0.3897
 9272TIP3   OH249230   3.261   1.013  14.854 -0.2733  0.4837 -0.7682
 9272TIP3    H149231   3.232   1.102  14.876 -1.4669  0.5836 -2.5338
 9272TIP3    H249232   3.267   1.013  14.759  0.0628 -1.2290 -0.7675
 9273TIP3   OH249233   2.881   1.697  13.686  0.0756 -0.0165  0.2992
 9273TIP3    H149234   2.824   1.711  13.610 -0.4907  0.9365  0.8845
 9273TIP3    H249235   2.940   1.627  13.659 -1.4222 -1.1028 -0.3026
 9274TIP3   OH249236   0.479   2.271  12.003 -0.3852 -0.2303  0.4185
 9274TIP3    H149237   0.447   2.359  11.984 -0.0866 -0.1514  0.2687
 9274TIP3    H249238   0.524   2.243  11.923  2.5973  0.8931  1.5571
 9275TIP3   OH249239   3.897   0.152   1.498 -0.0069  0.2860  0.1944
 9275TIP3    H149240   3.975   0.202   1.472 -0.6765  1.0836 -0.3124
 9275TIP3    H249241   3.884   0.176   1.590  1.2388 -1.0595  0.7632
 9276TIP3   OH249242   0.839   2.604   1.276 -0.0749  0.3619  0.2354
 9276TIP3    H149243   0.884   2.688   1.279  1.0721 -0.2064 -0.5262
 9276TIP3    H249244   0.763   2.616   1.333  0.5972  1.5935  0.9184
 9277TIP3   OH249245   4.013   3.149   2.187  0.3500 -0.0550 -0.2408
 9277TIP3    H149246   4.046   3.207   2.119 -1.4881  0.1635 -1.0121
 9277TIP3    H249247   3.936   3.194   2.222  0.3558 -0.8793  0.9035
 9278TIP3   OH249248   6.509   1.773  13.721 -0.1326 -1.2015  0.8392
 9278TIP3    H149249   6.450   1.796  13.793 -0.8816  1.3456 -0.4454
 9278TIP3    H249250   6.596   1.798  13.752 -0.7705  2.9202 -0.0281
 9279TIP3   OH249251   0.500   3.129  14.481 -0.0870 -0.0964  0.4400
 9279TIP3    H149252   0.410   3.100  14.469  0.1405 -0.5527 -0.2220
 9279TIP3    H249253   0.539   3.065  14.540  0.6134 -1.6247 -1.5644
 9280TIP3   OH249254   5.153   0.444  15.685 -0.3626  0.1702  0.2626
 9280TIP3    H149255   5.059   0.452  15.699 -0.4347  0.3867 -0.3128
 9280TIP3    H249256   5.162   0.432  15.590  0.1027 -1.0475  0.4326
 9281TIP3   OH249257   0.535   6.565   5.326 -0.2394 -0.3446 -0.0492
 9281TIP3    H149258   0.482   6.559   5.406  0.7717 -0.5372  0.6175
 9281TIP3    H249259   0.539   6.475   5.294 -0.7119 -0.2556 -0.3787
 9282TIP3   OH249260   6.375   2.662   4.517  0.1007 -0.1658  0.2235
 9282TIP3    H149261   6.313   2.722   4.558  1.0914  1.5286 -0.6375
 9282TIP3    H249262   6.409   2.710   4.441 -1.0489 -2.8391 -2.1619
 9283TIP3   OH249263   1.127   3.678   3.784  0.0755  0.1579 -0.4110
 9283TIP3    H149264   1.075   3.750   3.820 -1.8145 -1.1783 -0.2874
 9283TIP3    H249265   1.210   3.718   3.759  0.4532  1.6968  2.8574
 9284TIP3   OH249266   3.550   6.036   0.739  0.0167 -0.4573  0.4826
 9284TIP3    H149267   3.606   5.993   0.803 -1.1990 -1.4478  0.9337
 9284TIP3    H249268   3.483   6.080   0.792  0.6627  1.2207 -0.0129
 9285TIP3   OH249269   1.662   2.191   5.029  0.3941  0.3467 -0.0443
 9285TIP3    H149270   1.613   2.250   4.971  0.5054 -0.2300 -0.7479
 9285TIP3    H249271   1.753   2.212   5.012  0.4205  1.2625  1.0991
 9286TIP3   OH249272   5.110   1.429  16.484  0.1019 -0.3542  0.1602
 9286TIP3    H149273   5.026   1.475  16.488 -0.1556 -0.8211  0.1930
 9286TIP3    H249274   5.137   1.423  16.576 -0.2380 -0.9412  0.2261
 9287TIP3   OH249275   2.064   5.946  12.491 -0.1832  0.3207 -0.3215
 9287TIP3    H149276   2.005   5.985  12.426  0.9851  0.8643 -1.0767
 9287TIP3    H249277   2.141   5.920  12.441  1.3844  2.0888  1.0430
 9288TIP3   OH249278   3.444   1.860  11.538 -0.1525 -0.1951 -0.4257
 9288TIP3    H149279   3.388   1.878  11.463 -0.7608 -2.1367 -0.4850
 9288TIP3    H249280   3.532   1.853  11.502 -0.4207 -0.9777 -0.9496
 9289TIP3   OH249281   0.594   2.710   2.708 -0.0998 -0.1699 -0.1339
 9289TIP3    H149282   0.516   2.709   2.764  0.1477  0.8360  0.2416
 9289TIP3    H249283   0.631   2.622   2.718  0.0070  0.0252  1.3830
 9290TIP3   OH249284   4.714   1.057  11.538 -0.8842  0.2871 -0.5603
 9290TIP3    H149285   4.740   1.078  11.448  0.2185 -0.0981 -0.3553
 9290TIP3    H249286   4.653   1.127  11.562 -0.4601  0.9292 -1.2835
 9291TIP3   OH249287   0.355   1.609   3.761 -0.6626  0.2042 -0.4689
 9291TIP3    H149288   0.416   1.607   3.835  0.2518 -1.8935 -1.1882
 9291TIP3    H249289   0.302   1.687   3.775  0.6214  0.7961  1.4688
 9292TIP3   OH249290   6.759   3.246   1.758  0.4742 -0.1951 -0.1475
 9292TIP3    H149291   6.711   3.315   1.804 -0.9680 -1.7523  0.7967
 9292TIP3    H249292   6.850   3.277   1.756 -0.2074  1.9699 -0.2855
 9293TIP3   OH249293   6.354   0.275   3.072 -0.2576 -0.5730 -0.0155
 9293TIP3    H149294   6.310   0.243   2.994 -0.4456 -0.6676  0.1278
 9293TIP3    H249295   6.368   0.196   3.126  3.1013 -1.1421 -1.4955
 9294TIP3   OH249296   1.229   5.067   4.400 -0.0886 -0.0631 -0.1462
 9294TIP3    H149297   1.194   4.981   4.424  0.8071 -0.4562 -0.1978
 9294TIP3    H249298   1.154   5.114   4.362 -1.1518  0.0216  1.9397
 9295TIP3   OH249299   1.740   3.241  10.960  0.2208  0.1003  0.2589
 9295TIP3    H149300   1.687   3.205  10.889 -1.1944 -3.0379  2.6294
 9295TIP3    H249301   1.808   3.175  10.974 -0.4354 -0.1565  2.6655
 9296TIP3   OH249302   3.314   5.224  11.866  0.0760  0.4682  0.0634
 9296TIP3    H149303   3.262   5.205  11.944  0.1096  1.0722  0.2359
 9296TIP3    H249304   3.306   5.319  11.853 -0.3065  0.3109 -0.9422
 9297TIP3   OH249305   1.165   1.690   1.983  0.2878  0.8903  0.2376
 9297TIP3    H149306   1.259   1.675   1.989  0.4308  1.6619 -0.0123
 9297TIP3    H249307   1.145   1.680   1.890  0.0862  0.5323  0.3176
 9298TIP3   OH249308   3.619   6.514   3.749 -0.3851 -0.0752 -0.2183
 9298TIP3    H149309   3.592   6.427   3.776 -1.4256  0.6414  1.2001
 9298TIP3    H249310   3.712   6.520   3.771 -0.9453  0.1062  2.3395
 9299TIP3   OH249311   3.554   4.380   2.300  0.1011 -0.2580 -0.5966
 9299TIP3    H149312   3.638   4.334   2.304  0.4244  0.2836 -0.9815
 9299TIP3    H249313   3.510   4.357   2.382  1.3866  0.8869  0.4754
 9300TIP3   OH249314   1.938   0.609  12.204 -0.5336 -0.2529  0.3385
 9300TIP3    H149315   1.914   0.632  12.115 -1.3470 -0.2358  0.5525
 9300TIP3    H249316   2.012   0.549  12.195 -0.7055 -0.3652 -0.3491
 9301TIP3   OH249317   2.184   3.352  16.495  0.0863 -0.3190 -0.5246
 9301TIP3    H149318   2.098   3.387  16.470  1.1437  2.8067 -0.2425
 9301TIP3    H249319   2.234   3.350  16.414  0.7303  1.0971 -0.1896
 9302TIP3   OH249320   3.496   0.766  12.686  0.0269 -0.5947  0.2962
 9302TIP3    H149321   3.449   0.684  12.670  0.8066 -0.6307 -2.0251
 9302TIP3    H249322   3.533   0.755  12.774 -2.6800 -1.2980  1.4674
 9303TIP3   OH249323   1.178   0.377  10.539  0.1926 -0.3661  0.2625
 9303TIP3    H149324   1.144   0.456  10.495  0.3558 -1.3503 -1.7327
 9303TIP3    H249325   1.216   0.410  10.620 -0.4458  1.5128 -0.1400
 9304TIP3   OH249326   0.103   5.976  15.292  0.2533  0.4925  0.6401
 9304TIP3    H149327   0.134   5.887  15.311 -1.2741 -0.5750 -1.4668
 9304TIP3    H249328   0.183   6.024  15.271  0.9804 -0.8344  0.2020
 9305TIP3   OH249329   2.936   0.393  12.740 -0.4594 -0.1178  0.4191
 9305TIP3    H149330   2.957   0.405  12.647 -0.0166 -0.0949  0.5186
 9305TIP3    H249331   2.842   0.378  12.742 -0.4466 -0.2706 -0.0501
 9306TIP3   OH249332   1.370   5.544  14.021  0.7025  0.3752 -0.8748
 9306TIP3    H149333   1.347   5.506  14.106  0.1890  0.2279 -1.0760
 9306TIP3    H249334   1.354   5.473  13.958 -2.2205  1.4717 -1.5149
 9307TIP3   OH249335   4.589   1.982   5.684 -0.4112 -0.1000 -0.5382
 9307TIP3    H149336   4.668   1.932   5.703 -0.5860 -0.3185 -0.3742
 9307TIP3    H249337   4.614   2.042   5.614 -0.5569 -1.3070 -1.6415
 9308TIP3   OH249338   0.177   0.448  11.548  0.4819  0.3067  0.0433
 9308TIP3    H149339   0.207   0.383  11.484 -0.7458  0.4805 -0.7462
 9308TIP3    H249340   0.214   0.418  11.631  2.0564  0.0328 -0.7136
 9309TIP3   OH249341   4.512   1.455   1.595  0.0928 -0.2615 -0.5964
 9309TIP3    H149342   4.529   1.548   1.583  0.0884 -0.2344 -0.3893
 9309TIP3    H249343   4.416   1.449   1.604  0.2541  0.0147  1.9486
 9310TIP3   OH249344   3.531   0.448  12.927 -0.2532  0.3629 -0.2557
 9310TIP3    H149345   3.571   0.535  12.926 -2.2928  1.3563 -2.5164
 9310TIP3    H249346   3.452   0.458  12.980 -0.4667 -0.1313 -0.4714
 9311TIP3   OH249347   3.780   4.393   2.510  0.7155 -0.5271 -0.0268
 9311TIP3    H149348   3.815   4.358   2.592 -1.7387 -1.3823  0.7607
 9311TIP3    H249349   3.776   4.317   2.452 -1.8900 -1.0923  0.7183
 9312TIP3   OH249350   3.928   1.380  10.665 -0.7137  0.9204  0.3820
 9312TIP3    H149351   3.988   1.362  10.738  1.1769  0.7742 -1.1477
 9312TIP3    H249352   3.867   1.306  10.666  0.7375 -0.3265  0.4046
 9313TIP3   OH249353   4.515   6.702   1.695  0.5221  0.1717 -0.1945
 9313TIP3    H149354   4.549   6.791   1.684  2.5275 -0.4114  0.7135
 9313TIP3    H249355   4.465   6.706   1.777  1.1147  0.3409  0.1648
 9314TIP3   OH249356   3.712   3.257   3.152  0.6019 -0.1124 -0.0054
 9314TIP3    H149357   3.680   3.263   3.062 -1.0746 -1.8707  0.4029
 9314TIP3    H249358   3.633   3.244   3.205  1.6163  0.1339  1.6405
 9315TIP3   OH249359   0.207   1.031  14.082 -0.2713 -0.1826  0.3512
 9315TIP3    H149360   0.186   1.097  14.147  1.2929 -0.4449  1.1747
 9315TIP3    H249361   0.167   1.063  14.001 -1.8255  0.3923  1.3180
 9316TIP3   OH249362   1.369   2.218  10.610 -0.0779 -0.0172  0.4147
 9316TIP3    H149363   1.459   2.200  10.636 -0.0246  0.7534  0.7926
 9316TIP3    H249364   1.376   2.295  10.553 -0.3001 -1.0817 -1.1034
 9317TIP3   OH249365   1.054   0.572   5.731 -0.6121  0.4359 -0.6998
 9317TIP3    H149366   1.032   0.487   5.769  1.1254  0.0739 -0.3986
 9317TIP3    H249367   1.070   0.554   5.639  1.5384  0.0086 -0.3143
 9318TIP3   OH249368   3.016   1.384  13.669 -0.7380  0.0360  0.1507
 9318TIP3    H149369   3.084   1.442  13.635 -0.2700 -0.4834  0.1752
 9318TIP3    H249370   3.039   1.298  13.634 -0.8391 -0.3190  0.9403
 9319TIP3   OH249371   1.394   6.409  12.073  0.6323 -0.2172  0.8908
 9319TIP3    H149372   1.330   6.410  12.144 -0.8435  2.8512 -0.2972
 9319TIP3    H249373   1.343   6.391  11.995  1.3990  0.8805  0.0909
 9320TIP3   OH249374   6.679   3.160   4.014  0.0600 -0.0260 -0.1789
 9320TIP3    H149375   6.774   3.161   4.020  0.0324  0.6531  0.2698
 9320TIP3    H249376   6.649   3.183   4.103 -0.5353 -1.2098 -0.0537
 9321TIP3   OH249377   0.790   4.513   0.964  0.1683  0.4524  0.3864
 9321TIP3    H149378   0.742   4.492   1.044 -1.4738  1.7634 -0.2015
 9321TIP3    H249379   0.875   4.545   0.994  0.0484 -0.2601  1.5388
 9322TIP3   OH249380   6.000   2.350   3.857 -0.2672 -0.4644 -0.0821
 9322TIP3    H149381   6.000   2.403   3.777  0.2434  2.3186  1.6296
 9322TIP3    H249382   6.092   2.344   3.882 -0.5341 -0.0902  1.0278
 9323TIP3   OH249383   5.826   5.499  13.007 -0.1710 -0.7263  0.3456
 9323TIP3    H149384   5.801   5.508  12.915 -1.2922 -0.6104  0.6543
 9323TIP3    H249385   5.911   5.544  13.013  0.0403 -0.9662 -0.6785
 9324TIP3   OH249386   0.483   6.611  11.622  0.6220  0.7707 -0.1477
 9324TIP3    H149387   0.563   6.614  11.675  0.7665 -1.9635 -0.0711
 9324TIP3    H249388   0.506   6.653  11.540  2.0978  0.2589 -0.0196
 9325TIP3   OH249389   4.712   0.011   5.901  0.2700 -0.6133 -0.5882
 9325TIP3    H149390   4.674  -0.060   5.952  0.7551 -1.5866 -1.5250
 9325TIP3    H249391   4.711   0.087   5.959  3.4907 -2.2922  2.0002
 9326TIP3   OH249392   0.525   4.976  12.752  0.4520  0.8513 -0.8280
 9326TIP3    H149393   0.594   4.974  12.818  0.0218  0.4556 -0.3831
 9326TIP3    H249394   0.546   4.902  12.694  0.1059  0.3991 -0.3828
 9327TIP3   OH249395   0.272   5.807   1.659  0.4489  0.3846  0.1120
 9327TIP3    H149396   0.348   5.866   1.656 -0.0913  1.2374  2.0644
 9327TIP3    H249397   0.198   5.864   1.677 -0.3214 -0.7278  0.5632
 9328TIP3   OH249398   1.909   2.550   5.678  0.1190  0.3317 -0.4453
 9328TIP3    H149399   1.942   2.630   5.637 -1.6024  1.1629 -0.3097
 9328TIP3    H249400   1.830   2.528   5.628  1.2433 -2.0775 -1.3232
 9329TIP3   OH249401   3.291   6.769   4.875 -0.2797  0.2166 -0.2799
 9329TIP3    H149402   3.215   6.827   4.873 -0.7236 -0.2481  1.6305
 9329TIP3    H249403   3.359   6.818   4.828 -1.5881  0.8419 -1.5863
 9330TIP3   OH249404   2.798   5.058  11.521 -0.4329  0.8894  0.5363
 9330TIP3    H149405   2.813   5.149  11.545  0.2389  0.6967  0.8869
 9330TIP3    H249406   2.731   5.027  11.582 -0.3846  1.0503  0.6725
 9331TIP3   OH249407   6.577   3.381   1.916 -0.0914 -0.4446  0.7357
 9331TIP3    H149408   6.589   3.414   2.005 -0.1722  0.0702  0.5576
 9331TIP3    H249409   6.504   3.432   1.881 -0.1386 -0.7298  0.4137
 9332TIP3   OH249410   5.203   4.813   0.381 -0.4223 -0.1070 -0.2406
 9332TIP3    H149411   5.297   4.828   0.389  0.0861 -3.3565  1.7658
 9332TIP3    H249412   5.193   4.760   0.302 -1.0869  2.7605 -2.2321
 9333TIP3   OH249413   4.009   5.859  13.471  0.4616  0.1003  0.6308
 9333TIP3    H149414   3.962   5.934  13.507 -0.6524 -1.2927  2.2160
 9333TIP3    H249415   3.971   5.845  13.385  0.7801  1.4182  0.2626
 9334TIP3   OH249416   5.962   4.183   0.814  0.0897  0.7229  0.3495
 9334TIP3    H149417   5.923   4.128   0.882  1.2683  1.1877  1.4366
 9334TIP3    H249418   5.888   4.228   0.774 -0.6525  0.3119  1.2299
 9335TIP3   OH249419   3.126   2.152  10.729 -0.3197  0.2889 -0.3244
 9335TIP3    H149420   3.206   2.203  10.747  0.6068 -0.1301 -2.8497
 9335TIP3    H249421   3.058   2.195  10.781  0.8168  2.8905 -0.8266
 9336TIP3   OH249422   1.355   6.656   1.424  0.3187 -0.2284 -0.4045
 9336TIP3    H149423   1.433   6.635   1.373  1.4734 -1.7832  1.8501
 9336TIP3    H249424   1.283   6.615   1.375  1.2640 -0.9565 -1.2270
 9337TIP3   OH249425   4.756   3.970   0.744 -0.2205  0.3771 -0.1900
 9337TIP3    H149426   4.780   4.045   0.691  0.5742  0.5881  0.4576
 9337TIP3    H249427   4.827   3.907   0.731  0.5632  0.8811  1.4974
 9338TIP3   OH249428   4.072   6.447   1.464 -0.0506  0.4234 -0.2491
 9338TIP3    H149429   4.030   6.424   1.547 -0.1527  0.2506 -0.3472
 9338TIP3    H249430   4.103   6.363   1.429  1.0409  0.6356  0.1710
 9339TIP3   OH249431   3.321   5.642  14.656 -0.4345  0.3451 -0.3920
 9339TIP3    H149432   3.357   5.624  14.569 -0.0160 -1.6777  0.1538
 9339TIP3    H249433   3.393   5.623  14.716 -1.2542  0.0059  0.4978
 9340TIP3   OH249434   5.493   2.119  17.050  0.7378 -0.4729  0.4371
 9340TIP3    H149435   5.440   2.092  16.975 -2.6440  2.9624  1.2743
 9340TIP3    H249436   5.440   2.097  17.126  1.6239  0.8523  1.4909
 9341TIP3   OH249437   2.727   4.946  15.586  0.3936 -0.3366 -0.1392
 9341TIP3    H149438   2.655   4.974  15.529  1.8704  1.4418 -1.2408
 9341TIP3    H249439   2.780   4.888  15.532  1.7621  1.2989 -0.6365
 9342TIP3   OH249440   6.019   5.031  14.811 -0.5133 -0.4413 -0.5627
 9342TIP3    H149441   5.944   5.088  14.828 -0.0760  0.0709 -0.2908
 9342TIP3    H249442   6.048   5.003  14.898 -0.4354 -0.6985 -0.6698
 9343TIP3   OH249443   5.905   3.852   1.269 -0.1611 -0.3409  0.2937
 9343TIP3    H149444   5.869   3.900   1.344 -0.1774 -1.3362  0.9377
 9343TIP3    H249445   6.000   3.853   1.284  0.0539  1.3578 -0.8483
 9344TIP3   OH249446   1.447   4.863  14.213  0.0755  0.0691  0.1597
 9344TIP3    H149447   1.478   4.865  14.303  0.3445  0.8379  0.0525
 9344TIP3    H249448   1.356   4.894  14.218  0.3602  0.9525  0.0675
 9345TIP3   OH249449   0.944   5.138   1.221 -0.1149 -0.5746  0.0130
 9345TIP3    H149450   0.978   5.195   1.153  1.9096 -0.7927  0.7768
 9345TIP3    H249451   0.849   5.151   1.218  0.1852  2.0873 -0.4685
 9346TIP3   OH249452   2.406   5.331   0.338 -0.5205  0.3054 -0.4271
 9346TIP3    H149453   2.318   5.294   0.330 -0.4678  0.2317 -0.6658
 9346TIP3    H249454   2.406   5.374   0.424 -0.5216 -0.4026 -0.0654
 9347TIP3   OH249455   6.051   1.765  10.736 -0.5089 -0.0776 -0.3873
 9347TIP3    H149456   6.068   1.798  10.648  0.0766  0.2839 -0.1472
 9347TIP3    H249457   5.980   1.819  10.769 -1.0468 -0.5196 -0.8025
 9348TIP3   OH249458   5.534   4.363  13.686  0.1538  0.6588 -0.2157
 9348TIP3    H149459   5.575   4.322  13.610  0.2439  2.9759 -1.5066
 9348TIP3    H249460   5.604   4.418  13.723 -1.1544  3.3168 -1.4188
 9349TIP3   OH249461   0.356   0.206  13.173 -0.1420  0.0317  0.2616
 9349TIP3    H149462   0.362   0.291  13.217  2.6983 -0.8864  1.8893
 9349TIP3    H249463   0.367   0.225  13.080 -1.0989  1.5339  0.4243
 9350TIP3   OH249464   5.407   1.219  13.248  0.0775 -0.1352 -0.2370
 9350TIP3    H149465   5.483   1.276  13.242  0.7246 -1.0439 -0.7486
 9350TIP3    H249466   5.435   1.146  13.304  0.1461 -1.3213 -1.7466
 9351TIP3   OH249467   0.671   3.885   3.017 -0.1399  0.2588 -0.2320
 9351TIP3    H149468   0.657   3.950   3.086 -0.8326 -0.5188  0.3911
 9351TIP3    H249469   0.765   3.868   3.018  0.1231  1.5913 -0.7311
 9352TIP3   OH249470   4.116   4.829  10.715  0.6759  0.2894  0.6338
 9352TIP3    H149471   4.094   4.771  10.642 -2.0280  2.8212 -0.7616
 9352TIP3    H249472   4.202   4.864  10.691  0.2625  0.3467 -0.8694
 9353TIP3   OH249473   2.660   6.464   1.153  0.0699 -0.0352 -0.2675
 9353TIP3    H149474   2.571   6.498   1.154  0.3075  0.6190  1.0563
 9353TIP3    H249475   2.662   6.397   1.221  1.1884  1.6955  1.4959
 9354TIP3   OH249476   1.157   5.888   4.894 -0.0469  0.1418 -0.2905
 9354TIP3    H149477   1.140   5.796   4.912 -2.4078  0.3852 -0.9366
 9354TIP3    H249478   1.070   5.929   4.892  0.7399  1.9067 -2.4326
 9355TIP3   OH249479   0.741   2.603  13.690  0.4148 -0.2162 -0.4637
 9355TIP3    H149480   0.754   2.643  13.776  0.3760 -0.9316 -0.1180
 9355TIP3    H249481   0.762   2.672  13.628  2.8844 -0.3725  0.0836
 9356TIP3   OH249482   1.515   2.848  16.020  0.3342 -0.0528  0.0121
 9356TIP3    H149483   1.586   2.867  16.081 -0.8884  2.1875  0.8504
 9356TIP3    H249484   1.453   2.795  16.070  0.2296  0.1552  0.1041
 9357TIP3   OH249485   1.742   0.183   1.515 -0.0354  0.1536  0.3385
 9357TIP3    H149486   1.813   0.119   1.514 -1.5870 -1.6349  0.7472
 9357TIP3    H249487   1.758   0.238   1.438  0.8136 -1.3228 -0.5804
 9358TIP3   OH249488   1.788   3.633  10.651 -0.3674 -0.1483  0.6638
 9358TIP3    H149489   1.840   3.605  10.726  0.0016 -0.7513  0.1920
 9358TIP3    H249490   1.714   3.573  10.649 -0.5582  0.0828  0.7451
 9359TIP3   OH249491   0.942   4.607  12.326 -0.0140  0.0972  0.2286
 9359TIP3    H149492   0.910   4.694  12.302  0.3021 -0.6298 -3.4518
 9359TIP3    H249493   1.003   4.584  12.256  1.5177 -2.2961  2.1881
 9360TIP3   OH249494   4.550   4.917  13.550  0.2010 -0.0138  0.3733
 9360TIP3    H149495   4.559   4.822  13.539 -2.6651 -0.3332  0.2317
 9360TIP3    H249496   4.557   4.931  13.644 -0.8908 -0.5760  0.5474
 9361TIP3   OH249497   1.269   0.201  15.343  0.3586  0.0025 -0.6231
 9361TIP3    H149498   1.284   0.190  15.437  1.0162 -1.7703 -0.8952
 9361TIP3    H249499   1.340   0.153  15.302 -0.0558  0.5622 -2.0473
 9362TIP3   OH249500   4.749   3.146  12.390 -0.0818  0.4146  0.0042
 9362TIP3    H149501   4.765   3.222  12.335  0.0356  0.7503  0.4983
 9362TIP3    H249502   4.655   3.128  12.379 -0.9201  2.6940  2.4396
 9363TIP3   OH249503   3.903   5.548  13.515 -0.0635  0.1673 -0.1003
 9363TIP3    H149504   3.891   5.624  13.458 -1.1027  0.9834  1.1567
 9363TIP3    H249505   3.816   5.533  13.553  0.4898 -0.6469  0.8925
 9364TIP3   OH249506   1.163   6.779  14.782 -0.1751 -0.8412 -0.1653
 9364TIP3    H149507   1.150   6.826  14.864  3.5285 -2.4392  1.5727
 9364TIP3    H249508   1.220   6.835  14.730 -2.5413  0.1862 -1.8544
 9365TIP3   OH249509   0.229   0.534   0.849 -0.3827 -0.1746 -0.3377
 9365TIP3    H149510   0.135   0.525   0.862 -0.2493 -0.9174  0.1635
 9365TIP3    H249511   0.264   0.548   0.937 -0.0992  0.8634 -0.6075
 9366TIP3   OH249512   5.686   2.836  11.631  0.1266  0.2231  0.7316
 9366TIP3    H149513   5.713   2.769  11.569 -1.8089 -0.3276  0.4066
 9366TIP3    H249514   5.721   2.917  11.596 -0.0198 -0.2266 -0.5202
 9367TIP3   OH249515   3.867   1.018  11.749  0.2461 -0.5592 -0.1868
 9367TIP3    H149516   3.905   0.970  11.822 -0.0368 -0.3222  0.1214
 9367TIP3    H249517   3.828   0.951  11.693 -0.8420 -0.6324  0.6481
 9368TIP3   OH249518   0.873   4.183   4.075  0.0095  0.3504 -0.0015
 9368TIP3    H149519   0.841   4.163   3.988  0.6682 -0.3188 -0.1024
 9368TIP3    H249520   0.880   4.098   4.119  0.4509  0.5982  0.4257
 9369TIP3   OH249521   1.090   5.101  12.939 -0.7700  0.0374 -0.1963
 9369TIP3    H149522   1.095   5.036  12.869  0.8316 -0.6219  0.4885
 9369TIP3    H249523   1.111   5.184  12.895  0.1931 -0.3646 -0.5311
 9370TIP3   OH249524   0.645   0.919  11.613  0.3801 -0.3732  0.1537
 9370TIP3    H149525   0.633   0.861  11.538 -0.8404 -2.7335  2.0034
 9370TIP3    H249526   0.713   0.876  11.665  2.6735  2.2607 -0.4406
 9371TIP3   OH249527   4.632   6.517   3.997  0.8231  0.5371  0.0851
 9371TIP3    H149528   4.715   6.497   3.954  0.8618  0.6615  0.0993
 9371TIP3    H249529   4.607   6.602   3.960 -0.2441 -0.3491 -1.3290
 9372TIP3   OH249530   1.420   0.173   6.108 -0.3872 -0.1333 -0.0872
 9372TIP3    H149531   1.446   0.157   6.198  0.8836  0.5414 -0.3097
 9372TIP3    H249532   1.328   0.199   6.113 -0.1349  0.5710  1.0833
 9373TIP3   OH249533   2.881   1.802  15.615 -0.0636 -0.7928 -0.6601
 9373TIP3    H149534   2.878   1.725  15.671  1.9169 -0.4025  0.0647
 9373TIP3    H249535   2.814   1.786  15.548 -1.9820 -1.6155  1.3438
 9374TIP3   OH249536   6.078   1.450  12.811 -0.7185  0.1672 -0.1953
 9374TIP3    H149537   6.162   1.479  12.845  0.7055 -3.2173 -0.4104
 9374TIP3    H249538   6.079   1.476  12.719 -0.6136  1.4073  0.1312
 9375TIP3   OH249539   3.181   0.315  16.112 -0.2215 -0.4289  0.5267
 9375TIP3    H149540   3.127   0.350  16.042 -0.6785  0.1142  1.1306
 9375TIP3    H249541   3.126   0.250  16.155 -0.5476  0.3490  1.3411
 9376TIP3   OH249542   3.802   4.812   4.187  0.2741  0.6933  0.5216
 9376TIP3    H149543   3.869   4.816   4.255  1.6717  0.7659 -0.8125
 9376TIP3    H249544   3.738   4.748   4.219  1.3016  0.1619  1.5450
 9377TIP3   OH249545   3.097   5.745  11.350 -0.0675  0.1793  0.4184
 9377TIP3    H149546   3.024   5.792  11.310 -0.7985 -0.2014  1.2733
 9377TIP3    H249547   3.060   5.660  11.376  0.7244 -0.0950  0.6824
 9378TIP3   OH249548   1.161   3.113  14.422  0.3470  0.5727  0.1982
 9378TIP3    H149549   1.185   3.049  14.490  1.8072  2.5678  1.6594
 9378TIP3    H249550   1.097   3.169  14.465  1.2945  1.8607 -0.0260
 9379TIP3   OH249551   1.147   2.308  13.848  0.5389 -0.6185  0.8216
 9379TIP3    H149552   1.150   2.295  13.753  1.1628 -1.5503  0.9508
 9379TIP3    H249553   1.133   2.220  13.884  0.9696 -0.3746  1.6170
 9380TIP3   OH249554   5.683   4.534  10.419  0.0056 -0.3888  0.2073
 9380TIP3    H149555   5.701   4.559  10.329 -0.2782  0.7954  0.4570
 9380TIP3    H249556   5.599   4.487  10.414  0.0751 -0.4761 -0.1646
 9381TIP3   OH249557   4.855   0.110   5.567  0.2552 -0.5325 -0.4908
 9381TIP3    H149558   4.908   0.032   5.546  0.3598 -0.4347 -0.5879
 9381TIP3    H249559   4.770   0.074   5.594 -0.4552 -0.6093 -2.6503
 9382TIP3   OH249560   0.539   4.213  11.949  0.2819 -0.1091 -0.2143
 9382TIP3    H149561   0.559   4.254  11.865 -2.5680 -0.1843 -1.0421
 9382TIP3    H249562   0.584   4.267  12.014  0.3460  1.6006 -1.6068
 9383TIP3   OH249563   5.426   2.964  10.891  0.0311 -0.5644 -0.1213
 9383TIP3    H149564   5.456   2.933  10.977  0.8222  3.8549  1.4403
 9383TIP3    H249565   5.340   3.000  10.908  0.0664  0.0792 -1.2645
 9384TIP3   OH249566   1.766   5.424  16.538 -0.6913 -0.2832 -0.3366
 9384TIP3    H149567   1.776   5.506  16.588  1.1444 -0.7493  0.1280
 9384TIP3    H249568   1.716   5.367  16.596  1.5356 -0.8669  1.1452
 9385TIP3   OH249569   4.495   4.947   5.902 -0.7054  0.0769  0.6822
 9385TIP3    H149570   4.584   4.917   5.919 -0.1691 -0.1691 -2.0547
 9385TIP3    H249571   4.501   4.993   5.818 -3.0140  0.8258  0.8498
 9386TIP3   OH249572   0.926   0.538   5.457 -0.0172 -0.0287 -0.2855
 9386TIP3    H149573   0.951   0.518   5.367 -1.1340 -1.4724 -0.3014
 9386TIP3    H249574   0.844   0.587   5.449 -1.8359 -2.8088 -0.0569
 9387TIP3   OH249575   1.732   0.898  12.245 -0.4104  0.0083  0.0784
 9387TIP3    H149576   1.826   0.883  12.244 -0.7700 -3.2899  1.5602
 9387TIP3    H249577   1.703   0.876  12.157  0.0597  0.0282 -0.0849
 9388TIP3   OH249578   0.632   3.638   1.301 -0.4947  0.1132 -0.0346
 9388TIP3    H149579   0.639   3.551   1.263 -0.5891 -0.1985  0.6469
 9388TIP3    H249580   0.653   3.698   1.229  0.6986 -0.5065 -0.2140
 9389TIP3   OH249581   4.944   6.458  15.768 -0.2991 -0.1745 -0.3927
 9389TIP3    H149582   4.981   6.376  15.735  1.1113 -1.7408  4.1733
 9389TIP3    H249583   5.013   6.523  15.753  0.0541 -0.6648 -0.9332
 9390TIP3   OH249584   4.172   1.543  15.168  0.4819 -0.6747 -0.1355
 9390TIP3    H149585   4.209   1.472  15.115  0.6125 -0.6952 -0.0172
 9390TIP3    H249586   4.125   1.499  15.239 -1.0479 -0.6936 -1.1049
 9391TIP3   OH249587   5.262   1.210  16.406  0.7376 -0.1540 -0.0891
 9391TIP3    H149588   5.357   1.220  16.407  0.6696  0.5927  0.5878
 9391TIP3    H249589   5.229   1.299  16.420 -0.0247 -0.5980  1.1279
 9392TIP3   OH249590   1.832   4.119   0.745 -0.3525  0.1172 -0.3324
 9392TIP3    H149591   1.814   4.213   0.749  0.3611  0.2061  1.4719
 9392TIP3    H249592   1.926   4.113   0.727 -0.5746 -0.2930 -1.4823
 9393TIP3   OH249593   6.237   2.035  15.357  0.3161 -0.2547  0.1883
 9393TIP3    H149594   6.251   1.964  15.293  2.3296  0.4806 -0.2323
 9393TIP3    H249595   6.306   2.023  15.422 -0.8080 -0.0870  1.4634
 9394TIP3   OH249596   2.792   0.867  12.306  0.1781 -0.4475  0.3368
 9394TIP3    H149597   2.795   0.963  12.297 -2.6618 -0.2396  0.5843
 9394TIP3    H249598   2.762   0.837  12.220 -1.3168 -0.8320  0.9503
 9395TIP3   OH249599   1.075   0.128   0.493 -0.0159 -0.3523  0.0146
 9395TIP3    H149600   1.022   0.054   0.524  0.4209 -0.9010 -0.5081
 9395TIP3    H249601   1.111   0.098   0.409 -0.1008  0.5890 -0.3682
 9396TIP3   OH249602   4.572   4.244   4.153  0.4503 -0.1211 -0.1897
 9396TIP3    H149603   4.507   4.174   4.159  0.1800  0.0346 -1.1209
 9396TIP3    H249604   4.655   4.199   4.139  0.1487 -0.2544 -1.7369
 9397TIP3   OH249605   0.910   1.982  16.327  0.0741 -0.0824 -0.2439
 9397TIP3    H149606   0.829   2.011  16.370  0.4789 -1.3965  1.5371
 9397TIP3    H249607   0.884   1.905  16.277 -0.3171  1.2245 -2.1708
 9398TIP3   OH249608   0.020   6.028   3.082  0.5736  0.4374  0.0294
 9398TIP3    H149609   0.084   6.007   3.014  1.6053  1.9210  0.4990
 9398TIP3    H249610   0.050   5.978   3.159 -0.1410 -0.6130 -0.3462
 9399TIP3   OH249611   0.623   0.996   1.595 -0.2166  0.2823 -0.1154
 9399TIP3    H149612   0.624   1.042   1.511 -0.7697 -0.1380 -0.3512
 9399TIP3    H249613   0.682   0.921   1.583 -0.7608 -0.1128 -0.3163
 9400TIP3   OH249614   3.819   5.207  15.443 -0.8458 -0.1828  0.5191
 9400TIP3    H149615   3.800   5.293  15.481 -1.0838  0.3849 -0.8235
 9400TIP3    H249616   3.904   5.183  15.480 -0.0346  1.3484 -0.2530
 9401TIP3   OH249617   3.082   6.068  14.805 -0.0744  0.2510  0.0114
 9401TIP3    H149618   3.050   6.110  14.725 -1.7231 -0.2055  0.3926
 9401TIP3    H249619   3.092   5.976  14.781  2.1101  0.5537 -0.4106
 9402TIP3   OH249620   3.659   4.267   3.449  0.2869  0.3370 -0.1701
 9402TIP3    H149621   3.688   4.255   3.539 -0.0366  0.1502 -0.0878
 9402TIP3    H249622   3.698   4.350   3.422 -0.1637  0.7359  0.3745
 9403TIP3   OH249623   3.394   1.368   4.128 -0.4221  0.5362  0.1563
 9403TIP3    H149624   3.326   1.403   4.071 -0.6315 -0.1491 -0.0236
 9403TIP3    H249625   3.459   1.438   4.133 -0.9681  1.0592  0.0427
 9404TIP3   OH249626   1.814   2.203   5.997 -0.4438  0.1206  0.3915
 9404TIP3    H149627   1.819   2.131   6.059 -2.6547 -0.3553  0.0897
 9404TIP3    H249628   1.852   2.167   5.916  0.5701  0.0884  0.8595
 9405TIP3   OH249629   3.877   2.789   3.576  0.6932 -0.3579 -0.6595
 9405TIP3    H149630   3.911   2.706   3.608  1.3557  0.4056  0.6893
 9405TIP3    H249631   3.819   2.765   3.504  1.4318 -1.9276 -0.7647
 9406TIP3   OH249632   3.138   5.415  15.302 -0.6601 -0.1316  0.1452
 9406TIP3    H149633   3.098   5.385  15.220  0.4828  1.1887 -0.9553
 9406TIP3    H249634   3.230   5.388  15.295 -0.7618 -0.8848  1.4720
 9407TIP3   OH249635   1.573   1.063  14.691 -0.7859 -0.2024 -0.1316
 9407TIP3    H149636   1.508   1.108  14.637  0.7364  2.3040  0.0082
 9407TIP3    H249637   1.595   0.984  14.641 -1.5185  0.5911 -1.7846
 9408TIP3   OH249638   6.439   4.328   1.429  0.4038 -0.2664 -0.2532
 9408TIP3    H149639   6.395   4.249   1.459  0.6351 -0.3277 -0.0706
 9408TIP3    H249640   6.517   4.295   1.383  0.0919 -0.1740 -0.8616
 9409TIP3   OH249641   3.517   1.607  15.501 -0.2515 -0.0196 -0.3686
 9409TIP3    H149642   3.567   1.647  15.572  1.9800  0.7059 -2.2261
 9409TIP3    H249643   3.471   1.534  15.543 -0.5676  1.5196  2.1593
 9410TIP3   OH249644   3.639   1.757   1.321  0.3973 -0.5958  0.1134
 9410TIP3    H149645   3.622   1.806   1.240  0.5804 -0.7909 -0.0449
 9410TIP3    H249646   3.722   1.712   1.304  1.2407  0.5593  0.9621
 9411TIP3   OH249647   3.394   6.321  12.567  0.1211  0.0986 -0.2751
 9411TIP3    H149648   3.391   6.231  12.535  1.4746  0.2074 -0.7788
 9411TIP3    H249649   3.363   6.315  12.658  1.2623 -1.0609  0.0623
 9412TIP3   OH249650   3.944   0.437   5.202 -0.1847 -0.1639  0.1118
 9412TIP3    H149651   3.856   0.445   5.166  0.4946  0.9352 -1.4228
 9412TIP3    H249652   3.967   0.345   5.187 -0.4797 -0.0767 -0.9926
 9413TIP3   OH249653   2.782   3.329   1.938  0.9269  0.3112 -0.6329
 9413TIP3    H149654   2.725   3.307   1.864 -1.4659 -0.7593  1.3912
 9413TIP3    H249655   2.795   3.246   1.984  0.1198  1.3551  1.6096
 9414TIP3   OH249656   1.234   5.532   2.454  0.4799 -0.4552  0.0070
 9414TIP3    H149657   1.307   5.470   2.451  1.6766  0.5034  3.6429
 9414TIP3    H249658   1.163   5.482   2.493  0.5734 -0.2686  0.4182
 9415TIP3   OH249659   5.307   2.413  10.574  0.1953  0.1620 -0.1956
 9415TIP3    H149660   5.272   2.360  10.502  2.0561 -0.3325 -0.7934
 9415TIP3    H249661   5.297   2.358  10.651 -1.5472  0.5777 -0.0751
 9416TIP3   OH249662   1.391   5.025  12.850 -0.3375 -0.7733  0.6358
 9416TIP3    H149663   1.441   4.948  12.821 -0.0108 -0.2263 -0.3006
 9416TIP3    H249664   1.302   4.992  12.862  0.1356 -1.6756  1.9291
 9417TIP3   OH249665   5.508   6.059  12.985 -0.1203  0.3350  0.2299
 9417TIP3    H149666   5.595   6.076  12.948 -0.2950  1.4466  0.2865
 9417TIP3    H249667   5.453   6.044  12.908  0.1163 -0.4008  0.1948
 9418TIP3   OH249668   0.028   0.797   5.126 -0.6576  0.1273 -0.3173
 9418TIP3    H149669   0.117   0.804   5.160 -0.4807  0.0511 -0.7572
 9418TIP3    H249670   0.036   0.736   5.052 -0.6915  1.6558 -1.6394
 9419TIP3   OH249671   2.840   0.343   2.527 -0.9939 -0.3008  0.8429
 9419TIP3    H149672   2.867   0.365   2.437  0.2475 -1.3623  0.9301
 9419TIP3    H249673   2.752   0.305   2.516 -1.7185  1.3995  0.3291
 9420TIP3   OH249674   0.098   1.203  13.021  0.3439 -0.4814  0.2749
 9420TIP3    H149675   0.110   1.116  13.059  0.1489 -0.0181  1.4275
 9420TIP3    H249676   0.030   1.191  12.955 -0.5740 -0.9833  1.2771
 9421TIP3   OH249677   4.891   5.942  13.244 -0.1532  0.0486 -0.1157
 9421TIP3    H149678   4.901   5.900  13.329  1.4925 -1.0591 -0.7983
 9421TIP3    H249679   4.935   6.027  13.253 -0.3434  0.1051  0.2586
 9422TIP3   OH249680   0.675   0.845  12.701  0.0628  0.2043  0.9144
 9422TIP3    H149681   0.725   0.808  12.773  0.6791 -2.3852 -0.6941
 9422TIP3    H249682   0.594   0.794  12.699  0.3902 -0.2975 -0.6498
 9423TIP3   OH249683   4.390   2.413  11.398 -0.2329  0.2787  0.1433
 9423TIP3    H149684   4.390   2.321  11.424 -0.7431  0.0670 -0.5818
 9423TIP3    H249685   4.338   2.416  11.318  0.9789  0.9693 -0.6605
 9424TIP3   OH249686   1.142   2.945  16.246 -0.2481  0.3125  0.1436
 9424TIP3    H149687   1.160   2.991  16.328 -2.5385 -0.0875  0.9414
 9424TIP3    H249688   1.212   2.880  16.240  2.1624  2.7439 -0.2223
 9425TIP3   OH249689   6.517   5.324   0.499 -0.2295  0.6215  0.0028
 9425TIP3    H149690   6.523   5.319   0.404 -0.7555  0.4202 -0.0221
 9425TIP3    H249691   6.484   5.412   0.517 -1.8530  0.0559 -0.0927
 9426TIP3   OH249692   3.094   4.112   5.268 -0.1060 -0.1073 -0.8289
 9426TIP3    H149693   3.082   4.029   5.223 -0.9073 -0.9349  0.8360
 9426TIP3    H249694   3.058   4.098   5.355  1.5554  1.3673  0.1623
 9427TIP3   OH249695   0.962   5.223  11.515  0.2256 -0.1304 -0.2380
 9427TIP3    H149696   0.967   5.129  11.536  1.1327 -0.4588 -1.7929
 9427TIP3    H249697   0.913   5.226  11.433  0.0433  0.7915 -0.0995
 9428TIP3   OH249698   3.721   5.612   0.223 -0.2405 -0.0352  0.7047
 9428TIP3    H149699   3.687   5.554   0.154  1.1600  0.4865 -0.4785
 9428TIP3    H249700   3.764   5.683   0.175  0.1540  0.7221  2.1343
 9429TIP3   OH249701   4.756   3.344  14.604 -0.6503  0.5903 -0.4402
 9429TIP3    H149702   4.798   3.424  14.575  1.5162 -0.7682 -1.3129
 9429TIP3    H249703   4.774   3.339  14.697 -0.2991  0.8486 -0.4952
 9430TIP3   OH249704   2.069   2.162   5.061 -0.2244  0.3562  0.5531
 9430TIP3    H149705   2.006   2.161   5.133  2.2691 -0.2092  2.9212
 9430TIP3    H249706   2.057   2.078   5.017 -0.7684  0.0150  1.3283
 9431TIP3   OH249707   6.200   6.699  16.120  0.3231 -0.2234 -0.2208
 9431TIP3    H149708   6.201   6.659  16.034  0.9339 -1.7930  0.4906
 9431TIP3    H249709   6.115   6.742  16.125  0.5724  0.5340 -1.8627
 9432TIP3   OH249710   5.938   2.716  15.968 -0.1218  0.2144  0.6771
 9432TIP3    H149711   6.008   2.705  15.904 -0.7638 -0.4725  0.0600
 9432TIP3    H249712   5.869   2.656  15.938 -1.3133  1.4836  0.7808
 9433TIP3   OH249713   0.152   0.081  16.166 -0.1693  0.0296 -0.1422
 9433TIP3    H149714   0.164   0.112  16.255 -3.1603 -1.7934  1.0399
 9433TIP3    H249715   0.058   0.087  16.151 -0.1992 -2.8545 -1.8982
 9434TIP3   OH249716   0.023   3.363   2.436 -0.0978  0.5893  0.0753
 9434TIP3    H149717  -0.033   3.441   2.435  0.4073  0.9577 -0.2713
 9434TIP3    H249718   0.089   3.381   2.369  0.1672 -0.0344  0.1680
 9435TIP3   OH249719   2.829   2.904  11.417 -0.0275  0.4674 -0.3583
 9435TIP3    H149720   2.853   2.840  11.484  1.9381  0.9148 -0.5864
 9435TIP3    H249721   2.753   2.866  11.373 -0.6893 -0.3367  1.3919
 9436TIP3   OH249722   0.820   1.370   1.690  0.6294 -0.1984 -0.1631
 9436TIP3    H149723   0.885   1.301   1.673 -0.8156 -1.3320 -1.4399
 9436TIP3    H249724   0.736   1.325   1.683 -0.4073  1.8147 -1.7775
 9437TIP3   OH249725   1.665   3.079   5.862  0.5202  0.1977  0.1129
 9437TIP3    H149726   1.649   3.076   5.768 -1.3009 -2.5507  0.3909
 9437TIP3    H249727   1.584   3.114   5.899  0.9657  0.5973  0.7412
 9438TIP3   OH249728   6.451   6.418  10.705 -0.5315 -0.3820 -0.0892
 9438TIP3    H149729   6.496   6.496  10.736 -1.6269  1.0841 -1.9819
 9438TIP3    H249730   6.409   6.381  10.782 -1.5345  1.9751  0.5570
 9439TIP3   OH249731   2.347   2.935   1.195  0.2652 -0.6493 -0.3620
 9439TIP3    H149732   2.278   2.883   1.237 -0.2671 -1.7422 -2.4323
 9439TIP3    H249733   2.332   3.024   1.227 -3.0362 -0.5513 -1.7393
 9440TIP3   OH249734   0.752   2.106  12.301 -0.2161  0.0205  0.1700
 9440TIP3    H149735   0.755   2.046  12.227  0.1166  0.8029 -0.4762
 9440TIP3    H249736   0.828   2.083  12.355 -1.2101 -1.4340  1.0082
 9441TIP3   OH249737   1.654   5.020   5.532  0.0143 -0.4119  0.0663
 9441TIP3    H149738   1.737   5.021   5.579  0.8905  2.2927 -1.3210
 9441TIP3    H249739   1.587   5.029   5.601  0.8135 -2.3364  1.1693
 9442TIP3   OH249740   3.014   2.858   3.399  0.3944  0.3413  0.1805
 9442TIP3    H149741   2.946   2.806   3.442 -0.5456 -1.2581 -2.9356
 9442TIP3    H249742   3.091   2.800   3.398  0.8643  0.9279  0.8833
 9443TIP3   OH249743   3.270   5.389   2.014 -0.6457  0.3659 -0.4338
 9443TIP3    H149744   3.298   5.466   2.064 -2.7188  1.9579 -1.5664
 9443TIP3    H249745   3.192   5.358   2.060  0.7371 -1.7981  0.6188
 9444TIP3   OH249746   4.934   2.405   4.499  0.9505 -0.2987 -0.1477
 9444TIP3    H149747   4.894   2.324   4.532  2.1800 -1.3835 -1.1905
 9444TIP3    H249748   4.993   2.376   4.430  0.5243  1.6423 -1.3919
 9445TIP3   OH249749   1.430   1.997   3.814 -0.1776 -0.3381  0.1570
 9445TIP3    H149750   1.338   2.016   3.796  0.2306  0.8451 -0.7997
 9445TIP3    H249751   1.430   1.960   3.903 -1.2643  2.3240  1.3644
 9446TIP3   OH249752   1.872   6.373  13.384  0.3304 -0.3977  0.0030
 9446TIP3    H149753   1.957   6.368  13.342  0.1839 -2.5146 -0.1720
 9446TIP3    H249754   1.816   6.314  13.333 -1.3160  1.0804  0.0014
 9447TIP3   OH249755   6.132   2.413   3.364 -0.2998  0.3158 -0.0571
 9447TIP3    H149756   6.096   2.336   3.318  0.8248 -0.3918  0.1955
 9447TIP3    H249757   6.070   2.483   3.346 -1.5703 -0.7457  0.0176
 9448TIP3   OH249758   2.619   0.164  13.227  0.4773 -0.2890 -0.6178
 9448TIP3    H149759   2.693   0.161  13.287 -1.4785  1.4265  2.0761
 9448TIP3    H249760   2.613   0.256  13.200 -2.5519  0.4255  1.9496
 9449TIP3   OH249761   4.045   6.611  15.728  0.1278 -0.5656  0.3527
 9449TIP3    H149762   3.981   6.546  15.758 -0.8014  0.9075  1.6636
 9449TIP3    H249763   4.024   6.623  15.635 -2.2664  0.6522  0.9667
 9450TIP3   OH249764   5.224   5.369   4.096 -0.2568 -0.6507 -0.4569
 9450TIP3    H149765   5.299   5.354   4.038 -0.1322  0.5326 -0.6272
 9450TIP3    H249766   5.152   5.392   4.037 -1.0085 -2.5688 -0.3589
 9451TIP3   OH249767   4.772   2.230  16.274  0.2332  0.4381  0.1431
 9451TIP3    H149768   4.735   2.204  16.190 -1.2970  2.3035  0.1775
 9451TIP3    H249769   4.801   2.321  16.261 -1.8943  1.5005  2.1112
 9452TIP3   OH249770   2.129   4.659   3.572 -0.3925  0.8696 -0.4973
 9452TIP3    H149771   2.144   4.654   3.478 -0.7294  0.2018 -0.5161
 9452TIP3    H249772   2.071   4.734   3.584 -2.5945 -0.6509 -1.1036
 9453TIP3   OH249773   4.414   6.185   3.752 -0.0452 -0.5672 -0.2877
 9453TIP3    H149774   4.509   6.179   3.767 -0.4104 -1.1502  2.2870
 9453TIP3    H249775   4.399   6.278   3.736  0.9671 -0.4599 -0.6936
 9454TIP3   OH249776   5.889   5.870  15.998  0.4133 -0.1272  0.2249
 9454TIP3    H149777   5.913   5.806  16.065 -0.9128  0.9245  1.7720
 9454TIP3    H249778   5.905   5.955  16.039  0.7737  0.5595 -1.2650
 9455TIP3   OH249779   6.293   1.151   5.906  0.7497  0.4282 -0.1904
 9455TIP3    H149780   6.273   1.065   5.870  3.1187 -0.1068 -0.4159
 9455TIP3    H249781   6.236   1.160   5.982 -0.8372 -0.5382 -1.2274
 9456TIP3   OH249782   6.429   6.429   5.332  0.1915  0.6245 -0.2114
 9456TIP3    H149783   6.522   6.447   5.338  0.0934  1.5474 -1.2638
 9456TIP3    H249784   6.416   6.390   5.246 -0.1301 -1.3869  0.6879
 9457TIP3   OH249785   4.079   3.769   2.185  0.1661  0.4187 -0.4854
 9457TIP3    H149786   4.030   3.691   2.157  0.2580 -0.1866  0.9454
 9457TIP3    H249787   4.154   3.772   2.127  0.2215 -0.6438 -0.4898
 9458TIP3   OH249788   2.545   3.917   2.419  0.3657 -0.1574 -0.1595
 9458TIP3    H149789   2.625   3.864   2.413  0.4219 -0.4313  2.0659
 9458TIP3    H249790   2.477   3.855   2.447 -0.0229  0.5327  0.4790
 9459TIP3   OH249791   6.488   2.344  15.535 -0.4417 -0.1120  0.2819
 9459TIP3    H149792   6.548   2.287  15.487 -0.0557  0.4339  0.1057
 9459TIP3    H249793   6.436   2.386  15.468 -0.2567  0.2591  0.3690
 9460TIP3   OH249794   4.034   5.455   5.327  0.0345 -0.1301 -0.0464
 9460TIP3    H149795   3.977   5.524   5.359  1.3119  1.8605 -1.7510
 9460TIP3    H249796   4.122   5.485   5.349  0.5820 -1.5923 -0.1650
 9461TIP3   OH249797   2.149   1.370  13.651 -0.5084  0.1434  0.1844
 9461TIP3    H149798   2.084   1.315  13.694  0.4467 -1.3598 -0.2211
 9461TIP3    H249799   2.213   1.309  13.614 -0.9419  1.3410 -2.8584
 9462TIP3   OH249800   6.590   3.190  11.031 -0.0152  0.4983  0.7399
 9462TIP3    H149801   6.522   3.255  11.015  0.6000  0.8079 -0.6748
 9462TIP3    H249802   6.661   3.239  11.072 -0.0287  0.4679  0.8008
 9463TIP3   OH249803   6.128   4.888   0.365  0.0605  0.4029 -0.1983
 9463TIP3    H149804   6.142   4.839   0.284 -1.9941 -0.2452 -0.2022
 9463TIP3    H249805   6.172   4.836   0.433  0.6371  0.2517 -0.6772
 9464TIP3   OH249806   1.095   4.622  11.821  0.0762  0.6994 -0.1951
 9464TIP3    H149807   1.117   4.542  11.869  1.1303  2.5735  2.7070
 9464TIP3    H249808   1.151   4.619  11.743 -0.1470 -1.4887 -0.3516
 9465TIP3   OH249809   3.464   0.319  16.802  0.4838 -0.2558 -0.3955
 9465TIP3    H149810   3.473   0.283  16.890  1.7925  0.9815  0.0142
 9465TIP3    H249811   3.545   0.295  16.757  0.1915 -0.1505 -0.9970
 9466TIP3   OH249812   5.203   4.229   6.628 -0.4596 -0.0185 -0.1363
 9466TIP3    H149813   5.248   4.152   6.662 -0.7122 -0.5239 -0.9321
 9466TIP3    H249814   5.125   4.195   6.584 -1.8089  0.8407  1.4498
 9467TIP3   OH249815   6.706   5.387  10.377 -0.5820  0.4291 -0.0647
 9467TIP3    H149816   6.655   5.460  10.341 -0.5469  0.7843  0.5858
 9467TIP3    H249817   6.694   5.393  10.472  2.9562  2.3310  0.4629
 9468TIP3   OH249818   5.465   0.632  16.207  0.2765 -0.1525 -0.5026
 9468TIP3    H149819   5.490   0.650  16.116  0.7605 -0.4817 -0.4380
 9468TIP3    H249820   5.438   0.717  16.241  2.0800  0.3938 -0.3364
 9469TIP3   OH249821   5.467   3.829  15.687 -0.6729 -0.1001 -0.7788
 9469TIP3    H149822   5.456   3.737  15.711 -1.3263  0.8357  3.2729
 9469TIP3    H249823   5.379   3.858  15.662 -0.6830 -0.2866 -0.9636
 9470TIP3   OH249824   5.530   4.036  13.059  0.3570  0.3147  0.1185
 9470TIP3    H149825   5.547   4.116  13.009  1.7796  1.7547  2.6886
 9470TIP3    H249826   5.609   3.983  13.047  1.4492  1.3961  1.9880
 9471TIP3   OH249827   1.214   0.098   0.794 -0.2418 -0.5374  0.0989
 9471TIP3    H149828   1.203   0.160   0.866  0.6897  1.1075 -1.1320
 9471TIP3    H249829   1.127   0.089   0.756 -0.4201 -0.1753  0.4137
 9472TIP3   OH249830   6.140   1.795  11.695 -0.8060 -0.0890 -0.4126
 9472TIP3    H149831   6.162   1.817  11.785 -1.0007  2.1001 -0.8266
 9472TIP3    H249832   6.051   1.828  11.683 -0.2845  0.9645 -1.7568
 9473TIP3   OH249833   5.158   0.627  11.209  0.5210  0.2829 -0.6988
 9473TIP3    H149834   5.104   0.694  11.250 -0.5815 -0.2140 -1.3155
 9473TIP3    H249835   5.221   0.602  11.277 -0.1788  0.6958  0.1103
 9474TIP3   OH249836   4.800   5.439   0.287  0.0771 -0.3985 -0.4778
 9474TIP3    H149837   4.777   5.355   0.246  0.3641 -0.9458  0.4519
 9474TIP3    H249838   4.757   5.505   0.232 -1.3484 -1.2299 -0.4050
 9475TIP3   OH249839   0.885   2.729  12.597 -0.2986 -0.4102  0.0072
 9475TIP3    H149840   0.908   2.815  12.561 -1.6179  0.2352  0.6614
 9475TIP3    H249841   0.921   2.730  12.686 -0.2542 -0.5742 -0.0080
 9476TIP3   OH249842   2.537   1.179  13.285 -0.4661 -0.1715  0.0220
 9476TIP3    H149843   2.580   1.147  13.364  3.3461  1.0345 -1.3465
 9476TIP3    H249844   2.483   1.106  13.256  0.3250 -1.7055  2.1549
 9477TIP3   OH249845   4.857   6.572  12.888  0.0863 -0.4009 -0.7679
 9477TIP3    H149846   4.871   6.493  12.836 -0.6363 -1.0036 -0.0949
 9477TIP3    H249847   4.861   6.644  12.826  2.4968 -0.7901 -1.1379
 9478TIP3   OH249848   2.674   0.035   5.826 -0.1010 -0.1136  0.1933
 9478TIP3    H149849   2.716   0.105   5.876  1.6998 -1.1177  0.1725
 9478TIP3    H249850   2.587   0.027   5.864  0.6898  0.1453  2.1821
 9479TIP3   OH249851   4.822   1.772  12.008  0.1203  0.2478 -0.6501
 9479TIP3    H149852   4.914   1.777  12.033 -0.3660 -0.4364  1.4880
 9479TIP3    H249853   4.776   1.751  12.090 -2.0867  1.8053 -1.3917
 9480TIP3   OH249854   6.738   0.825  14.622 -0.0509 -0.3451  0.8881
 9480TIP3    H149855   6.676   0.876  14.570 -0.0105 -0.0111  1.1660
 9480TIP3    H249856   6.821   0.831  14.575  0.1362  0.4743  1.3147
 9481TIP3   OH249857   5.919   6.363  16.608  0.8002  0.4077  0.6825
 9481TIP3    H149858   5.847   6.325  16.559  0.6572  0.7931  0.5917
 9481TIP3    H249859   5.910   6.326  16.696  1.2504 -0.5322  0.3394
 9482TIP3   OH249860   4.559   4.228  16.363 -0.0177 -0.0494 -0.3219
 9482TIP3    H149861   4.551   4.178  16.444 -0.4930 -4.1377 -2.5737
 9482TIP3    H249862   4.639   4.280  16.374 -0.6798  0.4531  3.0806
 9483TIP3   OH249863   2.844   3.559  15.429  0.5591  0.3047  0.8348
 9483TIP3    H149864   2.824   3.620  15.357  1.2310 -0.1302  0.2629
 9483TIP3    H249865   2.933   3.581  15.455 -0.0639  1.2298  2.3480
 9484TIP3   OH249866   5.254   3.767   2.225 -0.0312  0.4020 -0.5312
 9484TIP3    H149867   5.172   3.727   2.254 -0.1424  2.1060  1.8685
 9484TIP3    H249868   5.230   3.858   2.204  1.2153  0.9867  0.4172
 9485TIP3   OH249869   4.539   4.875   2.888  0.0775 -0.6148  0.5094
 9485TIP3    H149870   4.538   4.784   2.859 -0.0433 -0.6384  0.5849
 9485TIP3    H249871   4.624   4.886   2.931  1.3510  0.1188 -2.0156
 9486TIP3   OH249872   0.540   3.854  15.135  0.6720  0.2959 -0.0156
 9486TIP3    H149873   0.521   3.930  15.081  0.2431  1.5199  1.7482
 9486TIP3    H249874   0.459   3.839  15.185  1.3432 -0.1592  0.9795
 9487TIP3   OH249875   4.798   6.349   2.461  0.0977 -0.4652  0.0172
 9487TIP3    H149876   4.755   6.432   2.485  0.4575 -0.3967  0.4379
 9487TIP3    H249877   4.773   6.335   2.370 -2.0927 -1.2183  0.6789
 9488TIP3   OH249878   1.054   4.535  14.853  0.3838 -0.7545  0.3033
 9488TIP3    H149879   1.013   4.502  14.933 -0.0561 -2.3654 -0.5303
 9488TIP3    H249880   1.133   4.581  14.883 -0.5851  0.0317  1.7428
 9489TIP3   OH249881   1.632   0.871  16.740  0.0079  0.4667  0.0271
 9489TIP3    H149882   1.673   0.786  16.754 -1.0240 -0.1544 -0.6342
 9489TIP3    H249883   1.700   0.923  16.696  0.8724  0.2248  1.0279
 9490TIP3   OH249884   4.019   4.337   5.807 -0.1792 -0.2947  0.4662
 9490TIP3    H149885   4.017   4.252   5.851 -0.4745 -0.1721  0.6941
 9490TIP3    H249886   4.028   4.317   5.714  3.0304 -0.5420  0.7252
 9491TIP3   OH249887   3.045   0.274   3.718 -0.0884  0.7865 -0.1857
 9491TIP3    H149888   2.983   0.246   3.785 -1.1040 -0.6563 -1.6561
 9491TIP3    H249889   3.128   0.234   3.743 -0.4677  0.2216  0.1739
 9492TIP3   OH249890   3.636   4.613   2.428 -0.6074 -0.0045 -0.0068
 9492TIP3    H149891   3.581   4.553   2.377  0.5146 -0.7695 -0.3468
 9492TIP3    H249892   3.672   4.559   2.498 -2.3236  1.0894  1.8244
 9493TIP3   OH249893   6.357   5.475  14.793 -0.1887  0.0451 -0.1186
 9493TIP3    H149894   6.304   5.504  14.868 -0.5838 -0.0823 -0.3436
 9493TIP3    H249895   6.368   5.381  14.807  0.7120  0.2113  0.3760
 9494TIP3   OH249896   4.394   6.528  15.657  0.0356  0.2721  0.2313
 9494TIP3    H149897   4.339   6.585  15.603  1.9643  1.5667 -0.4846
 9494TIP3    H249898   4.404   6.576  15.740 -0.0047 -0.0132  0.4018
 9495TIP3   OH249899   6.175   1.567   2.753 -0.6550  0.1855  0.1789
 9495TIP3    H149900   6.085   1.568   2.785 -1.5505  0.7515 -2.1124
 9495TIP3    H249901   6.166   1.568   2.657  1.7398 -3.8441 -0.3152
 9496TIP3   OH249902   5.336   3.861   5.639  0.1805 -0.2109  0.5873
 9496TIP3    H149903   5.338   3.893   5.729  0.7343  0.2310  0.4233
 9496TIP3    H249904   5.382   3.928   5.588  0.7431 -0.9271  0.1272
 9497TIP3   OH249905   3.002   5.599  17.077  0.5826 -0.1675 -0.4948
 9497TIP3    H149906   3.033   5.663  17.013 -0.0686 -0.8386 -1.5236
 9497TIP3    H249907   2.976   5.651  17.153  0.7331  0.7208 -1.0393
 9498TIP3   OH249908   4.349   5.070  13.150  0.4367  0.1044  0.1442
 9498TIP3    H149909   4.367   5.139  13.214 -2.0262 -0.8625  2.0401
 9498TIP3    H249910   4.430   5.064  13.099  1.2448  3.4105  0.7509
 9499TIP3   OH249911   5.644   5.717   1.196 -0.3266 -0.6113 -0.3615
 9499TIP3    H149912   5.738   5.725   1.177 -0.1446 -1.0576  0.2903
 9499TIP3    H249913   5.620   5.803   1.231 -0.0982 -0.5733 -0.2917
 9500TIP3   OH249914   2.787   3.501  12.074 -0.3572 -0.0433 -0.2116
 9500TIP3    H149915   2.731   3.428  12.049 -0.0130 -0.6340  0.6753
 9500TIP3    H249916   2.869   3.460  12.101 -0.6075  0.5423  1.5663
 9501TIP3   OH249917   1.094   0.114   6.065  0.0495 -0.2631 -0.5659
 9501TIP3    H149918   1.114   0.205   6.043  0.8400 -0.1955  0.3868
 9501TIP3    H249919   1.114   0.065   5.985  0.4974  0.2885 -0.7976
 9502TIP3   OH249920   4.947   4.879   2.527 -0.3229 -0.4352 -0.0753
 9502TIP3    H149921   4.962   4.884   2.622 -0.4540 -2.4749  0.0990
 9502TIP3    H249922   5.021   4.829   2.494 -0.6296 -0.3157 -0.9581
 9503TIP3   OH249923   3.820   6.120   1.841  0.2655 -0.3719 -0.5431
 9503TIP3    H149924   3.858   6.111   1.928 -0.0614 -0.7393 -0.4342
 9503TIP3    H249925   3.752   6.052   1.837 -1.2210  1.0541 -0.2864
 9504TIP3   OH249926   5.762   4.685   1.152  0.6814  0.0873  0.5088
 9504TIP3    H149927   5.722   4.653   1.071  0.1107  1.4377  0.2270
 9504TIP3    H249928   5.856   4.680   1.136  0.5748  0.9251 -0.4921
 9505TIP3   OH249929   0.324   1.305   3.249 -0.0286  0.4274 -0.3399
 9505TIP3    H149930   0.338   1.226   3.197 -0.4760 -0.0850  0.3068
 9505TIP3    H249931   0.297   1.371   3.186  1.9586  0.5370 -1.1437
 9506TIP3   OH249932   2.448   1.608   5.152 -0.4061  0.2493 -0.2002
 9506TIP3    H149933   2.391   1.601   5.076  1.4329  0.3939 -1.6458
 9506TIP3    H249934   2.391   1.643   5.221 -1.6554  2.1150 -2.0482
 9507TIP3   OH249935   6.107   0.102   2.565 -0.1418 -0.0404  0.0465
 9507TIP3    H149936   6.121   0.197   2.561 -1.2795  0.2988  2.2294
 9507TIP3    H249937   6.067   0.080   2.481 -0.3132  1.5227 -0.3050
 9508TIP3   OH249938   1.853   6.788  14.329 -0.7272 -0.2561  0.1310
 9508TIP3    H149939   1.818   6.877  14.325  0.8256  0.3507 -0.5984
 9508TIP3    H249940   1.784   6.738  14.373 -1.9175  1.1485 -0.0460
 9509TIP3   OH249941   6.325   5.994   4.305  0.2241 -0.2853  0.1043
 9509TIP3    H149942   6.365   5.907   4.306  2.7235  0.7830  1.0033
 9509TIP3    H249943   6.255   5.990   4.370  0.4966 -1.5459  0.3348
 9510TIP3   OH249944   4.891   6.556   4.116  0.3634  0.3171 -0.2732
 9510TIP3    H149945   4.884   6.645   4.151 -0.3995 -0.2027  0.9717
 9510TIP3    H249946   4.944   6.509   4.180  1.5511  0.0860 -1.3977
 9511TIP3   OH249947   4.520   0.435   1.779 -0.5286  0.3804 -0.6388
 9511TIP3    H149948   4.572   0.508   1.812  0.8149 -0.7767 -0.0992
 9511TIP3    H249949   4.472   0.402   1.855  2.3059 -2.0673  0.3033
 9512TIP3   OH249950   2.395   6.103  14.508 -0.6570 -0.1227 -0.4834
 9512TIP3    H149951   2.442   6.035  14.459 -1.9411 -1.9315  0.6691
 9512TIP3    H249952   2.303   6.092  14.482 -0.8021  1.6705 -0.8083
 9513TIP3   OH249953   1.334   4.642  14.810 -0.5009  0.2121 -0.1202
 9513TIP3    H149954   1.419   4.652  14.852 -0.8882 -0.7263  0.9395
 9513TIP3    H249955   1.297   4.731  14.810 -0.2048  0.3494  0.9166
 9514TIP3   OH249956   0.439   1.610  14.924 -0.2211 -0.3855  0.1711
 9514TIP3    H149957   0.374   1.680  14.936  1.6142  1.2000  1.4885
 9514TIP3    H249958   0.519   1.656  14.900  0.8334 -2.1268  0.2334
 9515TIP3   OH249959   2.900   4.247   4.122  0.1548  0.0638 -0.4916
 9515TIP3    H149960   2.875   4.155   4.133  0.4433  0.0641  0.2436
 9515TIP3    H249961   2.891   4.264   4.028 -0.4271 -0.5616 -0.5554
 9516TIP3   OH249962   1.718   6.629   1.976  0.0803 -0.2324 -0.0320
 9516TIP3    H149963   1.722   6.580   1.894 -2.1259  1.0725 -1.0126
 9516TIP3    H249964   1.633   6.673   1.974  1.1837  2.2315  1.5556
 9517TIP3   OH249965   3.957   2.167   5.695 -0.2909 -0.2054 -0.3084
 9517TIP3    H149966   3.936   2.151   5.603 -1.2944  0.3698 -0.1960
 9517TIP3    H249967   4.051   2.186   5.696 -0.4970  0.9791 -1.3831
 9518TIP3   OH249968   1.340   1.959   5.324  0.3498  0.2661 -0.2344
 9518TIP3    H149969   1.368   1.966   5.233  1.6550 -0.0342  0.1226
 9518TIP3    H249970   1.250   1.993   5.325 -0.9282 -2.6569 -2.1930
 9519TIP3   OH249971   6.264   0.216   4.956  0.0780 -0.7799 -0.1748
 9519TIP3    H149972   6.277   0.283   4.888 -0.8732 -1.2809 -0.8665
 9519TIP3    H249973   6.250   0.267   5.036  1.6534 -0.1833 -0.2333
 9520TIP3   OH249974   0.089   4.570  15.020  0.7363 -0.1481 -0.2613
 9520TIP3    H149975   0.036   4.632  14.971 -0.3197 -0.4990  0.4071
 9520TIP3    H249976   0.035   4.546  15.095  1.8689 -0.4784  0.4659
 9521TIP3   OH249977   3.116   5.857  12.101 -0.3915 -0.4185 -0.2509
 9521TIP3    H149978   3.095   5.879  12.010  1.1778  0.8615 -0.3416
 9521TIP3    H249979   3.150   5.939  12.138 -0.5556 -1.0491  1.3616
 9522TIP3   OH249980   3.101   1.833   2.537  0.5323 -0.3000 -0.8375
 9522TIP3    H149981   3.081   1.757   2.483  0.6678 -1.7622  1.0618
 9522TIP3    H249982   3.018   1.855   2.580  1.0119 -0.9426  0.4687
 9523TIP3   OH249983   5.009   6.112  12.775 -0.2716 -0.3361  0.3572
 9523TIP3    H149984   5.104   6.120  12.763 -0.0249 -3.3239 -0.3417
 9523TIP3    H249985   4.975   6.197  12.747  2.1484  0.6622  0.1750
 9524TIP3   OH249986   0.982   5.640   2.500  0.0406 -0.0694  0.0388
 9524TIP3    H149987   0.911   5.578   2.485 -1.5884  1.8594 -0.6302
 9524TIP3    H249988   1.046   5.620   2.431 -1.6916  0.6879 -1.8600
 9525TIP3   OH249989   1.183   1.739  13.303  0.3347  0.0053 -0.3458
 9525TIP3    H149990   1.182   1.788  13.385 -1.2350  0.8095 -0.8095
 9525TIP3    H249991   1.193   1.647  13.330 -1.3065  0.1304  0.8509
 9526TIP3   OH249992   2.124   5.860  14.292 -0.2487  0.4162  0.3233
 9526TIP3    H149993   2.211   5.828  14.316 -0.1145  0.3590 -0.2350
 9526TIP3    H249994   2.071   5.846  14.370 -0.2109 -1.2101  0.0810
 9527TIP3   OH249995   3.957   1.437   1.392  0.0378 -0.1805  0.3257
 9527TIP3    H149996   3.919   1.483   1.317  0.2831 -0.1441  0.2228
 9527TIP3    H249997   4.034   1.393   1.356  1.5570  1.7845  1.0539
 9528TIP3   OH249998   3.328   2.386  16.198 -0.6166 -0.7183 -0.0442
 9528TIP3    H149999   3.253   2.357  16.250 -0.4000 -3.9749 -1.3280
 9528TIP3    H250000   3.327   2.330  16.121  2.5861 -0.2400 -0.5637
 9529TIP3   OH250001   3.204   5.502   0.044 -0.6053 -0.0016 -0.8262
 9529TIP3    H150002   3.145   5.551   0.101 -0.1896 -0.1650 -0.2361
 9529TIP3    H250003   3.267   5.567   0.013 -0.0306 -0.1482 -0.0122
 9530TIP3   OH250004   6.075   0.920  11.009  0.4255  0.1700  0.0132
 9530TIP3    H150005   5.997   0.975  11.017 -0.0443 -0.5160  0.2672
 9530TIP3    H250006   6.098   0.897  11.099 -2.0637 -3.6908 -0.0681
 9531TIP3   OH250007   1.050   1.316  13.121  0.0431  0.5471  0.2194
 9531TIP3    H150008   1.112   1.324  13.048  0.7452 -0.8369  0.6364
 9531TIP3    H250009   0.964   1.310  13.079  0.2035  1.9943 -0.3865
 9532TIP3   OH250010   1.958   5.735  11.732 -0.4454 -0.3521  0.9373
 9532TIP3    H150011   1.879   5.711  11.780 -0.7891  0.0049  0.5619
 9532TIP3    H250012   1.926   5.765  11.646  0.0268  0.5525  1.0574
 9533TIP3   OH250013   3.730   1.477  10.815  0.1057 -0.0970  0.2179
 9533TIP3    H150014   3.806   1.452  10.763 -0.1465  0.1386 -0.2779
 9533TIP3    H250015   3.757   1.464  10.906  0.7340 -0.0163  0.0485
 9534TIP3   OH250016   4.343   5.774  13.951 -0.1631 -0.2146  0.1887
 9534TIP3    H150017   4.435   5.758  13.969  0.0286  1.9064  1.3950
 9534TIP3    H250018   4.335   5.764  13.856  1.6619  1.0047 -0.1445
 9535TIP3   OH250019   3.227   3.521  15.850 -0.0896 -0.0571 -0.2567
 9535TIP3    H150020   3.226   3.528  15.945  0.5926  0.4520 -0.2808
 9535TIP3    H250021   3.136   3.502  15.826 -0.2615 -0.1900  0.4912
 9536TIP3   OH250022   1.621   0.314  16.941  0.0638 -0.3524  0.0928
 9536TIP3    H150023   1.632   0.272  17.026 -2.1903 -2.5873 -0.5823
 9536TIP3    H250024   1.663   0.253  16.880 -0.5054 -0.0304 -0.6285
 9537TIP3   OH250025   3.926   3.027  15.617 -0.4149 -0.5672  0.0680
 9537TIP3    H150026   3.966   3.113  15.624 -0.4394 -0.6177  0.9688
 9537TIP3    H250027   3.992   2.973  15.575 -0.1995 -0.2351 -0.0254
 9538TIP3   OH250028   2.904   5.756  12.269 -0.6868  0.4152  0.3533
 9538TIP3    H150029   2.980   5.807  12.242  1.3436 -2.8444 -0.5907
 9538TIP3    H250030   2.889   5.781  12.360  0.6827  2.0476  0.1801
 9539TIP3   OH250031   0.468   5.275   0.689 -0.9188 -0.3166  0.0399
 9539TIP3    H150032   0.383   5.261   0.730 -0.5605  0.9536  1.2865
 9539TIP3    H250033   0.530   5.227   0.743 -0.4965  1.0238  0.7871
 9540TIP3   OH250034   4.905   4.267  10.993 -1.1364  0.3756 -0.0994
 9540TIP3    H150035   4.837   4.203  11.013 -1.0149  0.3584  0.2534
 9540TIP3    H250036   4.923   4.310  11.076 -0.0494 -0.2595  0.0163
 9541TIP3   OH250037   3.790   3.935  13.374  0.0867  0.2415 -0.1025
 9541TIP3    H150038   3.785   3.901  13.285 -2.0983 -1.5371  0.6049
 9541TIP3    H250039   3.877   3.975  13.380  1.6365 -2.4994 -2.0514
 9542TIP3   OH250040   6.697   5.196  17.182 -0.6779  0.0785 -0.2426
 9542TIP3    H150041   6.773   5.219  17.129  0.0217 -0.1832  0.6248
 9542TIP3    H250042   6.652   5.128  17.132  0.0326 -0.2413 -0.4595
 9543TIP3   OH250043   2.958   5.730   4.358 -0.6158 -0.0059  0.0482
 9543TIP3    H150044   2.926   5.651   4.403 -1.5572  0.8306  0.9181
 9543TIP3    H250045   2.878   5.778   4.335 -0.0564  1.5020  1.0637
 9544TIP3   OH250046   0.682   3.289   3.028  0.0995  0.5588  0.0948
 9544TIP3    H150047   0.767   3.284   2.984 -0.6190 -1.8565 -1.1767
 9544TIP3    H250048   0.656   3.380   3.017  2.2018  1.2091 -0.0782
 9545TIP3   OH250049   6.581   3.817  11.298  0.9162  0.2018  0.0724
 9545TIP3    H150050   6.595   3.883  11.230 -0.5239  1.0529  0.5602
 9545TIP3    H250051   6.589   3.733  11.253 -2.6831  0.6840 -1.8240
 9546TIP3   OH250052   2.735   2.637   4.018 -0.3355 -0.5682 -0.1117
 9546TIP3    H150053   2.797   2.584   4.067 -0.5953 -0.4775  0.3136
 9546TIP3    H250054   2.682   2.574   3.969 -1.3904 -0.7715  1.2593
 9547TIP3   OH250055   1.513   2.596  12.656 -0.0474 -0.0243  0.1551
 9547TIP3    H150056   1.597   2.554  12.675  0.0569 -1.1763 -2.4820
 9547TIP3    H250057   1.450   2.547  12.710  0.4682 -1.7768 -0.7627
 9548TIP3   OH250058   1.502   5.342   4.030  0.4668  0.3254 -0.5675
 9548TIP3    H150059   1.566   5.412   4.016 -1.7749  2.5046 -0.5293
 9548TIP3    H250060   1.491   5.339   4.125  3.2944 -2.8332 -0.1580
 9549TIP3   OH250061   5.232   2.777  12.782  0.2978 -0.4615 -0.3614
 9549TIP3    H150062   5.178   2.823  12.717  1.9533 -1.0412 -2.2621
 9549TIP3    H250063   5.214   2.685  12.767 -2.0181 -0.6518  2.5626
 9550TIP3   OH250064   2.087   2.863  14.871 -0.4114 -0.4568 -0.2673
 9550TIP3    H150065   2.046   2.940  14.832 -0.6181 -0.4997 -0.1374
 9550TIP3    H250066   2.181   2.880  14.865 -0.3980 -0.8783 -1.6297
 9551TIP3   OH250067   0.395   3.113   5.991  0.0635  0.0564 -0.3183
 9551TIP3    H150068   0.379   3.173   6.064  0.1795  0.1729 -0.3866
 9551TIP3    H250069   0.461   3.052   6.024 -1.3063 -1.1103  0.3398
 9552TIP3   OH250070   2.830   5.615  11.907  0.4899  0.4057  0.1942
 9552TIP3    H150071   2.775   5.537  11.898 -0.8896  1.4681 -1.2697
 9552TIP3    H250072   2.827   5.656  11.820  1.5109  1.8674  0.8152
 9553TIP3   OH250073   0.110   2.957  12.036 -0.0642 -0.2216 -0.1016
 9553TIP3    H150074   0.153   2.997  11.960  0.2735 -1.6794 -0.7059
 9553TIP3    H250075   0.019   2.945  12.009 -0.1391  0.0259  0.0376
 9554TIP3   OH250076   5.460   0.743   0.845 -0.2118  0.2698  0.2408
 9554TIP3    H150077   5.471   0.768   0.753  0.9713 -0.2145  0.2292
 9554TIP3    H250078   5.524   0.673   0.858 -2.0693 -1.4292  0.7729
 9555TIP3   OH250079   6.453   1.532   0.696 -0.1610 -0.6085 -0.4048
 9555TIP3    H150080   6.460   1.501   0.606 -0.3143 -0.5593 -0.4326
 9555TIP3    H250081   6.531   1.587   0.708 -0.9558  0.6977 -1.0130
 9556TIP3   OH250082   2.825   2.278   5.608 -0.0556  0.2182  0.1133
 9556TIP3    H150083   2.918   2.294   5.624 -0.2620  1.3470  0.2840
 9556TIP3    H250084   2.804   2.200   5.660  0.7052  0.1785  0.3684
 9557TIP3   OH250085   5.464   0.733  15.941  0.2212  0.1936 -0.3448
 9557TIP3    H150086   5.560   0.743  15.939  0.0384  2.3029 -0.8058
 9557TIP3    H250087   5.431   0.817  15.910 -1.8296  0.4468  2.2300
 9558TIP3   OH250088   4.246   1.195   3.963  0.1243 -0.3333 -0.1118
 9558TIP3    H150089   4.246   1.116   3.909 -1.4226  0.3156 -1.1260
 9558TIP3    H250090   4.331   1.236   3.944  0.0059 -0.6029 -1.3529
 9559TIP3   OH250091   4.140   5.066  14.210 -0.2982  0.0098  0.1078
 9559TIP3    H150092   4.056   5.022  14.199 -0.0413 -0.3309 -0.5737
 9559TIP3    H250093   4.171   5.038  14.296 -0.7374 -0.1104  0.2302
 9560TIP3   OH250094   0.823   3.487  16.372  0.5247  0.8792  0.6572
 9560TIP3    H150095   0.846   3.394  16.381 -1.9780  0.2407  1.4684
 9560TIP3    H250096   0.898   3.534  16.408  2.5237 -0.7087 -1.1690
 9561TIP3   OH250097   2.576   3.154   1.367  0.1580 -0.1372  0.3211
 9561TIP3    H150098   2.555   3.105   1.447 -0.3835 -0.0163  0.2603
 9561TIP3    H250099   2.654   3.204   1.389 -1.4318  1.9111  1.6598
 9562TIP3   OH250100   3.444   6.325   6.423  0.3497  0.1856 -0.0688
 9562TIP3    H150101   3.483   6.266   6.488  0.7247  1.0568  0.5135
 9562TIP3    H250102   3.404   6.395   6.475  0.6585  0.8939 -0.7637
 9563TIP3   OH250103   3.768   2.376  12.736  0.1346  0.4416 -0.3477
 9563TIP3    H150104   3.854   2.335  12.728  0.7256  1.6028 -0.2247
 9563TIP3    H250105   3.711   2.322  12.682  1.3252  0.7174 -1.9631
 9564TIP3   OH250106   5.790   2.519  12.809  0.0163 -0.0943 -0.4895
 9564TIP3    H150107   5.771   2.426  12.799  0.1395 -0.1270 -0.4245
 9564TIP3    H250108   5.885   2.526  12.802  0.4436 -0.4604  2.8958
 9565TIP3   OH250109   2.510   5.794  11.039  0.7479 -0.0958  0.1130
 9565TIP3    H150110   2.448   5.728  11.009 -0.0560 -0.1907  1.8358
 9565TIP3    H250111   2.548   5.830  10.959 -0.2067 -1.2981 -0.9206
 9566TIP3   OH250112   2.939   4.262  15.864 -0.5459 -0.5242 -0.1559
 9566TIP3    H150113   2.959   4.314  15.941  0.2705 -1.0644  0.0018
 9566TIP3    H250114   2.987   4.304  15.793  1.1291 -1.7650  0.2046
 9567TIP3   OH250115   0.984   4.261   1.053  0.1651  0.8969  0.0401
 9567TIP3    H150116   0.900   4.277   1.095  0.7244  2.1823  0.7402
 9567TIP3    H250117   0.965   4.257   0.959 -0.7668  0.4077  0.2446
 9568TIP3   OH250118   2.717   6.787   4.576 -0.1723  0.2722  0.0263
 9568TIP3    H150119   2.625   6.763   4.570  0.0392 -0.2027 -2.3783
 9568TIP3    H250120   2.718   6.862   4.635 -1.4413 -2.4565  3.9967
 9569TIP3   OH250121   1.367   1.999  14.628 -0.0200  0.0919  0.1106
 9569TIP3    H150122   1.394   2.068  14.688 -0.0087 -0.3634  0.6342
 9569TIP3    H250123   1.281   1.971  14.661  0.3699 -0.7553  0.4458
 9570TIP3   OH250124   4.458   4.787   4.834  0.1701 -0.1451  0.1415
 9570TIP3    H150125   4.377   4.827   4.865 -0.0108  1.3135 -2.0273
 9570TIP3    H250126   4.525   4.855   4.848  0.5374 -0.3972 -0.3660
 9571TIP3   OH250127   2.607   6.321  14.503  0.7728  0.4762  0.0695
 9571TIP3    H150128   2.565   6.242  14.536  1.3142  0.8013  1.5787
 9571TIP3    H250129   2.582   6.324  14.410  1.4600 -1.9189 -0.2546
 9572TIP3   OH250130   4.728   3.935   0.041  0.2323  0.3859 -0.5006
 9572TIP3    H150131   4.712   3.910   0.132 -0.8897  2.7791  0.0475
 9572TIP3    H250132   4.705   3.857  -0.010  1.2598 -1.1312  1.2512
 9573TIP3   OH250133   6.691   5.573   3.517 -0.3133  0.9215 -0.1085
 9573TIP3    H150134   6.660   5.634   3.449 -0.1784  0.7289 -0.3448
 9573TIP3    H250135   6.785   5.589   3.521 -0.3956  1.3243  0.4271
 9574TIP3   OH250136   1.352   2.490   0.808 -0.4816  0.1910  0.3164
 9574TIP3    H150137   1.294   2.413   0.806 -0.9680  0.5621 -0.0745
 9574TIP3    H250138   1.390   2.492   0.720  0.6149 -0.4080  0.7553
 9575TIP3   OH250139   3.231   6.215  11.047 -0.1753  0.1604 -0.6943
 9575TIP3    H150140   3.226   6.281  11.116  0.0254  1.4172 -1.8554
 9575TIP3    H250141   3.317   6.175  11.058 -1.0690 -1.4060  1.2984
 9576TIP3   OH250142   3.627   2.468  11.091 -0.0059 -0.1333 -0.3026
 9576TIP3    H150143   3.607   2.481  10.998  0.2114 -3.1171 -0.8534
 9576TIP3    H250144   3.545   2.442  11.131  0.0472  0.4771  0.2213
 9577TIP3   OH250145   2.207   2.457   5.047 -0.3618 -0.2460  0.9782
 9577TIP3    H150146   2.152   2.483   4.973  0.1330 -0.2491  0.6049
 9577TIP3    H250147   2.148   2.409   5.106 -1.5940  2.4844  2.1634
 9578TIP3   OH250148   5.649   5.168   2.465 -0.0955  0.4962  0.2043
 9578TIP3    H150149   5.598   5.139   2.541  1.4593 -0.3497  0.9721
 9578TIP3    H250150   5.591   5.152   2.391 -0.1549 -2.7610  0.7798
 9579TIP3   OH250151   2.168   0.199   0.179 -0.2557  0.5587  0.9012
 9579TIP3    H150152   2.226   0.132   0.144 -1.3893  0.1353 -0.2543
 9579TIP3    H250153   2.175   0.272   0.116 -1.1281  0.4032  0.5997
 9580TIP3   OH250154   4.350   2.175  16.230 -1.3074  0.3742  0.1513
 9580TIP3    H150155   4.384   2.097  16.186  0.1269  1.1274 -0.1355
 9580TIP3    H250156   4.421   2.238  16.225 -2.5007  1.7839  0.2079
 9581TIP3   OH250157   1.199   1.851   2.329  0.1739 -0.1672  0.3739
 9581TIP3    H150158   1.291   1.856   2.301 -0.0055  0.0020 -0.2088
 9581TIP3    H250159   1.180   1.939   2.362 -0.3233  0.4093 -1.3132
 9582TIP3   OH250160   2.786   1.418   4.363 -0.2871  0.0119 -0.1097
 9582TIP3    H150161   2.865   1.405   4.416  0.6692 -0.0558 -1.4726
 9582TIP3    H250162   2.729   1.472   4.418  0.4644 -0.4204  1.1395
 9583TIP3   OH250163   3.488   2.608   5.525  0.1643  0.1626 -0.3605
 9583TIP3    H150164   3.479   2.699   5.553 -1.8545  0.4003 -1.5702
 9583TIP3    H250165   3.462   2.609   5.433 -0.1046 -1.6688 -0.3290
 9584TIP3   OH250166   3.854   2.568   1.025  0.8060 -0.1569 -0.5014
 9584TIP3    H150167   3.915   2.568   1.098  0.6066 -0.7731 -0.3308
 9584TIP3    H250168   3.850   2.477   0.997 -2.2903 -0.7628  1.3963
 9585TIP3   OH250169   5.146   6.292  13.151  0.1803  0.4591 -0.0595
 9585TIP3    H150170   5.109   6.248  13.228 -0.4566  1.4691  0.2237
 9585TIP3    H250171   5.238   6.268  13.152  0.4132  1.3020  1.6297
 9586TIP3   OH250172   2.504   0.750   3.532  0.0085  0.1814  0.0639
 9586TIP3    H150173   2.527   0.735   3.441  0.3362 -0.3114  0.2247
 9586TIP3    H250174   2.579   0.797   3.569 -0.9405  2.1618 -0.3954
 9587TIP3   OH250175   4.874   4.481  10.472  0.0488 -0.2554 -0.5777
 9587TIP3    H150176   4.953   4.532  10.452  0.1967 -0.1845  0.1361
 9587TIP3    H250177   4.832   4.530  10.543 -0.1959 -0.7391 -0.3838
 9588TIP3   OH250178   2.721   6.688  15.625 -0.7590 -0.1633  0.2627
 9588TIP3    H150179   2.764   6.730  15.699  0.9655 -0.6307 -0.4129
 9588TIP3    H250180   2.702   6.760  15.564 -0.9481  0.0517  0.5750
 9589TIP3   OH250181   5.748   5.696  15.159 -0.6614 -0.0533  0.2410
 9589TIP3    H150182   5.733   5.747  15.080  1.8674 -0.8116 -0.8350
 9589TIP3    H250183   5.691   5.619  15.149 -2.0497  0.9312  0.3102
 9590TIP3   OH250184   6.383   1.649   2.887 -0.3147 -0.0441  0.6781
 9590TIP3    H150185   6.348   1.662   2.975 -0.3657  1.0870  0.5078
 9590TIP3    H250186   6.305   1.638   2.832 -0.2677 -1.3307  0.8428
 9591TIP3   OH250187   3.130   5.172   4.900  0.0504  0.8450  0.3551
 9591TIP3    H150188   3.065   5.240   4.916 -1.0623 -0.1486  0.2296
 9591TIP3    H250189   3.138   5.168   4.804 -0.5923  0.1837  0.3184
 9592TIP3   OH250190   5.202   4.044  14.570 -0.3782  0.3351  0.2141
 9592TIP3    H150191   5.251   4.028  14.651 -1.0728  2.2084  1.0640
 9592TIP3    H250192   5.267   4.032  14.500  0.8407  0.9838  1.2003
 9593TIP3   OH250193   3.200   1.798   3.563  0.0357 -0.6577  0.1371
 9593TIP3    H150194   3.172   1.833   3.647  0.1880  0.9433 -0.4355
 9593TIP3    H250195   3.275   1.852   3.538 -1.5153  0.6425 -2.1539
 9594TIP3   OH250196   3.761   6.522  11.784 -0.4452  0.1493 -0.0473
 9594TIP3    H150197   3.841   6.469  11.792 -0.9180 -0.3771  1.6269
 9594TIP3    H250198   3.790   6.604  11.745  1.2522  0.6119  2.0064
 9595TIP3   OH250199   1.765   6.706   3.901  0.4517  0.2809  0.1716
 9595TIP3    H150200   1.756   6.650   3.978  1.3635 -0.9781 -0.6099
 9595TIP3    H250201   1.675   6.731   3.879  0.2030  1.0391  1.8740
 9596TIP3   OH250202   0.377   2.011  10.646  0.0827 -0.2068 -0.5262
 9596TIP3    H150203   0.326   2.084  10.611  0.5973 -0.1149 -1.0956
 9596TIP3    H250204   0.465   2.023  10.610  0.5274 -0.3416  0.4870
 9597TIP3   OH250205   5.528   5.427   0.493  0.1157 -0.4946  0.7000
 9597TIP3    H150206   5.535   5.390   0.580 -1.1886 -2.7405 -0.0646
 9597TIP3    H250207   5.470   5.367   0.446  1.6539 -0.0036 -2.0426
 9598TIP3   OH250208   3.597   2.738  15.080 -0.0771  0.1011  0.0537
 9598TIP3    H150209   3.599   2.751  15.175 -2.4363  0.1215  0.1554
 9598TIP3    H250210   3.677   2.689  15.061 -0.2074 -1.0721  2.2436
 9599TIP3   OH250211   1.325   0.918  14.038  0.3718  0.4246 -0.0391
 9599TIP3    H150212   1.294   0.903  13.949  0.3780  0.1128  0.0112
 9599TIP3    H250213   1.362   1.007  14.036  1.5399 -0.0512 -0.6733
 9600TIP3   OH250214   2.157   5.524   3.348  0.0520  0.2468  0.2315
 9600TIP3    H150215   2.149   5.467   3.271 -0.5174  1.1931 -0.4317
 9600TIP3    H250216   2.142   5.466   3.423 -0.9096 -0.4012 -0.4434
 9601TIP3   OH250217   4.010   0.298  11.170  0.0868  0.0226  0.3520
 9601TIP3    H150218   4.094   0.298  11.124  0.1182  1.4758  0.3613
 9601TIP3    H250219   3.952   0.246  11.115  0.7693 -0.2577 -0.1074
 9602TIP3   OH250220   2.581   1.117  12.949  0.3134  0.3251  0.0698
 9602TIP3    H150221   2.578   1.022  12.959  1.5663  0.2899  0.3251
 9602TIP3    H250222   2.561   1.151  13.037  2.4231  0.2087  0.6573
 9603TIP3   OH250223   4.113   4.694  14.584  0.9508  0.4179 -0.0415
 9603TIP3    H150224   4.167   4.765  14.548 -0.0799  1.5730  0.5969
 9603TIP3    H250225   4.038   4.688  14.525  1.2055 -0.4066 -0.2927
 9604TIP3   OH250226   2.980   5.368  12.542  0.1257  0.1859  0.5736
 9604TIP3    H150227   2.889   5.384  12.515  0.0715 -0.9624  0.0072
 9604TIP3    H250228   3.028   5.443  12.509 -0.7705  1.3453  1.8066
 9605TIP3   OH250229   5.436   3.648   1.138  0.3736  0.2041 -0.2394
 9605TIP3    H150230   5.424   3.563   1.180  1.2008 -0.1969 -0.7810
 9605TIP3    H250231   5.374   3.705   1.181 -0.6747 -0.8329 -0.3168
 9606TIP3   OH250232   5.415   4.535  15.257  0.4638 -0.3603  0.0324
 9606TIP3    H150233   5.485   4.597  15.235 -1.5706  2.0974  0.0013
 9606TIP3    H250234   5.389   4.559  15.346  0.4526 -2.0785  0.5296
 9607TIP3   OH250235   5.309   3.877   3.026 -0.7279 -0.0741  0.1641
 9607TIP3    H150236   5.306   3.803   3.086 -1.2657 -0.4294 -0.3046
 9607TIP3    H250237   5.221   3.883   2.989 -0.2690 -0.1672 -0.9715
 9608TIP3   OH250238   2.134   0.002   5.996  0.0555 -0.1870  0.1058
 9608TIP3    H150239   2.107  -0.081   5.959 -0.6422 -0.5095  1.2812
 9608TIP3    H250240   2.053   0.045   6.022  0.5015  0.0559  1.1600
 9609TIP3   OH250241   0.897   2.468  16.873  0.2418  0.3259 -0.8698
 9609TIP3    H150242   0.939   2.520  16.804 -2.5538  1.3464 -1.9457
 9609TIP3    H250243   0.871   2.531  16.939  1.9254 -0.5242  0.6948
 9610TIP3   OH250244   0.369   0.038  12.637 -0.2805  0.3998  0.2527
 9610TIP3    H150245   0.431   0.099  12.597 -0.6983 -0.4315 -1.8014
 9610TIP3    H250246   0.423  -0.038  12.660 -0.4883 -0.4172 -1.7436
 9611TIP3   OH250247   5.953   6.554  15.100 -0.5587 -0.0971 -0.0904
 9611TIP3    H150248   6.002   6.631  15.127 -1.0246  1.0845 -2.4220
 9611TIP3    H250249   6.020   6.489  15.078 -0.1580 -0.1207  1.1195
 9612TIP3   OH250250   4.256   1.425   0.610  0.0056 -0.5390 -0.4514
 9612TIP3    H150251   4.309   1.361   0.563 -0.5098 -0.3521 -1.3132
 9612TIP3    H250252   4.203   1.467   0.542 -1.2831 -0.7504  0.3807
 9613TIP3   OH250253   3.194   5.455  12.802 -0.4736 -0.1533  0.1344
 9613TIP3    H150254   3.126   5.515  12.771 -1.7375 -1.5092  0.2182
 9613TIP3    H250255   3.184   5.455  12.897  1.1694  1.3598  0.3779
 9614TIP3   OH250256   4.112   2.059  12.975  0.0067  0.5035 -0.3862
 9614TIP3    H150257   4.064   2.058  13.058 -1.0148 -1.3313 -0.9350
 9614TIP3    H250258   4.045   2.081  12.910  0.0017 -1.3560 -1.0757
 9615TIP3   OH250259   6.461   4.846   3.783 -0.8171  0.2770 -0.4624
 9615TIP3    H150260   6.479   4.936   3.812 -0.5132  0.4364 -1.1383
 9615TIP3    H250261   6.541   4.819   3.738 -1.7695  0.5407 -2.3830
 9616TIP3   OH250262   6.133   3.648   5.026 -0.1508  0.3001  0.5445
 9616TIP3    H150263   6.066   3.692   5.078  0.0329  1.2758 -0.0298
 9616TIP3    H250264   6.163   3.714   4.964 -2.2226 -1.4867 -2.6407
 9617TIP3   OH250265   2.282   5.219  16.901 -0.2513 -0.5866  0.1166
 9617TIP3    H150266   2.354   5.183  16.849 -0.3326 -0.1135 -0.3339
 9617TIP3    H250267   2.203   5.184  16.859 -0.3041 -0.6196  0.2422
 9618TIP3   OH250268   3.757   5.116   3.207  0.5829  0.1881 -0.7689
 9618TIP3    H150269   3.813   5.177   3.253 -1.6743  0.0884  2.4592
 9618TIP3    H250270   3.801   5.031   3.215  1.2152  0.5237 -0.6497
 9619TIP3   OH250271   5.829   2.336  12.534 -0.1517 -0.2296  0.0792
 9619TIP3    H150272   5.816   2.242  12.539 -0.5398 -0.1348  1.2275
 9619TIP3    H250273   5.912   2.347  12.487  0.2345 -1.1625  0.5190
 9620TIP3   OH250274   0.785   4.875  14.955  0.3193 -0.0305 -0.3079
 9620TIP3    H150275   0.826   4.955  14.923  0.4947  0.6776  1.5613
 9620TIP3    H250276   0.790   4.882  15.050  0.2950 -2.2549 -0.0940
 9621TIP3   OH250277   3.644   1.156   1.760  0.3328 -0.0201  0.0081
 9621TIP3    H150278   3.689   1.196   1.686  1.8533 -1.9150 -0.1878
 9621TIP3    H250279   3.632   1.227   1.822  0.5003  1.2726 -1.3715
 9622TIP3   OH250280   0.095   0.457   3.390  0.3759 -0.1494  0.3067
 9622TIP3    H150281   0.006   0.492   3.383  1.2208  2.1844  0.5684
 9622TIP3    H250282   0.133   0.469   3.303  0.7046 -0.3814  0.4156
 9623TIP3   OH250283   2.491   1.758   3.305 -0.3770 -0.0642  0.7360
 9623TIP3    H150284   2.504   1.720   3.218 -1.3564 -0.2879  0.6729
 9623TIP3    H250285   2.405   1.799   3.300 -0.9473 -1.0522  1.9385
 9624TIP3   OH250286   2.932   5.950   5.694 -0.0997 -0.6344  0.0583
 9624TIP3    H150287   2.977   5.870   5.668  0.0340 -0.3082 -0.7338
 9624TIP3    H250288   2.853   5.952   5.641 -0.1510 -0.2849  0.1437
 9625TIP3   OH250289   2.179   6.384   4.210  0.3510 -0.3598 -0.2682
 9625TIP3    H150290   2.136   6.299   4.223  0.4349 -0.3256  0.2524
 9625TIP3    H250291   2.265   6.362   4.174  0.4975 -0.5191  0.1680
 9626TIP3   OH250292   6.461   2.748   1.125  0.0841  0.1224 -0.5040
 9626TIP3    H150293   6.477   2.743   1.031 -2.2039  1.3487 -1.0334
 9626TIP3    H250294   6.461   2.841   1.145  1.0836 -0.1328  0.8642
 9627TIP3   OH250295   1.455   5.666  15.009 -1.0171 -0.1811 -0.1973
 9627TIP3    H150296   1.481   5.579  14.978 -0.8773 -0.6183  1.0924
 9627TIP3    H250297   1.526   5.723  14.981  0.9063 -1.1805  2.3373
 9628TIP3   OH250298   5.588   2.005   5.764  0.2129 -0.0611  0.1669
 9628TIP3    H150299   5.659   1.998   5.828  0.3914 -1.8442 -0.1821
 9628TIP3    H250300   5.631   1.990   5.679 -0.2173  1.1302 -0.2844
 9629TIP3   OH250301   6.068   0.625   3.489  0.6209  0.6314  0.4809
 9629TIP3    H150302   6.054   0.697   3.550 -1.5395 -0.3530  1.2532
 9629TIP3    H250303   6.052   0.664   3.402  0.9816  1.4035  0.7531
 9630TIP3   OH250304   3.228   5.173  14.133 -0.0057 -0.3202 -0.3356
 9630TIP3    H150305   3.250   5.266  14.132  0.0927 -0.3454 -0.5459
 9630TIP3    H250306   3.303   5.129  14.093 -0.5017 -0.3860 -1.2148
 9631TIP3   OH250307   2.620   0.760  12.115 -0.3022  1.1142 -0.0245
 9631TIP3    H150308   2.634   0.665  12.120 -0.1991  1.0639 -0.9906
 9631TIP3    H250309   2.535   0.774  12.157 -0.0939  0.6630  0.5660
 9632TIP3   OH250310   0.143   1.645   5.051  0.4798 -0.3538 -0.1415
 9632TIP3    H150311   0.119   1.730   5.088  2.5320  0.2310 -0.0631
 9632TIP3    H250312   0.095   1.582   5.105 -1.9883  0.7343 -0.9219
 9633TIP3   OH250313   3.406   4.346   0.196  0.2260  0.5631  0.4648
 9633TIP3    H150314   3.331   4.289   0.182 -0.9707  1.6069  2.2937
 9633TIP3    H250315   3.476   4.287   0.225  0.2395 -0.4455 -1.4654
 9634TIP3   OH250316   5.218   5.495  12.820  0.2598 -0.5124 -0.5350
 9634TIP3    H150317   5.135   5.448  12.816  1.5745 -3.0231 -0.8264
 9634TIP3    H250318   5.211   5.563  12.753 -1.6023 -0.5283 -0.4011
 9635TIP3   OH250319   3.447   3.848   3.429  0.1701  0.4888  0.5932
 9635TIP3    H150320   3.366   3.801   3.407  1.3150 -0.6851 -1.4686
 9635TIP3    H250321   3.423   3.940   3.426 -0.8410  0.2296 -1.3741
 9636TIP3   OH250322   4.871   3.077   3.019 -0.2297 -0.2401 -0.3280
 9636TIP3    H150323   4.803   3.061   3.085  0.0479  0.3238  0.0956
 9636TIP3    H250324   4.823   3.109   2.943 -0.2530  2.4215  0.7270
 9637TIP3   OH250325   5.388   4.832  14.485  0.3569 -0.3759  0.2171
 9637TIP3    H150326   5.449   4.892  14.527 -0.3113  0.6795 -0.3012
 9637TIP3    H250327   5.322   4.815  14.552 -0.1466  0.4901 -0.0480
 9638TIP3   OH250328   5.732   6.535  12.779 -0.1294  0.4912  0.1109
 9638TIP3    H150329   5.730   6.447  12.743 -1.7908  1.5391 -2.6341
 9638TIP3    H250330   5.821   6.567  12.761  0.1620 -0.2486  0.2163
 9639TIP3   OH250331   0.159   2.702  11.947 -0.2045  0.1892  0.1744
 9639TIP3    H150332   0.173   2.771  12.013 -2.0287  0.8829 -0.1084
 9639TIP3    H250333   0.064   2.693  11.941 -0.0659 -0.4491 -1.7612
 9640TIP3   OH250334   2.075   2.059  13.389  0.2161  0.1965 -0.2031
 9640TIP3    H150335   2.048   1.985  13.443 -0.4344  0.3650 -0.2970
 9640TIP3    H250336   2.127   2.114  13.448 -0.9338  0.6547  0.4237
 9641TIP3   OH250337   1.692   1.703  12.125 -0.0580 -0.0280  0.1188
 9641TIP3    H150338   1.716   1.728  12.214 -0.9987  0.4536  0.2412
 9641TIP3    H250339   1.729   1.772  12.070  0.6090 -0.3777  0.1198
 9642TIP3   OH250340   3.222   4.422  16.557  0.2311  0.0110 -0.0544
 9642TIP3    H150341   3.214   4.444  16.464  1.7016  1.3506  0.0984
 9642TIP3    H250342   3.194   4.331  16.562 -0.7672  0.1800 -1.6470
 9643TIP3   OH250343   2.083   3.408   4.217 -0.0894 -0.4317 -0.5486
 9643TIP3    H150344   2.121   3.493   4.242  0.5541 -0.6123 -0.8866
 9643TIP3    H250345   2.042   3.424   4.132  2.0463 -0.9760 -1.7569
 9644TIP3   OH250346   3.800   4.664   6.394  0.4911  0.3472 -0.1238
 9644TIP3    H150347   3.721   4.610   6.396  0.9473 -0.3496  2.1006
 9644TIP3    H250348   3.771   4.749   6.361 -1.1895  0.0872  0.6130
 9645TIP3   OH250349   2.055   1.847   4.153  0.1277  0.2462  0.0315
 9645TIP3    H150350   2.040   1.894   4.071  1.5323  0.4281 -0.1454
 9645TIP3    H250351   2.124   1.784   4.132 -0.6127 -0.8278  0.6764
 9646TIP3   OH250352   0.884   0.388  16.249 -0.7003  0.0040 -0.0529
 9646TIP3    H150353   0.860   0.480  16.244  0.3248  0.2186 -1.4232
 9646TIP3    H250354   0.953   0.377  16.184 -0.8693 -1.7573  0.0160
 9647TIP3   OH250355   1.735   5.544  13.672  0.2380 -0.1309 -0.0806
 9647TIP3    H150356   1.735   5.622  13.616  0.3241  0.7172  1.0857
 9647TIP3    H250357   1.646   5.510  13.665  0.3505 -0.2717 -1.0337
 9648TIP3   OH250358   2.900   0.963  11.734  0.3272 -0.2298 -0.4344
 9648TIP3    H150359   2.861   1.041  11.773 -0.7649 -0.4887 -0.9418
 9648TIP3    H250360   2.845   0.891  11.766  0.8958 -0.7151 -0.5286
 9649TIP3   OH250361   2.642   0.495  12.142 -0.0724  0.1473  0.0926
 9649TIP3    H150362   2.684   0.431  12.084 -1.1250 -0.7219  0.2578
 9649TIP3    H250363   2.549   0.477  12.134 -0.7226  3.4738 -1.9869
 9650TIP3   OH250364   2.098   6.406   3.364 -0.4095 -0.1541 -0.0964
 9650TIP3    H150365   2.118   6.393   3.457 -2.3298 -1.1126  0.2503
 9650TIP3    H250366   2.172   6.455   3.329  0.1044  0.7041  2.0584
 9651TIP3   OH250367   2.636   0.373   5.610 -0.2170  0.0251 -0.0207
 9651TIP3    H150368   2.666   0.286   5.586 -0.4015 -0.1660  0.4339
 9651TIP3    H250369   2.581   0.359   5.688 -0.5385  0.5000 -0.1595
 9652TIP3   OH250370   4.459   0.737   3.830 -0.0683  0.5913 -0.0937
 9652TIP3    H150371   4.530   0.696   3.781 -2.9917 -0.6286 -3.7493
 9652TIP3    H250372   4.414   0.664   3.872 -0.0419  1.1829  1.0017
 9653TIP3   OH250373   2.334   4.935  12.276 -0.6369 -0.2052 -0.0130
 9653TIP3    H150374   2.272   4.922  12.204 -0.6794 -0.4233  0.0617
 9653TIP3    H250375   2.365   5.025  12.265 -1.1279 -0.0275  0.0801
 9654TIP3   OH250376   1.021   4.815  14.489  0.2935 -0.1147 -0.1387
 9654TIP3    H150377   1.006   4.906  14.512  2.1031  0.3302 -0.5366
 9654TIP3    H250378   0.937   4.784  14.455  0.2620  2.1421 -2.3877
 9655TIP3   OH250379   3.077   0.528  13.308  0.2896 -0.0554  0.4399
 9655TIP3    H150380   3.060   0.613  13.348 -0.9892 -0.7796  1.5277
 9655TIP3    H250381   3.158   0.498  13.348  0.2349  0.2387  0.7710
 9656TIP3   OH250382   6.008   2.306  16.873 -0.2404  0.9545  0.4963
 9656TIP3    H150383   5.974   2.223  16.905 -0.8196  0.8773 -0.3092
 9656TIP3    H250384   5.939   2.342  16.818  1.3807  0.2064 -2.1826
 9657TIP3   OH250385   1.553   4.704  16.981  0.5394 -0.0352  0.2038
 9657TIP3    H150386   1.537   4.798  16.977  0.0608 -0.1128  0.2049
 9657TIP3    H250387   1.516   4.677  17.065 -0.6866 -0.4635 -0.4498
 9658TIP3   OH250388   4.311   3.035   3.577 -0.1468  0.1249  0.2146
 9658TIP3    H150389   4.385   3.006   3.524 -0.0414 -0.5207  0.6988
 9658TIP3    H250390   4.236   2.990   3.539  0.1016 -1.3137  1.3343
 9659TIP3   OH250391   4.620   3.539  12.731 -0.2080  0.1542  0.3284
 9659TIP3    H150392   4.555   3.609  12.731 -0.9471 -0.5160 -0.4865
 9659TIP3    H250393   4.700   3.581  12.763 -0.3620  1.6261 -1.1200
 9660TIP3   OH250394   4.708   3.837   0.972  0.4939 -0.1965  0.5702
 9660TIP3    H150395   4.696   3.909   0.911  1.9330 -2.2294 -2.3772
 9660TIP3    H250396   4.797   3.846   1.005  0.9949 -1.0306 -0.4924
 9661TIP3   OH250397   2.427   2.307   2.212  0.5942  0.1294 -0.0114
 9661TIP3    H150398   2.422   2.228   2.266  1.5530 -1.2448 -1.8428
 9661TIP3    H250399   2.506   2.352   2.243  0.6490 -0.1925  0.3208
 9662TIP3   OH250400   2.304   6.707   4.400 -0.1103  0.1809  0.9757
 9662TIP3    H150401   2.357   6.658   4.462  0.1713  0.1468  0.7132
 9662TIP3    H250402   2.240   6.753   4.454  0.7812  0.9729  1.3949
 9663TIP3   OH250403   2.021   2.065  14.778 -0.0143  0.9331  0.2540
 9663TIP3    H150404   1.968   2.013  14.717  0.5964 -0.4136  0.8368
 9663TIP3    H250405   1.962   2.086  14.850 -0.2491  1.0140  0.0401
 9664TIP3   OH250406   0.571   2.416   4.322 -0.5803  0.2261 -0.4460
 9664TIP3    H150407   0.537   2.449   4.238 -1.0110  1.5906  0.2498
 9664TIP3    H250408   0.506   2.442   4.386  0.8952  1.3123  0.6683
 9665TIP3   OH250409   6.495   3.560   3.942 -0.3805 -0.2985 -0.4807
 9665TIP3    H150410   6.427   3.600   3.888  0.4500 -0.2234 -1.5168
 9665TIP3    H250411   6.471   3.583   4.032 -1.6737 -0.2255 -0.8232
 9666TIP3   OH250412   5.803   1.576   5.863  0.1260  0.3514 -0.0901
 9666TIP3    H150413   5.896   1.563   5.885  0.3965  1.4639 -0.5108
 9666TIP3    H250414   5.794   1.670   5.851 -0.6886  0.1111 -1.7102
 9667TIP3   OH250415   5.515   1.264   2.702  0.1768 -0.3777 -0.6005
 9667TIP3    H150416   5.539   1.347   2.660 -1.6562 -1.0357 -3.2608
 9667TIP3    H250417   5.539   1.275   2.794  1.6069  2.4074 -1.1961
 9668TIP3   OH250418   5.097   5.657   0.084  0.1339 -0.4881 -0.6378
 9668TIP3    H150419   5.155   5.598   0.035  1.1977 -0.6814  0.8043
 9668TIP3    H250420   5.107   5.742   0.040 -0.0003 -0.9508 -1.5930
 9669TIP3   OH250421   1.138   4.590   2.040  0.0306 -0.0778 -0.2844
 9669TIP3    H150422   1.079   4.521   2.008 -0.0152  0.5016 -1.5362
 9669TIP3    H250423   1.226   4.558   2.020 -0.0132  0.4455 -1.3752
 9670TIP3   OH250424   3.738   0.521   6.187 -0.0768 -0.2218 -0.5008
 9670TIP3    H150425   3.717   0.604   6.229  0.6054 -0.3871  0.2010
 9670TIP3    H250426   3.793   0.545   6.113  0.9749 -0.1029  0.2986
 9671TIP3   OH250427   2.667   3.057   2.454 -0.9975 -0.3389 -0.1089
 9671TIP3    H150428   2.692   3.146   2.476  0.7268 -0.9162  0.3866
 9671TIP3    H250429   2.571   3.056   2.463 -0.8770  0.9490  1.8203
 9672TIP3   OH250430   4.108   1.856  14.043  0.8344 -0.7900 -0.0911
 9672TIP3    H150431   4.104   1.775  14.095 -1.3263 -1.2258 -0.8045
 9672TIP3    H250432   4.025   1.900  14.062  2.0138  1.3413  0.3460
 9673TIP3   OH250433   4.863   6.511   2.742 -0.3350 -0.7868 -0.2414
 9673TIP3    H150434   4.785   6.465   2.771  0.4285 -1.7232  0.3808
 9673TIP3    H250435   4.844   6.537   2.652 -0.8424 -2.2082 -0.5668
 9674TIP3   OH250436   6.721   1.819  14.555 -0.3256 -0.6095 -0.0293
 9674TIP3    H150437   6.749   1.796  14.467  0.7608  0.1182  0.1099
 9674TIP3    H250438   6.629   1.844  14.546 -0.6457 -1.9492 -0.6959
 9675TIP3   OH250439   0.129   5.597   1.824 -0.2377 -0.0864  0.0056
 9675TIP3    H150440   0.193   5.663   1.800 -0.3453  0.1661  0.3978
 9675TIP3    H250441   0.134   5.592   1.920 -0.6990 -0.1643  0.0300
 9676TIP3   OH250442   5.580   3.852  13.706 -1.0379  0.2436  0.2196
 9676TIP3    H150443   5.572   3.862  13.611  0.0414 -0.7785  0.0038
 9676TIP3    H250444   5.599   3.941  13.737  1.1771  0.2181 -0.8379
 9677TIP3   OH250445   6.644   3.619  16.350 -0.4129 -0.2061  0.7672
 9677TIP3    H150446   6.723   3.566  16.344 -0.4365 -0.1018 -0.9539
 9677TIP3    H250447   6.575   3.556  16.373 -0.0839 -0.5720  0.7606
 9678TIP3   OH250448   2.143   3.430   4.835 -0.0736 -0.2603  0.3983
 9678TIP3    H150449   2.188   3.497   4.887  0.1926  0.3008 -0.5230
 9678TIP3    H250450   2.192   3.427   4.752 -0.7988 -0.7451 -0.0231
 9679TIP3   OH250451   4.327   1.665   4.706  0.2996  0.3312 -0.2112
 9679TIP3    H150452   4.392   1.697   4.768  0.3511  0.7862 -0.4901
 9679TIP3    H250453   4.252   1.640   4.759  0.5184  0.2719  0.0698
 9680TIP3   OH250454   5.614   1.371   0.024  0.5077  0.0365  0.3581
 9680TIP3    H150455   5.547   1.302   0.028 -0.9149  1.2115 -1.4886
 9680TIP3    H250456   5.697   1.324   0.025 -0.4050 -1.8904 -2.3106
 9681TIP3   OH250457   4.191   4.716   3.449 -0.3467 -0.4328  0.0333
 9681TIP3    H150458   4.130   4.656   3.407  0.1485 -0.6951 -0.3269
 9681TIP3    H250459   4.184   4.797   3.398  0.2920 -0.7678 -0.6048
 9682TIP3   OH250460   1.475   6.576   4.120 -0.2384 -0.6049 -0.5767
 9682TIP3    H150461   1.535   6.650   4.133  0.8185 -1.0293 -2.6039
 9682TIP3    H250462   1.411   6.609   4.056 -1.8890 -0.3489  1.1375
 9683TIP3   OH250463   0.690   4.252   1.553 -0.0378  0.2146 -0.5273
 9683TIP3    H150464   0.709   4.158   1.551 -1.0854 -0.0123 -0.7469
 9683TIP3    H250465   0.663   4.268   1.644  0.3431  0.3547 -0.4363
 9684TIP3   OH250466   0.117   3.703   6.265  0.4423  0.1008  0.4026
 9684TIP3    H150467   0.201   3.661   6.245  0.7038  0.4310  0.7869
 9684TIP3    H250468   0.141   3.791   6.296 -0.1141  0.6693 -0.7127
 9685TIP3   OH250469   5.204   3.661   0.907 -0.0065  0.1152  0.2107
 9685TIP3    H150470   5.266   3.728   0.878  0.4071 -0.5952 -0.6256
 9685TIP3    H250471   5.173   3.692   0.992  2.5088 -0.1091  1.3219
 9686TIP3   OH250472   3.850   2.908  15.975 -0.2390 -0.3389  0.5812
 9686TIP3    H150473   3.912   2.980  15.973 -1.6666  0.9236 -1.9256
 9686TIP3    H250474   3.812   2.912  16.063 -0.3463  2.0357  0.4836
 9687TIP3   OH250475   0.552   2.451   5.191  0.2757 -0.6914 -0.0635
 9687TIP3    H150476   0.504   2.399   5.255 -1.4625 -0.0135 -0.7446
 9687TIP3    H250477   0.527   2.542   5.210 -1.4388 -0.5497 -2.4768
 9688TIP3   OH250478   5.431   5.059   2.640  0.1064  0.4662  0.3333
 9688TIP3    H150479   5.461   5.002   2.711  0.0996  1.2532  0.9791
 9688TIP3    H250480   5.348   5.020   2.612  0.9647 -0.8761 -0.4676
 9689TIP3   OH250481   2.914   6.391   5.018 -0.4241 -0.3189  0.1305
 9689TIP3    H150482   2.968   6.442   4.957 -0.8546 -0.6909 -0.5767
 9689TIP3    H250483   2.976   6.331   5.059  0.0846  0.7576  0.9716
 9690TIP3   OH250484   2.180   5.329  17.142  0.1003  0.2458 -0.0862
 9690TIP3    H150485   2.209   5.263  17.205  2.7198 -0.0091 -1.3990
 9690TIP3    H250486   2.223   5.304  17.060  2.5891  4.3324 -0.3284
 9691TIP3   OH250487   2.225   6.091   1.250 -0.0090  0.3780 -0.0012
 9691TIP3    H150488   2.258   6.049   1.330  0.0330  0.1143 -0.1564
 9691TIP3    H250489   2.133   6.109   1.269 -0.4186 -1.0912 -0.4449
 9692TIP3   OH250490   1.937   5.076   2.399  0.4343 -0.2793  0.5253
 9692TIP3    H150491   1.946   5.165   2.432 -0.0515  0.3707 -1.0233
 9692TIP3    H250492   1.919   5.024   2.477 -1.9493  1.3848  1.2080
 9693TIP3   OH250493   4.812   3.685   4.205  0.1894 -0.5660  0.2360
 9693TIP3    H150494   4.765   3.716   4.128  0.3961 -0.2254  0.2458
 9693TIP3    H250495   4.756   3.616   4.241 -0.1351 -0.3996  0.0521
 9694TIP3   OH250496   0.875   6.447  15.364 -0.5275 -0.2332 -0.3082
 9694TIP3    H150497   0.791   6.404  15.383 -0.3001 -1.2733 -1.5288
 9694TIP3    H250498   0.936   6.407  15.427 -0.4518 -1.2946 -1.0208
 9695TIP3   OH250499   2.179   3.949  16.342 -0.0948 -0.0044  0.0791
 9695TIP3    H150500   2.251   4.003  16.311  1.8335 -2.1127  0.6476
 9695TIP3    H250501   2.142   3.997  16.416  1.2826  0.7218  0.3060
 9696TIP3   OH250502   3.994   3.835  11.457 -0.0331  0.1333  1.0568
 9696TIP3    H150503   3.974   3.848  11.364  0.1933 -2.2785  0.6208
 9696TIP3    H250504   3.914   3.795  11.493  0.3871 -0.2424  1.5758
 9697TIP3   OH250505   2.086   2.741  11.272  0.0172  0.1775 -0.1466
 9697TIP3    H150506   2.105   2.714  11.182 -0.4852 -3.0437  0.6143
 9697TIP3    H250507   2.003   2.699  11.294  0.5996  0.0503  2.1232
 9698TIP3   OH250508   4.838   1.634  17.010  0.3271 -0.4815 -0.2920
 9698TIP3    H150509   4.775   1.705  17.015  0.2149 -0.6226  0.3699
 9698TIP3    H250510   4.797   1.561  17.058  0.7315 -0.7657 -0.3661
 9699TIP3   OH250511   2.006   0.117  16.384  0.2601  0.3491 -0.2443
 9699TIP3    H150512   2.053   0.177  16.441  0.4679  2.4646 -2.4831
 9699TIP3    H250513   1.930   0.167  16.354 -1.5162 -1.7590  0.4714
 9700TIP3   OH250514   5.742   2.053  11.952 -0.4092  0.6680  0.1092
 9700TIP3    H150515   5.755   1.969  11.907 -0.8331  1.0737 -0.8068
 9700TIP3    H250516   5.665   2.091  11.909 -1.6383  0.5202  2.0261
 9701TIP3   OH250517   2.314   1.659   4.875 -0.3952 -0.0993  0.1565
 9701TIP3    H150518   2.391   1.715   4.878 -0.7770  0.4603 -0.3393
 9701TIP3    H250519   2.240   1.719   4.877 -0.8146 -0.4534 -2.0241
 9702TIP3   OH250520   0.244   2.041  15.399 -0.1349  0.6241  0.0645
 9702TIP3    H150521   0.276   2.101  15.466 -0.0011 -0.3763  0.9113
 9702TIP3    H250522   0.239   2.095  15.320 -0.8491  1.9761  0.9825
 9703TIP3   OH250523   5.956   1.195   3.641  0.7804  0.0189 -0.6879
 9703TIP3    H150524   5.975   1.154   3.556  0.9181 -0.0428 -0.6273
 9703TIP3    H250525   5.908   1.129   3.690  0.0239  0.3278 -1.0002
 9704TIP3   OH250526   0.457   6.467  16.720 -0.9269  0.3161  0.5481
 9704TIP3    H150527   0.518   6.478  16.647 -0.5768 -0.2103  0.7550
 9704TIP3    H250528   0.379   6.429  16.681 -0.2588 -1.2259  0.6341
 9705TIP3   OH250529   1.515   0.617  16.838 -0.0635  0.4605 -0.5638
 9705TIP3    H150530   1.610   0.619  16.832  0.0698 -0.2348  0.9059
 9705TIP3    H250531   1.490   0.542  16.783  0.0184  1.9126 -2.7040
 9706TIP3   OH250532   1.912   4.973  11.910  0.7305  0.5230 -0.5564
 9706TIP3    H150533   1.817   4.979  11.902  0.8120  2.0752 -0.6253
 9706TIP3    H250534   1.943   4.965  11.819  0.6820  0.1123 -0.5395
 9707TIP3   OH250535   0.484   2.027   5.526  0.4344 -0.4039  0.2377
 9707TIP3    H150536   0.551   2.073   5.577  1.2046 -0.3100 -0.8420
 9707TIP3    H250537   0.409   2.022   5.586  0.5691  1.5889  0.6560
 9708TIP3   OH250538   5.298   1.757   2.224 -0.1955 -0.0554  0.2596
 9708TIP3    H150539   5.209   1.791   2.229 -0.2800 -0.3578  0.8483
 9708TIP3    H250540   5.333   1.794   2.142 -0.2705  1.4516  0.8790
 9709TIP3   OH250541   0.621   4.937   2.133 -0.3559 -0.0309  0.4345
 9709TIP3    H150542   0.578   4.969   2.054  0.3477  0.2953  0.1758
 9709TIP3    H250543   0.714   4.949   2.116 -0.2333  2.7262  2.3950
 9710TIP3   OH250544   2.676   5.738   3.374  0.2264 -0.0062  0.3941
 9710TIP3    H150545   2.704   5.677   3.307  2.6291 -0.1612  1.4559
 9710TIP3    H250546   2.675   5.686   3.455  0.1194  0.8270  0.9456
 9711TIP3   OH250547   1.600   6.071   0.262  0.1999  0.4523 -0.0125
 9711TIP3    H150548   1.540   6.001   0.235  1.7966 -0.8473 -0.3796
 9711TIP3    H250549   1.550   6.152   0.250 -0.5957 -0.3382 -2.9330
 9712TIP3   OH250550   3.196   0.627   1.201  0.1066 -0.2264 -0.6698
 9712TIP3    H150551   3.165   0.537   1.212  0.7515 -0.6421 -1.9742
 9712TIP3    H250552   3.263   0.620   1.133 -0.7299  1.4179 -1.7305
 9713TIP3   OH250553   2.599   0.172   1.881  0.2638  0.1968 -0.7097
 9713TIP3    H150554   2.596   0.179   1.785  3.0528 -0.3733 -0.9394
 9713TIP3    H250555   2.649   0.248   1.909  1.6171 -0.8868 -0.0108
 9714TIP3   OH250556   3.896   1.516   0.621 -0.2263 -0.0709 -0.4324
 9714TIP3    H150557   3.859   1.429   0.638  1.2460 -0.7830 -0.7319
 9714TIP3    H250558   3.961   1.502   0.552  0.4537  1.1579 -0.0726
 9715TIP3   OH250559   6.121   1.195   0.039  0.1087  0.5275 -0.2990
 9715TIP3    H150560   6.183   1.256   0.080  0.8042  0.5666 -1.3767
 9715TIP3    H250561   6.167   1.162  -0.038 -0.3048 -1.2759  0.1784
 9716TIP3   OH250562   3.971   0.682  15.058  0.0405  0.0274  0.0827
 9716TIP3    H150563   3.924   0.761  15.083  0.8151  0.7236 -0.6139
 9716TIP3    H250564   4.056   0.690  15.102  0.1945 -0.3362 -0.1390
 9717TIP3   OH250565   5.225   0.257   5.273 -0.0463  0.6004 -0.1074
 9717TIP3    H150566   5.290   0.289   5.336 -0.6873  3.0543 -0.6017
 9717TIP3    H250567   5.273   0.193   5.220  1.3579  0.7501  0.9100
 9718TIP3   OH250568   3.234   2.446   4.025 -0.6003 -0.2707  0.8332
 9718TIP3    H150569   3.237   2.512   4.094 -1.1267  0.9154 -0.2380
 9718TIP3    H250570   3.225   2.496   3.944  0.5997 -1.6024 -0.1741
 9719TIP3   OH250571   0.184   0.721   2.327 -0.7125  0.3625  0.2196
 9719TIP3    H150572   0.119   0.753   2.265 -0.2577  1.5865  0.3423
 9719TIP3    H250573   0.244   0.794   2.339 -0.7671  0.1657  2.0777
 9720TIP3   OH250574   1.524   0.224   4.923 -0.9259  0.5425 -0.1214
 9720TIP3    H150575   1.618   0.227   4.940 -0.7392 -1.3860 -0.5947
 9720TIP3    H250576   1.518   0.213   4.828 -1.6345  0.8443 -0.1140
 9721TIP3   OH250577   3.308   3.912   0.917 -0.2950 -0.5240 -0.5563
 9721TIP3    H150578   3.366   3.987   0.902  0.8238 -1.0178  1.0736
 9721TIP3    H250579   3.245   3.944   0.982  0.8988 -1.2768  1.0470
 9722TIP3   OH250580   3.963   1.259  15.592 -0.1056  0.1124  0.1335
 9722TIP3    H150581   4.053   1.235  15.568 -0.8258 -1.4970 -1.2231
 9722TIP3    H250582   3.911   1.183  15.565 -1.8912  1.0461  0.8110
 9723TIP3   OH250583   1.460   0.604  10.802 -0.1205  0.7439  0.2861
 9723TIP3    H150584   1.532   0.543  10.787  1.2181  2.5932 -1.1701
 9723TIP3    H250585   1.388   0.548  10.833  1.2768 -1.4377 -0.1736
 9724TIP3   OH250586   0.673   0.760   1.309  0.5334 -0.4391 -0.2274
 9724TIP3    H150587   0.713   0.678   1.337  3.7340  0.6563 -1.1590
 9724TIP3    H250588   0.648   0.744   1.218 -0.9011 -1.0104  0.2443
 9725TIP3   OH250589   0.844   5.779  14.886 -0.6538 -0.3145 -0.2766
 9725TIP3    H150590   0.891   5.853  14.926  0.3297 -1.1952  0.2318
 9725TIP3    H250591   0.864   5.787  14.792 -1.9077  1.0055 -0.4579
 9726TIP3   OH250592   6.234   5.454   1.658  0.0312  0.1907 -0.4245
 9726TIP3    H150593   6.208   5.478   1.747  0.0967  0.2922 -0.4329
 9726TIP3    H250594   6.302   5.517   1.634  0.7483 -0.4619 -0.1640
 9727TIP3   OH250595   0.036   4.144  11.939 -0.1779 -0.3604  0.2688
 9727TIP3    H150596  -0.027   4.073  11.931 -0.3402 -0.1737 -0.1232
 9727TIP3    H250597   0.085   4.142  11.856 -1.4879  1.2318 -0.5882
 9728TIP3   OH250598   2.374   0.033  12.424 -0.6240 -0.0748  0.0616
 9728TIP3    H150599   2.305   0.005  12.484 -1.3504  0.2500 -0.6070
 9728TIP3    H250600   2.455   0.001  12.464 -1.0782  0.2108  1.2518
 9729TIP3   OH250601   4.916   2.922  12.360  0.2385  0.1115  0.2300
 9729TIP3    H150602   4.835   2.870  12.352  0.7801 -0.5702 -1.1568
 9729TIP3    H250603   4.887   3.013  12.349 -0.2139 -0.2110 -1.7706
 9730TIP3   OH250604   3.251   3.417  11.959 -0.3993 -0.5626 -0.6912
 9730TIP3    H150605   3.329   3.410  12.014  1.3306  2.1893 -2.5663
 9730TIP3    H250606   3.218   3.327  11.953  2.2158 -1.7305  0.6832
 9731TIP3   OH250607   1.556   1.534   5.508  0.1354 -0.0591 -0.5634
 9731TIP3    H150608   1.620   1.558   5.575 -2.2897  0.7605  1.6311
 9731TIP3    H250609   1.564   1.439   5.501  2.0705  0.0971 -0.9236
 9732TIP3   OH250610   1.547   4.401   6.405 -0.5009 -0.6363 -0.1426
 9732TIP3    H150611   1.471   4.438   6.361 -0.1309  0.7960  0.3444
 9732TIP3    H250612   1.559   4.315   6.365  0.2481  0.8010 -3.4574
 9733TIP3   OH250613   3.545   0.225   1.736 -0.1141 -0.7513  0.2648
 9733TIP3    H150614   3.599   0.147   1.745  3.5992  1.5644  0.5272
 9733TIP3    H250615   3.517   0.247   1.825 -0.0739 -1.0889  0.3586
 9734TIP3   OH250616   3.481   3.247   0.418  0.0313  0.2982 -0.2704
 9734TIP3    H150617   3.458   3.336   0.445 -1.1263 -0.3680  1.1223
 9734TIP3    H250618   3.571   3.234   0.448 -0.5080  0.3170  1.4802
 9735TIP3   OH250619   0.508   3.087  13.339  0.5067 -0.1617  0.5914
 9735TIP3    H150620   0.435   3.075  13.400  0.0942 -1.7665 -0.1479
 9735TIP3    H250621   0.586   3.072  13.391  0.3115  1.1801  1.3039
 9736TIP3   OH250622   5.961   0.633   1.638 -0.3232  0.0839  0.3799
 9736TIP3    H150623   5.998   0.552   1.603 -0.5452 -0.5531  1.5914
 9736TIP3    H250624   6.027   0.663   1.701  0.6304  1.8433 -1.3366
 9737TIP3   OH250625   5.138   6.185  13.869 -0.4221 -0.2085 -0.7996
 9737TIP3    H150626   5.199   6.112  13.858 -1.7212 -1.2755 -1.2463
 9737TIP3    H250627   5.176   6.238  13.939  1.0692 -0.7639 -1.1518
 9738TIP3   OH250628   1.628   4.146   2.990  0.1811 -0.0147 -0.3784
 9738TIP3    H150629   1.704   4.169   2.938  0.3453  1.6087  0.4952
 9738TIP3    H250630   1.572   4.095   2.931  1.0009  0.5440 -1.6701
 9739TIP3   OH250631   4.136   2.471  16.202  0.6635 -0.1559 -0.4800
 9739TIP3    H150632   4.049   2.512  16.206 -0.4555 -2.2281 -1.7731
 9739TIP3    H250633   4.169   2.492  16.115  0.8561 -0.4914 -0.4911
 9740TIP3   OH250634   4.849   5.154  12.112  0.2150 -0.0922 -0.4562
 9740TIP3    H150635   4.844   5.157  12.207 -0.6143  0.5856 -0.5101
 9740TIP3    H250636   4.942   5.166  12.092  0.2973  0.4991  0.2517
 9741TIP3   OH250637   2.355   6.108  11.849 -0.3895  0.1019 -0.1611
 9741TIP3    H150638   2.319   6.188  11.889 -0.4363 -0.4403  0.9190
 9741TIP3    H250639   2.279   6.060  11.817 -0.2375  2.2808 -4.5633
 9742TIP3   OH250640   4.251   0.027   3.248 -0.2527 -0.2186  0.1095
 9742TIP3    H150641   4.209   0.113   3.254 -0.1927 -0.2653  1.4999
 9742TIP3    H250642   4.178  -0.035   3.245 -0.3330 -0.2574  1.8270
 9743TIP3   OH250643   6.639   3.439   4.708 -0.3891  0.3575  0.3061
 9743TIP3    H150644   6.649   3.522   4.661  0.4389  0.1102  0.0288
 9743TIP3    H250645   6.620   3.375   4.639 -0.3372  0.1953  0.4434
 9744TIP3   OH250646   6.731   5.389   5.122 -0.0673 -0.3944  0.1897
 9744TIP3    H150647   6.765   5.436   5.046 -0.8617  2.0301  1.2292
 9744TIP3    H250648   6.663   5.331   5.087  0.1412  0.0811 -1.0262
 9745TIP3   OH250649   2.521   3.075   5.817  0.5130  0.2778  0.5338
 9745TIP3    H150650   2.601   3.052   5.864  0.2044 -1.4274  0.3077
 9745TIP3    H250651   2.541   3.053   5.726 -1.1430 -3.1887  0.8518
 9746TIP3   OH250652   1.125   5.254  16.767 -0.5798 -0.5157  0.2923
 9746TIP3    H150653   1.218   5.274  16.764 -0.3072 -1.7458 -2.0919
 9746TIP3    H250654   1.082   5.338  16.747  0.2253 -0.5763 -2.0565
 9747TIP3   OH250655   2.251   2.186   2.397 -0.0739 -0.2867 -0.0944
 9747TIP3    H150656   2.196   2.114   2.429  2.3919 -1.6641  1.4053
 9747TIP3    H250657   2.258   2.245   2.472 -0.5085  0.5389 -0.6910
 9748TIP3   OH250658   4.951   2.660   4.066 -0.0866 -0.0520 -0.6503
 9748TIP3    H150659   5.012   2.709   4.010 -1.6600  2.1549 -0.5741
 9748TIP3    H250660   4.882   2.632   4.007 -0.9869  0.9725 -0.1149
 9749TIP3   OH250661   4.991   3.143  11.202  0.4294  0.2580  0.1886
 9749TIP3    H150662   4.927   3.204  11.167  0.2743  0.6102  1.0675
 9749TIP3    H250663   4.939   3.071  11.238  0.6246 -0.7948 -1.4934
 9750TIP3   OH250664   3.663   3.710   4.642 -0.0326  0.8309  0.3021
 9750TIP3    H150665   3.640   3.793   4.600 -1.3845 -0.5581 -1.9012
 9750TIP3    H250666   3.757   3.700   4.627 -0.3277  0.7831 -1.7502
 9751TIP3   OH250667   3.329   2.042  13.674 -0.2704  0.3423 -0.3471
 9751TIP3    H150668   3.294   2.086  13.751 -0.5167 -0.9845  0.3445
 9751TIP3    H250669   3.276   1.963  13.666  1.2778 -0.7409 -0.4400
 9752TIP3   OH250670   4.739   5.455  15.697 -0.1500 -0.0391 -0.0754
 9752TIP3    H150671   4.719   5.534  15.747  1.3826  0.4590 -0.2056
 9752TIP3    H250672   4.656   5.407  15.694 -0.6141  0.5706  1.7593
 9753TIP3   OH250673   4.306   0.762   3.097 -0.2830 -0.1381 -0.4167
 9753TIP3    H150674   4.244   0.819   3.052  1.0831  1.9170  0.1854
 9753TIP3    H250675   4.274   0.756   3.187 -0.5863 -0.5919 -0.5504
 9754TIP3   OH250676   6.607   3.776  12.515 -0.4198 -0.3603  0.1074
 9754TIP3    H150677   6.567   3.695  12.546  0.2155 -0.8945 -0.4434
 9754TIP3    H250678   6.700   3.766  12.533 -0.1518 -0.3404 -1.1926
 9755TIP3   OH250679   5.130   6.347   4.578 -0.0707 -0.4724  0.3163
 9755TIP3    H150680   5.086   6.302   4.650  0.2390  0.4491  1.0982
 9755TIP3    H250681   5.129   6.283   4.506 -1.9201 -0.7800  0.5589
 9756TIP3   OH250682   1.361   1.212  13.391 -0.3840 -0.1665  0.3258
 9756TIP3    H150683   1.447   1.245  13.419 -0.3405 -1.2914  1.6576
 9756TIP3    H250684   1.378   1.122  13.364 -0.7987  0.2688 -1.5185
 9757TIP3   OH250685   4.332   5.977  12.095  0.0614  0.2611  0.2276
 9757TIP3    H150686   4.242   5.948  12.083  0.1454 -0.0152  0.2785
 9757TIP3    H250687   4.331   6.068  12.064  0.2285 -0.3536 -1.7775
 9758TIP3   OH250688   0.677   5.730   3.984  0.1734  0.4810  0.0878
 9758TIP3    H150689   0.632   5.779   3.915 -0.5018  1.2307  1.0315
 9758TIP3    H250690   0.635   5.644   3.983 -0.8777  0.9671  0.5242
 9759TIP3   OH250691   5.969   4.096  13.950 -0.0548 -0.1463  0.1346
 9759TIP3    H150692   5.991   4.188  13.934 -0.8949 -0.0772 -0.6766
 9759TIP3    H250693   5.956   4.091  14.045  1.5118  0.2219  0.3830
 9760TIP3   OH250694   1.085   5.945  11.327  0.1099 -0.9203 -0.8420
 9760TIP3    H150695   1.068   5.907  11.241  1.9322  0.8644 -2.0860
 9760TIP3    H250696   1.175   5.921  11.347  0.3156  0.2163 -0.2946
 9761TIP3   OH250697   5.819   2.495  14.717 -0.4324 -0.2290 -0.0071
 9761TIP3    H150698   5.840   2.464  14.805  0.3592 -0.4908 -0.2812
 9761TIP3    H250699   5.753   2.434  14.685  1.7608 -2.2972 -0.9028
 9762TIP3   OH250700   6.668   6.370  12.031  0.1474  0.2926  0.9016
 9762TIP3    H150701   6.612   6.293  12.030  1.6952 -0.8893  0.1675
 9762TIP3    H250702   6.608   6.444  12.046 -1.7529 -0.7541 -0.9749
 9763TIP3   OH250703   1.570   1.066  15.168 -0.1114 -1.4485 -0.6478
 9763TIP3    H150704   1.627   1.101  15.236 -1.3202  0.2761 -0.4731
 9763TIP3    H250705   1.623   1.070  15.088  0.1805 -0.3038 -0.4115
 9764TIP3   OH250706   4.613   3.901  14.256 -0.2146 -0.6957 -0.5215
 9764TIP3    H150707   4.680   3.879  14.191 -1.4379  1.7208 -2.8102
 9764TIP3    H250708   4.658   3.959  14.318  0.7464 -2.3292  0.3879
 9765TIP3   OH250709   5.494   5.515  10.568  0.2184 -0.1903  0.0610
 9765TIP3    H150710   5.437   5.535  10.494 -1.6266  0.6233  1.6165
 9765TIP3    H250711   5.525   5.426  10.551 -1.1907 -0.4996 -1.0580
 9766TIP3   OH250712   5.977   4.581   4.004  0.3557  0.1096  0.0091
 9766TIP3    H150713   5.955   4.550   4.092  0.6159 -0.2866 -0.0667
 9766TIP3    H250714   5.914   4.537   3.947  1.1436 -0.7969 -0.1747
 9767TIP3   OH250715   0.182   1.055  10.620  0.0413  0.5477 -0.3112
 9767TIP3    H150716   0.194   1.022  10.531 -0.9160 -1.9628  0.4022
 9767TIP3    H250717   0.130   1.134  10.609  0.1525  0.4322 -2.0069
 9768TIP3   OH250718   5.310   3.396   1.599  0.2337  0.6277 -0.2071
 9768TIP3    H150719   5.389   3.422   1.551  1.2650 -2.1346 -0.2197
 9768TIP3    H250720   5.244   3.383   1.531 -0.8237  4.3460 -0.0915
 9769TIP3   OH250721   5.787   1.636   6.241  0.3011  0.2619 -1.0045
 9769TIP3    H150722   5.754   1.698   6.306  1.9639  0.6199 -0.4298
 9769TIP3    H250723   5.710   1.606   6.194 -0.9869 -0.0173  1.1496
 9770TIP3   OH250724   3.475   4.658  16.749 -0.3797  0.0653  0.6822
 9770TIP3    H150725   3.562   4.668  16.787  0.0476 -0.3729 -0.1489
 9770TIP3    H250726   3.437   4.745  16.752  0.3935  0.4192  0.3201
 9771TIP3   OH250727   3.048   0.180   5.600 -0.6821  0.0369 -0.0964
 9771TIP3    H150728   3.137   0.185   5.566  0.2024  3.1847  2.2546
 9771TIP3    H250729   3.046   0.097   5.649  1.3651  0.4118  0.7086
 9772TIP3   OH250730   0.666   6.493  13.389 -0.2575  0.3234 -0.1945
 9772TIP3    H150731   0.590   6.438  13.368 -1.2748  1.7103 -0.2588
 9772TIP3    H250732   0.676   6.484  13.484  0.2282 -0.7579 -0.3328
 9773TIP3   OH250733   3.619   3.689  15.352  0.3671 -0.3710 -0.0306
 9773TIP3    H150734   3.577   3.653  15.430  1.9836 -1.3299  0.4366
 9773TIP3    H250735   3.633   3.613  15.295 -0.8749  0.3264 -1.3410
 9774TIP3   OH250736   6.108   4.874  14.144  0.4316  0.1347  0.8342
 9774TIP3    H150737   6.106   4.897  14.237  2.1726  0.8540  0.7294
 9774TIP3    H250738   6.172   4.934  14.106 -1.7323  1.3071 -1.2602
 9775TIP3   OH250739   2.799   0.940  15.606 -0.4921  0.0986 -0.0587
 9775TIP3    H150740   2.819   0.952  15.513 -0.5441  1.4178  0.0774
 9775TIP3    H250741   2.729   0.875  15.607  0.0005 -0.4565 -0.8933
 9776TIP3   OH250742   1.328   1.486  16.268 -0.1627 -0.7043 -0.0110
 9776TIP3    H150743   1.286   1.434  16.199  0.4800  0.0359 -0.9782
 9776TIP3    H250744   1.422   1.472  16.255 -0.0376 -0.7330  0.8655
 9777TIP3   OH250745   2.925   6.454   1.256  0.0259  0.2007 -0.4588
 9777TIP3    H150746   2.859   6.522   1.270  0.7814  0.7614  0.5008
 9777TIP3    H250747   2.875   6.379   1.223 -0.9576  0.8916 -0.5990
 9778TIP3   OH250748   6.458   5.177   0.942 -0.1703 -0.3978  0.5769
 9778TIP3    H150749   6.388   5.226   0.986  0.1188 -0.5481  1.2016
 9778TIP3    H250750   6.411   5.117   0.883 -0.5510 -0.0648  0.5314
 9779TIP3   OH250751   3.438   0.073  10.892 -0.1415 -0.3046  0.2280
 9779TIP3    H150752   3.526   0.109  10.879  0.1100 -0.7468  0.6786
 9779TIP3    H250753   3.430   0.006  10.824 -0.5567  0.4901 -0.5212
 9780TIP3   OH250754   3.075   1.175   0.416 -0.3386 -0.0167 -0.7464
 9780TIP3    H150755   3.142   1.166   0.348  0.6918  0.8049  0.1082
 9780TIP3    H250756   2.998   1.131   0.381  1.1756 -2.6771 -0.9976
 9781TIP3   OH250757   0.081   5.676  14.730 -0.0846 -0.1578 -0.1563
 9781TIP3    H150758  -0.014   5.680  14.722 -0.1198  2.0804  0.6852
 9781TIP3    H250759   0.097   5.650  14.820  0.0319  1.2138  0.2508
 9782TIP3   OH250760   2.284   5.233   4.182  0.1939  0.0787  0.6744
 9782TIP3    H150761   2.344   5.198   4.248  0.1645  2.5345  2.1322
 9782TIP3    H250762   2.305   5.185   4.102  2.7752 -0.4744  1.5997
 9783TIP3   OH250763   1.271   3.063  15.943 -0.1506 -0.3885 -0.2461
 9783TIP3    H150764   1.222   3.038  16.022  1.8718 -1.4759  0.7563
 9783TIP3    H250765   1.284   2.980  15.896  1.3223 -0.2727 -0.0946
 9784TIP3   OH250766   6.708   5.523  14.476  0.2258  0.0071  0.4939
 9784TIP3    H150767   6.636   5.565  14.524 -1.2763 -0.9151 -0.8779
 9784TIP3    H250768   6.760   5.596  14.441 -0.7243  0.7007  0.5040
 9785TIP3   OH250769   5.493   2.023   1.294 -0.0737 -0.3686  0.2115
 9785TIP3    H150770   5.507   2.105   1.247  2.0410 -1.8799 -2.0932
 9785TIP3    H250771   5.564   2.019   1.358 -1.6165  0.6303  2.0882
 9786TIP3   OH250772   6.132   0.524   6.278 -0.2306  0.8426  0.3113
 9786TIP3    H150773   6.164   0.434   6.288 -0.8884  0.7294  1.7470
 9786TIP3    H250774   6.181   0.574   6.343 -0.7661  1.2675  0.4013
 9787TIP3   OH250775   6.125   5.120   1.870 -0.0167  0.6366 -0.1227
 9787TIP3    H150776   6.168   5.037   1.891  0.0168  0.1206 -2.0545
 9787TIP3    H250777   6.062   5.133   1.941  0.3668 -0.7432  0.5097
 9788TIP3   OH250778   4.606   1.053   2.100  0.4403 -0.3546  0.2890
 9788TIP3    H150779   4.586   0.965   2.069  0.3560  0.0185 -0.7929
 9788TIP3    H250780   4.684   1.079   2.051  0.6461  0.0523  0.8233
 9789TIP3   OH250781   2.793   3.142   5.069  0.1891  0.1946  0.2795
 9789TIP3    H150782   2.881   3.135   5.031  0.0574 -0.0293  0.0143
 9789TIP3    H250783   2.737   3.165   4.995  0.0469  0.4752  0.4757
 9790TIP3   OH250784   3.232   4.161  16.516 -0.4593  0.0650 -0.0240
 9790TIP3    H150785   3.157   4.101  16.515 -1.2301  1.0046 -0.3487
 9790TIP3    H250786   3.302   4.110  16.557 -2.3150  0.3970  4.1030
 9791TIP3   OH250787   1.342   0.305  17.207 -0.5167  0.0659  0.2289
 9791TIP3    H150788   1.431   0.297  17.242 -0.8931 -1.7869  0.8856
 9791TIP3    H250789   1.286   0.296  17.284 -1.2814  1.3417 -0.1650
 9792TIP3   OH250790   4.248   4.496  15.995 -0.2838 -0.0276 -0.6474
 9792TIP3    H150791   4.269   4.577  16.042  1.9925 -0.1146 -1.3795
 9792TIP3    H250792   4.181   4.454  16.049  1.5774  0.2608  2.1413
 9793TIP3   OH250793   4.615   0.738   0.119  0.7494 -0.5785 -0.3075
 9793TIP3    H150794   4.537   0.792   0.131  3.1258  2.7686  1.5466
 9793TIP3    H250795   4.589   0.652   0.152 -2.2048  0.3122 -0.0411
 9794TIP3   OH250796   0.037   4.201  17.118 -0.5601 -0.7606  0.0304
 9794TIP3    H150797  -0.004   4.286  17.104  2.8124  1.0038 -0.2036
 9794TIP3    H250798   0.103   4.195  17.049  1.7669 -1.8050  2.2018
 9795TIP3   OH250799   0.698   5.701   5.160 -0.4557  1.0752  0.1864
 9795TIP3    H150800   0.706   5.679   5.252 -2.2516 -0.1821  0.0819
 9795TIP3    H250801   0.709   5.618   5.114 -0.7462  1.4932 -0.6698
 9796TIP3   OH250802   3.848   5.466  11.979 -0.4412  0.2457 -0.1770
 9796TIP3    H150803   3.845   5.437  11.888  0.5213 -1.3368  0.2597
 9796TIP3    H250804   3.873   5.558  11.974 -0.7235  0.2641 -1.5213
 9797TIP3   OH250805   1.617   0.979  14.326 -0.1900  0.2729 -0.0408
 9797TIP3    H150806   1.544   0.948  14.379 -0.2629  3.4315  1.9989
 9797TIP3    H250807   1.695   0.944  14.369 -0.3103  1.8870  1.5981
 9798TIP3   OH250808   2.210   1.486   1.157 -0.3060 -0.2588 -0.0770
 9798TIP3    H150809   2.278   1.433   1.116  0.6229  0.4137  0.5559
 9798TIP3    H250810   2.183   1.547   1.089  0.1949 -0.1050 -0.1416
 9799TIP3   OH250811   5.023   1.315   5.585  0.2433  0.7349  0.2927
 9799TIP3    H150812   4.990   1.312   5.675 -0.4275 -1.7673  0.0597
 9799TIP3    H250813   4.981   1.240   5.542  2.8104  0.0855 -1.2891
 9800TIP3   OH250814   2.474   5.120   2.926  0.1826  0.3756 -0.4957
 9800TIP3    H150815   2.551   5.135   2.870  0.8515  2.0699  0.7852
 9800TIP3    H250816   2.508   5.073   3.002 -0.7285 -1.9373 -1.4233
 9801TIP3   OH250817   4.815   5.755   2.153  0.2410  0.0978 -0.5677
 9801TIP3    H150818   4.803   5.808   2.075  0.4414 -2.3407 -2.3793
 9801TIP3    H250819   4.891   5.794   2.197 -1.5393  3.1756 -0.0162
 9802TIP3   OH250820   6.564   1.438   5.526  0.5983 -0.4130 -0.1236
 9802TIP3    H150821   6.500   1.392   5.580  0.2775 -0.3413 -0.4342
 9802TIP3    H250822   6.648   1.396   5.545  0.6968  0.3515  1.2908
 9803TIP3   OH250823   0.514   5.122   1.956  0.6017  0.8346  0.2717
 9803TIP3    H150824   0.444   5.131   2.021  0.5983 -1.7276  0.7270
 9803TIP3    H250825   0.552   5.210   1.949 -1.1671  1.7707  1.7036
 9804TIP3   OH250826   6.668   3.547   1.615 -0.4839 -0.4376 -0.2338
 9804TIP3    H150827   6.589   3.492   1.613 -0.3314 -0.6287 -1.5171
 9804TIP3    H250828   6.655   3.610   1.545  0.0956  0.1277  0.1636
 9805TIP3   OH250829   5.145   4.713   2.071  0.0122 -0.5422  0.5355
 9805TIP3    H150830   5.062   4.745   2.107 -0.2015 -1.0744  0.5401
 9805TIP3    H250831   5.142   4.735   1.978 -0.6396 -1.5243  0.3006
 9806TIP3   OH250832   6.484   3.220  13.641  0.4104  0.2050  0.4137
 9806TIP3    H150833   6.518   3.302  13.606 -0.1449  0.5622  0.6954
 9806TIP3    H250834   6.457   3.242  13.730  1.2259 -0.5394  0.8559
 9807TIP3   OH250835   2.943   0.811   5.776  0.5227  0.0547 -0.4453
 9807TIP3    H150836   2.940   0.748   5.704 -0.1037 -1.0567  0.5119
 9807TIP3    H250837   2.855   0.808   5.814  1.0660 -0.0090  0.8613
 9808TIP3   OH250838   4.771   2.550  15.680  0.2108 -0.2918 -0.2257
 9808TIP3    H150839   4.735   2.468  15.647  1.4590 -1.5246  1.3485
 9808TIP3    H250840   4.863   2.549  15.653  0.1293  0.8620 -0.6327
 9809TIP3   OH250841   0.764   4.952  12.908  0.0736  0.0500 -0.2713
 9809TIP3    H150842   0.745   4.866  12.946 -0.6318 -0.0001 -0.7133
 9809TIP3    H250843   0.794   5.005  12.982 -0.5273 -0.2701  0.2122
 9810TIP3   OH250844   2.639   0.735   5.529 -0.2274 -0.7763  0.1890
 9810TIP3    H150845   2.578   0.715   5.600 -2.1834 -1.6736 -1.6305
 9810TIP3    H250846   2.600   0.809   5.483  1.9457  0.9902  1.0369
 9811TIP3   OH250847   4.061   0.117  12.521  0.6537 -0.0054  0.5666
 9811TIP3    H150848   4.020   0.202  12.508  2.4136  0.8219  0.3141
 9811TIP3    H250849   4.114   0.127  12.600 -1.1013 -1.6681  2.0842
 9812TIP3   OH250850   3.926   1.313  13.771  0.1010 -0.0754  0.2400
 9812TIP3    H150851   3.979   1.337  13.847  0.3366 -2.3918  0.9103
 9812TIP3    H250852   3.976   1.343  13.696  2.0136 -1.4428  0.8931
 9813TIP3   OH250853   5.705   2.422   1.050 -0.4917  0.1520  0.4617
 9813TIP3    H150854   5.779   2.386   1.002 -1.0782  1.7139 -1.7663
 9813TIP3    H250855   5.732   2.511   1.073 -1.7530  0.8933 -0.7450
 9814TIP3   OH250856   0.381   3.402  11.440 -0.2594  0.7024  0.3220
 9814TIP3    H150857   0.452   3.354  11.483 -0.8182 -2.0232 -1.5616
 9814TIP3    H250858   0.415   3.422  11.352 -1.6288 -0.3596 -0.4974
 9815TIP3   OH250859   1.647   2.424   4.343 -0.0185  0.9166 -0.5546
 9815TIP3    H150860   1.599   2.376   4.411  0.7338 -0.5701 -1.0203
 9815TIP3    H250861   1.600   2.506   4.333 -2.1701 -0.2578 -0.6419
 9816TIP3   OH250862   5.092   3.307   1.427 -0.0156 -0.1034 -0.2390
 9816TIP3    H150863   5.023   3.373   1.424  2.3352  2.5560  0.0548
 9816TIP3    H250864   5.058   3.238   1.484 -2.2544  1.2832  0.1944
 9817TIP3   OH250865   0.301   1.422  13.733  0.7791 -0.5140  0.0585
 9817TIP3    H150866   0.366   1.472  13.782  1.4744 -1.5380  0.2196
 9817TIP3    H250867   0.231   1.403  13.796 -1.1879  3.0747 -0.8140
 9818TIP3   OH250868   4.367   0.624  11.296 -0.5852 -0.1727 -0.0666
 9818TIP3    H150869   4.344   0.701  11.349  1.1947  1.3792 -1.4507
 9818TIP3    H250870   4.340   0.647  11.207  0.6513 -0.8270 -0.6334
 9819TIP3   OH250871   4.462   1.000   6.276 -0.2685  0.3079 -0.0779
 9819TIP3    H150872   4.411   1.032   6.351  0.9656  1.7805  0.1844
 9819TIP3    H250873   4.511   0.925   6.310  1.2300  1.7094  1.0006
 9820TIP3   OH250874   1.762   2.549   6.360  0.9802 -0.1747 -0.0050
 9820TIP3    H150875   1.713   2.624   6.325 -0.8178 -1.5925 -0.6997
 9820TIP3    H250876   1.777   2.493   6.283  2.6408 -0.3712  0.4287
 9821TIP3   OH250877   1.600   5.504   5.127  0.2212 -0.2215 -0.5799
 9821TIP3    H150878   1.559   5.590   5.116 -0.2250 -0.1831  1.0687
 9821TIP3    H250879   1.530   5.441   5.107 -0.0060 -0.1769  0.0645
 9822TIP3   OH250880   6.113   2.140   2.425 -0.6705  0.4258  0.1208
 9822TIP3    H150881   6.108   2.121   2.518  0.1108  0.9230  0.2732
 9822TIP3    H250882   6.066   2.222   2.414 -0.9853  0.2362  0.0298
 9823TIP3   OH250883   3.950   1.041   1.502  0.6663  0.3909 -0.3668
 9823TIP3    H150884   4.019   1.078   1.558 -1.0938  0.1048  2.1904
 9823TIP3    H250885   3.888   1.113   1.490  0.3000  0.0284 -0.6761
 9824TIP3   OH250886   1.793   4.598  14.993  0.5883  0.0848  0.1670
 9824TIP3    H150887   1.717   4.548  15.023  0.5180 -0.7541 -1.3372
 9824TIP3    H250888   1.835   4.627  15.074 -0.8680 -0.1307  1.0399
 9825TIP3   OH250889   4.836   0.673   0.418 -0.0983  0.2243  0.0090
 9825TIP3    H150890   4.862   0.726   0.344 -0.5720 -0.1748 -0.4518
 9825TIP3    H250891   4.740   0.672   0.415 -0.1449  0.5497  0.8723
 9826TIP3   OH250892   5.105   6.266   6.061  0.0990  0.2397  0.2363
 9826TIP3    H150893   5.161   6.323   6.008  1.6567  0.7628  2.3239
 9826TIP3    H250894   5.078   6.197   6.001  1.7944  0.7818 -1.2375
 9827TIP3   OH250895   6.270   6.012  15.495  0.2506  1.2277  0.4585
 9827TIP3    H150896   6.187   5.973  15.467  0.6870  1.4453 -1.3071
 9827TIP3    H250897   6.307   5.950  15.558  0.3959 -0.7181 -1.4199
 9828TIP3   OH250898   2.174   4.158  11.500 -0.5351 -0.4895  0.1445
 9828TIP3    H150899   2.090   4.113  11.507 -1.2454  0.7711  0.0099
 9828TIP3    H250900   2.178   4.187  11.409  1.9082 -3.9658 -1.0829
 9829TIP3   OH250901   4.340   1.259  14.293 -0.1653 -0.4291 -0.6955
 9829TIP3    H150902   4.378   1.171  14.292 -0.2660 -0.4773 -1.6689
 9829TIP3    H250903   4.411   1.317  14.265 -0.3429 -0.3109 -0.9061
 9830TIP3   OH250904   1.619   0.957  11.146 -0.4397 -0.3374  0.2070
 9830TIP3    H150905   1.587   0.879  11.101  0.5939 -2.1861  2.4289
 9830TIP3    H250906   1.693   0.926  11.199  0.4435  2.3062  0.7021
 9831TIP3   OH250907   1.349   5.046   3.553  0.0853 -0.1317 -0.0308
 9831TIP3    H150908   1.367   5.134   3.585  1.1934  0.3937 -1.9496
 9831TIP3    H250909   1.428   5.021   3.506  0.0065 -2.3980  0.9082
 9832TIP3   OH250910   2.505   6.520  15.652 -0.0141  0.5069  0.9044
 9832TIP3    H150911   2.432   6.549  15.596  1.7471  0.9041 -1.3314
 9832TIP3    H250912   2.575   6.583  15.636  1.8989 -1.5932  0.4732
 9833TIP3   OH250913   3.987   2.041   2.380 -0.0849  0.6114  0.3804
 9833TIP3    H150914   3.923   1.971   2.372 -0.8686  1.3816 -0.3215
 9833TIP3    H250915   4.062   2.001   2.423 -1.4112 -0.0712  2.1505
 9834TIP3   OH250916   1.145   2.265  12.732 -0.4258  0.0810  0.1543
 9834TIP3    H150917   1.154   2.173  12.705  1.1321 -0.4294  2.1332
 9834TIP3    H250918   1.109   2.309  12.655 -0.7084 -2.0800 -1.0442
 9835TIP3   OH250919   0.778   1.542  15.113  0.0068 -0.3526 -0.5403
 9835TIP3    H150920   0.840   1.567  15.045  1.3589 -0.1531  0.7344
 9835TIP3    H250921   0.760   1.449  15.096  1.3481 -0.6483 -0.3879
 9836TIP3   OH250922   4.142   4.657  15.019 -0.4770  0.5936  0.1035
 9836TIP3    H150923   4.207   4.644  15.088 -0.7639  0.1948  0.3047
 9836TIP3    H250924   4.185   4.626  14.939 -0.6621 -0.3642  0.3555
 9837TIP3   OH250925   4.463   6.574  10.954  0.5571  0.2071  0.0670
 9837TIP3    H150926   4.395   6.547  10.892  0.4253 -0.3542  0.4540
 9837TIP3    H250927   4.545   6.549  10.911  0.4501 -0.5321  0.2810
 9838TIP3   OH250928   2.710   5.247   2.775 -0.1481 -0.7641 -0.8190
 9838TIP3    H150929   2.758   5.297   2.842  0.4252  0.2735 -1.9754
 9838TIP3    H250930   2.729   5.156   2.796 -0.8438 -0.5235  1.0689
 9839TIP3   OH250931   6.384   1.140   5.029 -0.2867  0.1141  0.2714
 9839TIP3    H150932   6.376   1.127   4.934 -3.1230  2.2741  0.0926
 9839TIP3    H250933   6.403   1.234   5.039 -0.2518 -0.0308  1.8571
 9840TIP3   OH250934   4.415   5.394  16.055 -0.5925 -0.2416  0.6118
 9840TIP3    H150935   4.392   5.313  16.010  0.7331 -0.7807  0.8451
 9840TIP3    H250936   4.439   5.367  16.144  4.1692 -0.3393 -0.4575
 9841TIP3   OH250937   6.076   6.448   0.122 -0.0289 -0.5471 -0.0105
 9841TIP3    H150938   6.014   6.408   0.183  0.8827 -0.1325  1.2574
 9841TIP3    H250939   6.150   6.473   0.178  0.1304  1.3977 -1.0091
 9842TIP3   OH250940   5.719   6.609  16.658 -0.2977  0.1466  0.1235
 9842TIP3    H150941   5.783   6.589  16.589  1.2961 -1.0843  1.8689
 9842TIP3    H250942   5.723   6.704  16.667  0.7654  0.1629 -0.3164
 9843TIP3   OH250943   1.874   2.771   4.281  1.0021 -0.4958 -0.0151
 9843TIP3    H150944   1.965   2.751   4.258  1.2751  1.1461 -0.5202
 9843TIP3    H250945   1.829   2.775   4.196  0.6226 -0.5817  0.1824
 9844TIP3   OH250946   0.365   3.428  14.484  0.6886  0.6815 -0.2151
 9844TIP3    H150947   0.284   3.380  14.502  0.7416  1.6246  3.1139
 9844TIP3    H250948   0.336   3.516  14.462  0.7726  0.8777  0.4445
 9845TIP3   OH250949   3.021   0.744   4.192 -0.5268  0.1496 -0.0008
 9845TIP3    H150950   2.993   0.660   4.230  0.1451 -0.4208 -0.7346
 9845TIP3    H250951   3.109   0.758   4.226 -0.5719  0.4672 -0.0169
 9846TIP3   OH250952   6.654   4.496   4.905 -0.3508  0.2897 -0.0689
 9846TIP3    H150953   6.571   4.523   4.867 -0.3892 -0.6669 -0.6993
 9846TIP3    H250954   6.649   4.401   4.909  0.4354  0.2619  0.5417
 9847TIP3   OH250955   5.499   5.513  17.024  0.0450  0.3714 -0.1056
 9847TIP3    H150956   5.568   5.477  16.968  0.2259  0.8578 -0.2033
 9847TIP3    H250957   5.544   5.577  17.079 -0.4185  1.1298 -0.5780
 9848TIP3   OH250958   4.119   0.299  12.877  0.3408  0.2470 -0.4497
 9848TIP3    H150959   4.046   0.299  12.815  1.1028  0.3996 -1.3674
 9848TIP3    H250960   4.190   0.254  12.832  1.4306  1.7569 -0.3357
 9849TIP3   OH250961   6.667   3.751   5.822  0.1400  0.2208 -0.5632
 9849TIP3    H150962   6.585   3.768   5.776 -0.4980  0.6403  0.6817
 9849TIP3    H250963   6.680   3.657   5.815 -1.7055 -0.2289  1.1927
 9850TIP3   OH250964   5.129   1.718   3.667  0.4652  0.2934 -0.0348
 9850TIP3    H150965   5.138   1.625   3.685 -2.1167  0.2284  1.3794
 9850TIP3    H250966   5.114   1.723   3.572  0.1846 -0.7871 -0.0605
 9851TIP3   OH250967   1.247   3.945   3.889  0.4704  0.3829  0.0953
 9851TIP3    H150968   1.327   3.978   3.931  2.5415 -2.7248 -1.0767
 9851TIP3    H250969   1.180   3.954   3.957  2.7922 -0.7926  2.7636
 9852TIP3   OH250970   2.217   6.401   5.667 -0.1480 -0.2663 -0.8488
 9852TIP3    H150971   2.290   6.457   5.640 -0.3001 -0.8011 -2.4896
 9852TIP3    H250972   2.165   6.391   5.587 -0.7069 -1.8590 -0.3100
 9853TIP3   OH250973   2.588   6.410   5.410 -0.2102  0.1474 -0.6649
 9853TIP3    H150974   2.638   6.355   5.471  0.3005  3.8189  2.6391
 9853TIP3    H250975   2.654   6.453   5.356 -0.2045  0.7575 -0.1875
 9854TIP3   OH250976   3.471   0.682  10.941  0.7539 -0.4440 -0.5032
 9854TIP3    H150977   3.454   0.736  10.864  1.3100 -1.1145 -1.1088
 9854TIP3    H250978   3.402   0.615  10.940  2.3184 -2.1499 -2.0232
 9855TIP3   OH250979   3.951   4.432  12.793  0.2805 -0.1402  0.1096
 9855TIP3    H150980   3.938   4.350  12.841 -3.3420 -0.8933 -1.7891
 9855TIP3    H250981   4.010   4.409  12.721  2.9686  0.1930  2.0306
 9856TIP3   OH250982   4.829   6.163  15.438  0.1114 -0.2425 -0.7022
 9856TIP3    H150983   4.818   6.255  15.413 -0.2906 -0.2313 -0.4966
 9856TIP3    H250984   4.811   6.162  15.532  1.2085 -0.3531 -0.4868
 9857TIP3   OH250985   6.575   1.848   0.994  0.0763  0.1757 -0.4052
 9857TIP3    H150986   6.622   1.931   0.987 -1.8254  1.2772 -0.8108
 9857TIP3    H250987   6.530   1.839   0.910 -1.8966  0.1367  0.5864
 9858TIP3   OH250988   3.412   4.347   2.527 -0.6538  0.8797 -0.2738
 9858TIP3    H150989   3.408   4.305   2.613  0.2807  0.1410 -0.5696
 9858TIP3    H250990   3.357   4.425   2.535  1.8522  2.6086  2.0043
 9859TIP3   OH250991   2.977   4.277   1.742 -0.5334  0.1920 -0.2989
 9859TIP3    H150992   3.007   4.361   1.708 -0.1507 -0.3077 -1.2072
 9859TIP3    H250993   3.057   4.229   1.763 -0.7523  0.2909  0.8541
 9860TIP3   OH250994   5.820   1.069  13.058 -0.1844  0.0220 -0.5048
 9860TIP3    H150995   5.878   1.123  13.005 -1.0870 -0.1546 -1.7187
 9860TIP3    H250996   5.735   1.076  13.015 -0.7459 -0.8366  0.4250
 9861TIP3   OH250997   0.209   6.682   3.277 -0.1929 -0.9793  0.2512
 9861TIP3    H150998   0.168   6.657   3.359  0.1109  1.5760  1.2580
 9861TIP3    H250999   0.146   6.654   3.210 -1.6069 -0.9419  1.4990
 9862TIP3   OH251000   4.942   2.169   1.794 -0.0798  0.1912  0.5570
 9862TIP3    H151001   4.892   2.191   1.715  0.1125  0.3763  0.4872
 9862TIP3    H251002   4.879   2.179   1.866 -0.3802 -0.4242  0.3860
 9863TIP3   OH251003   0.347   1.606  11.878 -0.5724 -0.2644 -0.2060
 9863TIP3    H151004   0.272   1.549  11.897 -2.1550  1.6060 -0.5314
 9863TIP3    H251005   0.334   1.634  11.788 -0.7326  1.8354  0.4237
 9864TIP3   OH251006   1.631   5.907  15.065 -0.7753  0.5757  0.0784
 9864TIP3    H151007   1.695   5.948  15.123  0.1179 -0.1811 -0.3392
 9864TIP3    H251008   1.583   5.980  15.027  0.2000  1.2003  0.0117
 9865TIP3   OH251009   0.953   1.200  15.248 -0.5952  0.4714  0.9083
 9865TIP3    H151010   0.945   1.119  15.197 -0.5723  1.0915 -0.1270
 9865TIP3    H251011   1.027   1.246  15.207 -0.5627  0.9840  1.5289
 9866TIP3   OH251012   5.495   3.350   3.865 -0.0808 -0.1209  0.2425
 9866TIP3    H151013   5.486   3.442   3.839 -2.9320 -0.1093  1.0083
 9866TIP3    H251014   5.546   3.354   3.947 -0.3732  0.7912  0.3932
 9867TIP3   OH251015   3.527   1.004  13.720  0.0435  0.4029  0.0112
 9867TIP3    H151016   3.595   1.063  13.688  0.2553 -0.0565 -0.3952
 9867TIP3    H251017   3.552   0.986  13.811  2.3314 -2.3091 -0.9851
 9868TIP3   OH251018   6.111   4.445  14.509  0.0975  0.2899 -0.2971
 9868TIP3    H151019   6.094   4.357  14.543  0.3906  0.8880  1.5095
 9868TIP3    H251020   6.111   4.434  14.413  0.3194 -1.6998 -0.1209
 9869TIP3   OH251021   0.164   2.283   0.936  0.0884  0.0937  0.0575
 9869TIP3    H151022   0.119   2.284   0.851  0.7534  1.0225 -0.3106
 9869TIP3    H251023   0.256   2.268   0.913  0.2528  0.2180  0.6271
 9870TIP3   OH251024   1.774   4.483  11.397  0.5054 -0.2351 -0.4378
 9870TIP3    H151025   1.842   4.549  11.383  2.2072 -1.8017  0.0684
 9870TIP3    H251026   1.820   4.400  11.392 -1.7505 -1.4940 -2.1404
 9871TIP3   OH251027   3.611   5.517   6.697 -0.5964 -0.2423  0.2554
 9871TIP3    H151028   3.655   5.524   6.612  0.8974 -0.8175  0.9442
 9871TIP3    H251029   3.590   5.424   6.705  0.6927 -0.4843  1.1597
 9872TIP3   OH251030   6.612   5.267   2.482 -0.6520  0.0885  0.5755
 9872TIP3    H151031   6.706   5.280   2.484 -0.5258 -0.7110  0.2871
 9872TIP3    H251032   6.597   5.190   2.537 -0.9409 -0.8107 -0.7153
 9873TIP3   OH251033   2.577   6.208   2.376 -0.6522  0.2338  0.0734
 9873TIP3    H151034   2.568   6.300   2.349  1.2588  0.6913  0.8374
 9873TIP3    H251035   2.530   6.203   2.459 -0.5493  0.5963  0.1573
 9874TIP3   OH251036   1.290   3.073   1.305 -0.0118 -0.1721 -0.1305
 9874TIP3    H151037   1.299   2.989   1.260 -0.0091 -0.3607  0.2151
 9874TIP3    H251038   1.374   3.117   1.292 -0.6307  0.5881 -1.9046
 9875TIP3   OH251039   5.565   3.958  12.737 -0.1429 -0.7874  0.0020
 9875TIP3    H151040   5.552   3.873  12.696  0.8555 -0.9888  0.0787
 9875TIP3    H251041   5.484   3.974  12.785  0.2182 -2.3996  1.2420
 9876TIP3   OH251042   4.889   1.418  14.475  0.0794  0.1841 -0.0564
 9876TIP3    H151043   4.810   1.469  14.493 -0.0509 -0.2484  0.6444
 9876TIP3    H251044   4.861   1.327  14.481  0.9216 -0.0048  1.7394
 9877TIP3   OH251045   2.135   4.134   1.723  0.5693 -0.5103 -0.1794
 9877TIP3    H151046   2.185   4.214   1.739  0.6955 -0.8983  1.5932
 9877TIP3    H251047   2.199   4.063   1.738 -0.3185 -0.9965  1.5763
 9878TIP3   OH251048   2.641   5.009   6.330  0.1403 -0.1508  0.5444
 9878TIP3    H151049   2.614   5.100   6.340 -0.1026 -0.1919  0.2665
 9878TIP3    H251050   2.695   4.991   6.407 -1.5891 -0.4317  1.7261
 9879TIP3   OH251051   1.428   5.329   6.145  0.6057  0.2341  0.1403
 9879TIP3    H151052   1.514   5.336   6.105  0.0439 -0.7632 -1.3151
 9879TIP3    H251053   1.445   5.335   6.239  2.0394  1.8981 -0.1872
 9880TIP3   OH251054   1.729   5.480  10.838  0.6200  0.7580  0.3333
 9880TIP3    H151055   1.659   5.502  10.900 -0.1410  0.9193 -0.5693
 9880TIP3    H251056   1.728   5.552  10.775  0.8152  0.1577 -0.3589
 9881TIP3   OH251057   3.653   1.865   3.558 -0.3896  0.0275  0.1733
 9881TIP3    H151058   3.702   1.890   3.637 -0.2470  0.9416 -0.1988
 9881TIP3    H251059   3.714   1.811   3.508 -0.2747 -0.0667  0.4146
 9882TIP3   OH251060   4.542   1.453  14.219  0.2074 -0.2037 -0.5711
 9882TIP3    H151061   4.470   1.510  14.246 -0.7064 -2.0796  1.3013
 9882TIP3    H251062   4.621   1.505  14.235 -0.5551  0.3993  1.6313
 9883TIP3   OH251063   3.843   1.468   2.038 -0.3278  0.4593 -0.4525
 9883TIP3    H151064   3.792   1.391   2.066  0.6849  0.2836  1.0129
 9883TIP3    H251065   3.838   1.528   2.112  1.4873  0.4697 -0.3003
 9884TIP3   OH251066   1.022   4.638   3.416 -0.7099  0.1328  0.4615
 9884TIP3    H151067   1.074   4.678   3.486  0.8070 -2.1988  0.8037
 9884TIP3    H251068   0.989   4.712   3.366  2.8728  1.8747  0.2901
 9885TIP3   OH251069   5.923   6.240  16.856  0.3793 -0.0400  0.0370
 9885TIP3    H151070   5.989   6.253  16.924  1.2669 -0.3562 -0.7262
 9885TIP3    H251071   5.845   6.284  16.888  1.4308  1.7121  0.2875
 9886TIP3   OH251072   4.782   3.506   2.603  0.2846  0.8033 -0.0939
 9886TIP3    H151073   4.806   3.576   2.663 -3.3811  0.9585  1.4751
 9886TIP3    H251074   4.755   3.551   2.523  2.3834  0.7781 -0.8731
 9887TIP3   OH251075   5.476   2.295  15.438  0.4261  0.3686 -0.2989
 9887TIP3    H151076   5.569   2.311  15.457  0.3318  1.0628 -0.4024
 9887TIP3    H251077   5.441   2.381  15.418 -0.1706  0.0578 -0.5962
 9888TIP3   OH251078   1.684   3.846  15.437  0.4161 -0.3534  0.0017
 9888TIP3    H151079   1.673   3.754  15.415 -0.2482  0.2134 -2.3366
 9888TIP3    H251080   1.733   3.883  15.363 -0.7341  1.4477  0.0627
 9889TIP3   OH251081   5.286   5.259   4.335  0.3340 -0.0705  0.1467
 9889TIP3    H151082   5.277   5.350   4.363  2.7422  0.5248 -0.6918
 9889TIP3    H251083   5.272   5.261   4.240 -1.4298 -0.9484  0.3449
 9890TIP3   OH251084   3.698   2.721   3.353  0.0341  0.7881  0.1377
 9890TIP3    H151085   3.612   2.738   3.392  0.5863  0.5988  1.4865
 9890TIP3    H251086   3.713   2.627   3.367  0.6480  0.9052  0.3122
 9891TIP3   OH251087   5.323   5.233   3.827 -0.3367  0.5445  0.0367
 9891TIP3    H151088   5.365   5.312   3.792  3.3970 -1.3169 -0.2354
 9891TIP3    H251089   5.276   5.196   3.752  0.2349  1.1002 -0.6149
 9892TIP3   OH251090   1.180   2.912  11.868  0.6607 -0.0526  0.1254
 9892TIP3    H151091   1.235   2.906  11.946  0.1603 -0.2846  0.4655
 9892TIP3    H251092   1.115   2.843  11.879 -0.2083  0.7429  0.1402
 9893TIP3   OH251093   4.161   6.452  14.713  0.3867 -0.2587  0.0021
 9893TIP3    H151094   4.117   6.414  14.637 -0.1259 -0.3666  0.3459
 9893TIP3    H251095   4.194   6.536  14.682  0.4865 -0.4580 -0.4365
 9894TIP3   OH251096   6.191   2.830  11.691  0.3749 -0.2108  0.2210
 9894TIP3    H151097   6.227   2.917  11.675 -1.9631  1.1623  1.8050
 9894TIP3    H251098   6.117   2.823  11.629  0.7246 -1.2264 -0.1063
 9895TIP3   OH251099   5.191   3.169  15.697 -0.1320 -0.6524 -0.0668
 9895TIP3    H151100   5.207   3.134  15.609  1.6269  0.0110 -0.0422
 9895TIP3    H251101   5.102   3.203  15.693 -0.1529 -0.8106 -1.5296
 9896TIP3   OH251102   5.614   4.248  13.436 -0.2490 -0.1823 -0.1131
 9896TIP3    H151103   5.534   4.259  13.384 -0.9549  0.3128  1.0346
 9896TIP3    H251104   5.655   4.169  13.400 -1.1616 -0.3508 -0.8356
 9897TIP3   OH251105   4.091   2.956  17.008  0.7436  0.0090 -0.1424
 9897TIP3    H151106   4.148   2.915  16.942  0.9423  1.2422 -0.7553
 9897TIP3    H251107   4.151   2.986  17.076  0.6734  0.0171 -0.0849
 9898TIP3   OH251108   0.860   0.324   6.145 -0.8732  0.3835  0.2357
 9898TIP3    H151109   0.888   0.280   6.065  0.6925  3.1098 -0.8698
 9898TIP3    H251110   0.780   0.278   6.171 -0.2924 -1.9305 -1.6794
 9899TIP3   OH251111   2.722   3.454  13.688 -0.0459  0.9982  0.4182
 9899TIP3    H151112   2.644   3.501  13.659 -0.4269  0.1673  0.0577
 9899TIP3    H251113   2.690   3.368  13.715  0.9718 -0.2144 -1.8792
 9900TIP3   OH251114   4.410   5.045  12.199  0.4260 -0.4846  0.2615
 9900TIP3    H151115   4.343   5.083  12.256  1.2407  1.0226  0.2565
 9900TIP3    H251116   4.367   5.038  12.113  0.1406  0.0715  0.3559
 9901TIP3   OH251117   1.822   4.303  12.660 -0.4847 -0.3525 -0.2438
 9901TIP3    H151118   1.868   4.360  12.598 -1.4524  0.2081 -0.4731
 9901TIP3    H251119   1.875   4.223  12.663  1.2729  0.7766  0.5859
 9902TIP3   OH251120   6.172   6.765   1.059 -0.0006  0.0545  0.7570
 9902TIP3    H151121   6.152   6.741   1.150  1.1066  2.3128  1.6784
 9902TIP3    H251122   6.102   6.724   1.008 -0.3453 -1.7353  2.5454
 9903TIP3   OH251123   6.306   0.631   6.474 -0.0770 -0.2952  0.2755
 9903TIP3    H151124   6.388   0.594   6.508 -0.4380  0.5885  2.2839
 9903TIP3    H251125   6.241   0.612   6.543 -0.9814  1.2062 -0.1070
 9904TIP3   OH251126   3.269   4.170   4.770  0.0118  0.3547 -0.4299
 9904TIP3    H151127   3.278   4.260   4.799  1.9363  0.9121 -2.4436
 9904TIP3    H251128   3.203   4.173   4.701 -1.9694 -0.3279  1.3657
 9905TIP3   OH251129   5.408   1.543   6.434 -0.2807  0.4490  0.6395
 9905TIP3    H151130   5.499   1.519   6.448 -0.4991 -0.2640  0.8888
 9905TIP3    H251131   5.359   1.491   6.498 -0.7727  1.6172  1.2391
 9906TIP3   OH251132   2.344   0.145   6.115 -0.4439  0.2514 -0.0496
 9906TIP3    H151133   2.272   0.102   6.068 -1.0377  0.0919  0.9877
 9906TIP3    H251134   2.309   0.231   6.139 -0.4839 -0.0396  0.9423
 9907TIP3   OH251135   3.505   5.588   5.327 -0.8844 -0.0033  0.2076
 9907TIP3    H151136   3.551   5.644   5.390 -0.1957 -0.4108  0.0786
 9907TIP3    H251137   3.555   5.596   5.246 -1.3193 -0.0877 -0.0743
 9908TIP3   OH251138   4.758   1.289  12.248 -0.7570 -0.2273 -0.0158
 9908TIP3    H151139   4.667   1.287  12.278 -1.2988 -1.3995 -1.6354
 9908TIP3    H251140   4.756   1.341  12.168  0.1857  0.4866  0.3961
 9909TIP3   OH251141   3.634   1.100  16.371  0.1851 -0.2192 -0.2252
 9909TIP3    H151142   3.726   1.125  16.356  0.9290 -1.8159  1.3214
 9909TIP3    H251143   3.597   1.173  16.420  0.9213 -0.0080  0.0286
 9910TIP3   OH251144   0.433   0.119   4.381  0.0828  0.4064 -0.4457
 9910TIP3    H151145   0.398   0.093   4.466  0.5470 -1.0085 -0.6666
 9910TIP3    H251146   0.369   0.085   4.318  0.3225  0.4475 -0.7125
 9911TIP3   OH251147   5.122   4.361  12.894  0.2410 -0.0444 -0.0042
 9911TIP3    H151148   5.121   4.396  12.805 -0.9043  2.0979  0.7847
 9911TIP3    H251149   5.057   4.412  12.941  0.9750 -0.9572  2.1433
 9912TIP3   OH251150   4.894   2.855   5.617 -0.6727 -0.0170  0.0340
 9912TIP3    H151151   4.817   2.811   5.581 -1.5439 -0.5725  2.3539
 9912TIP3    H251152   4.937   2.895   5.542 -2.0463 -1.5075 -1.6236
 9913TIP3   OH251153   5.932   1.775  16.926 -0.0264 -0.0157  0.0460
 9913TIP3    H151154   5.890   1.717  16.989  1.0596 -1.4939 -0.5361
 9913TIP3    H251155   5.869   1.846  16.913 -0.6613 -0.1425  2.0688
 9914TIP3   OH251156   1.440   2.762   0.024  0.3957 -0.6420 -0.0608
 9914TIP3    H151157   1.457   2.854   0.047  1.7156 -0.1052 -2.7773
 9914TIP3    H251158   1.398   2.766  -0.062 -2.2767 -2.5439  1.0360
 9915TIP3   OH251159   6.649   4.853  15.964  0.0244  0.2370 -0.5919
 9915TIP3    H151160   6.565   4.836  15.921  0.1095  0.3374 -0.7991
 9915TIP3    H251161   6.678   4.766  15.992  1.2536 -0.2659 -3.1133
 9916TIP3   OH251162   5.582   3.852  10.339  0.6174 -0.4489 -0.0839
 9916TIP3    H151163   5.525   3.842  10.415 -0.7968  0.8338 -0.9192
 9916TIP3    H251164   5.607   3.945  10.340 -0.0466 -0.2268 -1.5871
 9917TIP3   OH251165   3.216   2.399  14.128 -0.1920 -0.3869  1.0179
 9917TIP3    H151166   3.208   2.420  14.222 -0.2538  0.1186  0.9005
 9917TIP3    H251167   3.178   2.311  14.120 -0.1880 -0.4322  1.4665
 9918TIP3   OH251168   1.471   4.162  15.998 -0.2920  0.1709  0.5478
 9918TIP3    H151169   1.396   4.220  16.005  0.7626  1.4860  1.7324
 9918TIP3    H251170   1.525   4.200  15.928 -0.5034 -0.4983  0.0140
 9919TIP3   OH251171   5.069   4.617  14.457 -0.1380 -0.1483 -0.5304
 9919TIP3    H151172   5.070   4.524  14.436  0.6574 -0.1601 -0.4738
 9919TIP3    H251173   5.094   4.621  14.549  1.3755  0.2075 -0.9351
 9920TIP3   OH251174   4.243   3.070  12.707  0.2236  0.0780 -0.1408
 9920TIP3    H151175   4.308   3.121  12.756  1.6633 -1.9590  0.2155
 9920TIP3    H251176   4.196   3.134  12.655  2.0274  1.7510  0.1745
 9921TIP3   OH251177   4.274   3.446   0.229  0.0091 -0.0497 -0.5410
 9921TIP3    H151178   4.273   3.368   0.285  0.5880 -1.3443 -2.2514
 9921TIP3    H251179   4.298   3.413   0.142 -1.7894  1.7216 -1.7997
 9922TIP3   OH251180   0.130   5.913  13.306 -0.0841  0.0898  0.3873
 9922TIP3    H151181   0.174   5.852  13.365 -0.8604 -1.6164 -0.7050
 9922TIP3    H251182   0.036   5.898  13.323 -0.4782 -2.2285 -2.7769
 9923TIP3   OH251183   0.420   1.715  12.752 -0.1621  0.0393 -0.5504
 9923TIP3    H151184   0.358   1.653  12.714 -1.0092  1.7777 -2.1593
 9923TIP3    H251185   0.483   1.660  12.798 -1.5864 -1.9240 -0.7996
 9924TIP3   OH251186   2.151   1.948   5.889  0.3153 -0.2143 -0.1885
 9924TIP3    H151187   2.199   1.871   5.860 -0.7378 -0.7360 -0.6013
 9924TIP3    H251188   2.140   1.936   5.984  1.6791  0.3149  0.0568
 9925TIP3   OH251189   6.285   2.589   0.294 -0.8351  0.1576 -0.3934
 9925TIP3    H151190   6.370   2.630   0.277 -0.8095  0.0732 -0.4706
 9925TIP3    H251191   6.224   2.636   0.238 -0.6011 -0.6888 -1.3708
 9926TIP3   OH251192   3.197   1.343   2.407 -0.0505  0.2042 -0.2505
 9926TIP3    H151193   3.195   1.367   2.500 -2.6167 -0.2548 -0.1252
 9926TIP3    H251194   3.177   1.250   2.405  1.1854 -0.0725 -1.2427
 9927TIP3   OH251195   5.257   5.980   1.448 -0.1082  0.5791 -0.1373
 9927TIP3    H151196   5.163   5.999   1.444 -0.0099  1.1778  0.2653
 9927TIP3    H251197   5.294   6.020   1.369 -0.0940  0.9381  0.0496
 9928TIP3   OH251198   5.514   6.546  13.700 -0.0187 -0.7035  0.3854
 9928TIP3    H151199   5.565   6.591  13.633  0.3679 -2.4364 -0.5425
 9928TIP3    H251200   5.487   6.464  13.659  0.1030 -1.7679  2.2863
 9929TIP3   OH251201   5.008   6.427  16.573  0.3194  0.3726  1.1268
 9929TIP3    H151202   4.993   6.362  16.504 -0.1259 -1.4311  2.8261
 9929TIP3    H251203   5.096   6.461  16.555 -0.3936  1.2003 -1.2431
 9930TIP3   OH251204   1.054   3.014   0.127 -0.0630 -0.8055  0.0400
 9930TIP3    H151205   1.094   2.955   0.064  1.0278 -1.8231  1.6257
 9930TIP3    H251206   1.076   2.977   0.213  0.3975  1.7078  1.0989
 9931TIP3   OH251207   4.696   3.530  13.255 -0.0497 -0.1768 -0.6573
 9931TIP3    H151208   4.631   3.471  13.217  0.1315 -0.0384 -1.1850
 9931TIP3    H251209   4.769   3.472  13.279 -0.2104 -0.2791 -0.4129
 9932TIP3   OH251210   2.915   4.634  14.923  0.2463 -0.2261 -0.8620
 9932TIP3    H151211   2.838   4.691  14.919  1.4106  1.3659 -1.7775
 9932TIP3    H251212   2.957   4.644  14.838  1.6239 -0.8450 -0.2902
 9933TIP3   OH251213   6.032   3.021   4.964 -0.5324  0.0307 -0.0625
 9933TIP3    H151214   6.053   3.066   5.046  3.5849  0.3675 -1.0853
 9933TIP3    H251215   6.040   3.089   4.897 -0.0068 -1.0300 -1.1040
 9934TIP3   OH251216   2.599   0.444  13.191  0.9462  0.3386 -0.1486
 9934TIP3    H151217   2.632   0.532  13.176  2.7179 -0.3380 -0.5035
 9934TIP3    H251218   2.579   0.441  13.284  2.8937  0.5131  0.3116
 9935TIP3   OH251219   1.565   3.730  12.165  0.3818  0.1168  0.0066
 9935TIP3    H151220   1.588   3.703  12.254  1.3103 -0.4704 -0.3969
 9935TIP3    H251221   1.499   3.799  12.177 -0.8623 -1.2056  1.0912
 9936TIP3   OH251222   3.061   6.706   2.373  0.3439 -0.3811  0.3302
 9936TIP3    H151223   2.968   6.725   2.383 -0.0111 -0.4175 -2.1761
 9936TIP3    H251224   3.073   6.621   2.413 -0.6674 -0.2849  0.8575
 9937TIP3   OH251225   1.004   6.722  12.882 -0.5762  0.1888  0.5308
 9937TIP3    H151226   1.064   6.657  12.919  0.0256  0.2783 -0.2609
 9937TIP3    H251227   0.933   6.728  12.946  1.2605  1.6398  2.5976
 9938TIP3   OH251228   3.747   3.640   0.469 -0.0297 -0.5116  0.1012
 9938TIP3    H151229   3.665   3.593   0.454 -0.3150 -0.2593  0.8164
 9938TIP3    H251230   3.815   3.574   0.458 -0.0623 -0.1362 -3.4600
 9939TIP3   OH251231   0.121   5.474   3.862  0.4415  0.0716 -0.1549
 9939TIP3    H151232   0.131   5.533   3.937 -1.9565 -0.3369  0.5533
 9939TIP3    H251233   0.165   5.394   3.889 -0.3619 -0.0527  0.8139
 9940TIP3   OH251234   5.422   0.105   0.413 -0.1633  0.1781  0.8157
 9940TIP3    H151235   5.387   0.142   0.494  0.3353  1.2612  0.5581
 9940TIP3    H251236   5.462   0.022   0.440  2.0194  1.5647  2.1473
 9941TIP3   OH251237   1.897   4.374  15.291  0.1997  0.1739 -0.2416
 9941TIP3    H151238   1.814   4.400  15.252 -0.2317 -1.0786 -0.2197
 9941TIP3    H251239   1.960   4.438  15.259 -0.6050  0.6253 -0.9752
 9942TIP3   OH251240   2.875   4.884  13.839  0.1191 -0.5929  0.1029
 9942TIP3    H151241   2.837   4.945  13.776  2.1614 -0.7460 -1.3455
 9942TIP3    H251242   2.868   4.930  13.923 -0.3557  0.7122 -0.6131
 9943TIP3   OH251243   3.254   3.362   2.512 -0.3293  0.2273 -0.6114
 9943TIP3    H151244   3.218   3.333   2.428  0.0573 -1.1036 -0.3405
 9943TIP3    H251245   3.348   3.349   2.504 -0.3386 -0.4178  0.2097
 9944TIP3   OH251246   4.852   3.902  14.670  0.2144 -0.3546  0.2422
 9944TIP3    H151247   4.818   3.820  14.707  3.6820 -2.0443  0.1156
 9944TIP3    H251248   4.847   3.889  14.575 -0.1258  0.0102  0.2089
 9945TIP3   OH251249   2.140   0.681   3.306  0.2338 -0.1889 -0.5836
 9945TIP3    H151250   2.106   0.599   3.342  2.2111 -0.0592  1.8426
 9945TIP3    H251251   2.219   0.656   3.258  0.4174  0.2199 -0.5028
 9946TIP3   OH251252   0.023   5.954   0.213  0.3457  0.2983 -0.1400
 9946TIP3    H151253  -0.028   5.904   0.149  1.7581  0.6555 -1.6004
 9946TIP3    H251254   0.074   5.888   0.259  1.0628  0.2317 -1.0092
 9947TIP3   OH251255   0.575   3.411   5.344  0.1857  0.4759 -0.2630
 9947TIP3    H151256   0.608   3.321   5.334 -0.5811  0.2657 -0.9677
 9947TIP3    H251257   0.639   3.453   5.402 -0.5822 -1.1369  1.9198
 9948TIP3   OH251258   4.726   0.922   4.634  0.2938  0.2106  0.3294
 9948TIP3    H151259   4.780   0.855   4.677  0.7592  1.2286  1.3900
 9948TIP3    H251260   4.714   0.989   4.701  0.7722  1.7152 -1.0364
 9949TIP3   OH251261   5.486   6.403  16.158  0.3015  0.1409 -0.1501
 9949TIP3    H151262   5.439   6.436  16.082 -0.5827 -1.2997 -0.2782
 9949TIP3    H251263   5.504   6.481  16.211  0.4566  1.0959 -1.5545
 9950TIP3   OH251264   5.722   3.930   4.487  0.1680  1.3294  0.1390
 9950TIP3    H151265   5.764   3.862   4.540  0.3462 -0.6046 -2.2754
 9950TIP3    H251266   5.634   3.895   4.470  0.4440  1.3927 -1.5892
 9951TIP3   OH251267   2.420   0.828   1.195  0.0748  0.2048  0.2367
 9951TIP3    H151268   2.347   0.774   1.226  0.2637 -1.2217 -1.6575
 9951TIP3    H251269   2.377   0.907   1.161 -0.5292 -0.2240 -0.0306
 9952TIP3   OH251270   4.873   0.535   0.648  0.0409 -0.0044 -0.2999
 9952TIP3    H151271   4.817   0.597   0.695  1.2294  0.3061  0.7721
 9952TIP3    H251272   4.868   0.562   0.556 -2.0176 -0.3743 -0.3426
 9953TIP3   OH251273   0.229   4.916   2.616  1.0444 -0.2170  0.1855
 9953TIP3    H151274   0.146   4.942   2.577  1.4952  2.7305  0.9149
 9953TIP3    H251275   0.229   4.821   2.612 -1.6784 -0.2556 -1.1888
 9954TIP3   OH251276   0.444   1.756   0.121  0.2659 -0.0229 -0.1394
 9954TIP3    H151277   0.534   1.777   0.094  0.7289  0.0517  1.3974
 9954TIP3    H251278   0.392   1.830   0.090  0.9555  0.5963  0.1527
 9955TIP3   OH251279   3.131   3.263  14.583  0.3321  0.0664 -0.3854
 9955TIP3    H151280   3.163   3.333  14.641 -1.0384  2.0639 -1.8894
 9955TIP3    H251281   3.209   3.232  14.537  0.9616  0.6674  0.2453
 9956TIP3   OH251282   1.025   4.790   5.772  0.3006 -0.3508 -0.4008
 9956TIP3    H151283   0.953   4.737   5.736  0.8609 -1.0996 -0.4618
 9956TIP3    H251284   1.066   4.733   5.837  1.7220 -0.5024 -1.3801
 9957TIP3   OH251285   1.896   2.019   4.351  0.2282 -0.0807 -0.0904
 9957TIP3    H151286   1.839   1.953   4.311  0.6323 -0.4070 -0.1311
 9957TIP3    H251287   1.960   2.039   4.284 -0.9255  1.6788 -0.7514
 9958TIP3   OH251288   5.295   1.532  15.219 -0.4555  0.6407  0.5190
 9958TIP3    H151289   5.278   1.439  15.207 -1.9604  0.6117  2.3634
 9958TIP3    H251290   5.364   1.536  15.286 -1.3080  0.8017  1.4269
 9959TIP3   OH251291   3.927   6.520  15.187 -0.4315 -0.2017  0.0702
 9959TIP3    H151292   3.947   6.508  15.094  1.5088 -0.0556  0.4108
 9959TIP3    H251293   3.892   6.608  15.193 -4.7073 -1.6031 -1.0233
 9960TIP3   OH251294   4.235   1.430   3.635 -0.0620  0.0113 -0.1410
 9960TIP3    H151295   4.222   1.492   3.707  2.7305  0.9585 -0.3397
 9960TIP3    H251296   4.200   1.475   3.558 -3.7838 -1.3161  0.5689
 9961TIP3   OH251297   5.619   2.703  12.686  0.3315  0.3022 -0.0135
 9961TIP3    H151298   5.546   2.655  12.726 -0.2959  1.4661  0.3105
 9961TIP3    H251299   5.695   2.648  12.700 -0.8119 -2.0958 -2.4448
 9962TIP3   OH251300   2.262   5.854  15.747 -0.1382  0.1257 -0.2764
 9962TIP3    H151301   2.197   5.874  15.815 -1.0598 -0.1041 -1.0631
 9962TIP3    H251302   2.219   5.790  15.691  0.8715 -0.2121 -0.6853
 9963TIP3   OH251303   4.849   1.330   1.740  0.2419  0.1643  0.0209
 9963TIP3    H151304   4.766   1.287   1.760  0.5232 -0.0738  0.7119
 9963TIP3    H251305   4.848   1.409   1.795  0.8185 -0.2501  0.6389
 9964TIP3   OH251306   1.165   2.786  13.610  0.1465 -0.0452 -0.5789
 9964TIP3    H151307   1.112   2.714  13.575 -0.5184  0.3464 -0.3958
 9964TIP3    H251308   1.101   2.845  13.649  0.8324 -0.1807  0.7801
 9965TIP3   OH251309   1.641   3.156  12.408  0.0827  0.2728 -0.0552
 9965TIP3    H151310   1.615   3.248  12.397  0.2947  0.5799  1.7128
 9965TIP3    H251311   1.667   3.150  12.500 -0.4395 -1.6970 -0.0089
 9966TIP3   OH251312   2.748   2.633  13.198 -0.5089 -0.0642 -0.4126
 9966TIP3    H151313   2.776   2.579  13.125  0.0246 -0.4401  0.0559
 9966TIP3    H251314   2.667   2.593  13.229 -0.4521 -0.2190 -0.4677
 9967TIP3   OH251315   1.493   5.109   5.729 -0.0297 -0.0669  0.3104
 9967TIP3    H151316   1.426   5.045   5.753 -1.3751  0.3841 -1.9481
 9967TIP3    H251317   1.444   5.190   5.711  1.0692  0.2799 -1.3966
 9968TIP3   OH251318   0.766   0.291   5.214 -0.0977 -0.3104  0.1935
 9968TIP3    H151319   0.783   0.242   5.134 -0.6695  1.2916 -0.9637
 9968TIP3    H251320   0.778   0.227   5.284  1.4041 -1.5294 -1.0826
 9969TIP3   OH251321   5.354   0.631   0.565 -0.2470  0.1120  0.8734
 9969TIP3    H151322   5.371   0.610   0.473 -0.6333  1.4786  0.4638
 9969TIP3    H251323   5.264   0.663   0.565  0.0576  0.9774  1.5805
 9970TIP3   OH251324   3.580   3.148  12.227 -0.0475 -0.0724 -0.0441
 9970TIP3    H151325   3.562   3.090  12.301 -0.7823 -0.4908 -0.5386
 9970TIP3    H251326   3.620   3.091  12.161 -0.4371  0.0503 -0.3926
 9971TIP3   OH251327   6.623   0.550  13.930 -0.0584 -1.0601  0.2521
 9971TIP3    H151328   6.572   0.497  13.869 -0.0594 -0.0024 -0.7122
 9971TIP3    H251329   6.701   0.575  13.881 -1.0342  1.5737 -0.1536
 9972TIP3   OH251330   3.374   3.449  13.137  0.7231 -0.1096 -0.0933
 9972TIP3    H151331   3.448   3.424  13.081  0.5896  0.2697 -0.4470
 9972TIP3    H251332   3.362   3.543  13.120  0.4588 -0.0644  0.3142
 9973TIP3   OH251333   3.539   3.360   5.191 -0.5174 -0.4838  0.6136
 9973TIP3    H151334   3.553   3.326   5.280 -1.6886  0.1795  1.0693
 9973TIP3    H251335   3.480   3.434   5.202  0.3548  0.4341 -0.5958
 9974TIP3   OH251336   6.179   5.881   4.067 -0.0945  0.4671  0.8670
 9974TIP3    H151337   6.232   5.925   4.133 -1.2202  0.3668  1.8768
 9974TIP3    H251338   6.195   5.788   4.082 -1.0708  0.4090  1.6523
 9975TIP3   OH251339   4.859   2.802  14.196  0.3887 -0.3536 -0.2580
 9975TIP3    H151340   4.808   2.721  14.186 -0.8464  0.5069 -1.2585
 9975TIP3    H251341   4.794   2.868  14.218  1.1673  0.6605 -0.9228
 9976TIP3   OH251342   6.457   0.689  13.185  0.3268  0.6084 -0.0953
 9976TIP3    H151343   6.409   0.743  13.248 -1.9300 -2.3557  0.9597
 9976TIP3    H251344   6.502   0.624  13.239  0.7845 -0.1991 -1.4110
 9977TIP3   OH251345   6.556   0.993  16.211 -0.8463 -0.6837  0.7561
 9977TIP3    H151346   6.542   0.948  16.294  0.9071 -1.3288  0.7484
 9977TIP3    H251347   6.651   1.009  16.208 -1.2026  1.7085  0.0882
 9978TIP3   OH251348   5.578   2.721  16.421 -0.1066  0.6499  0.0537
 9978TIP3    H151349   5.619   2.695  16.504  1.5878  1.7822 -0.3995
 9978TIP3    H251350   5.494   2.674  16.421 -0.1386  0.5970  2.3831
 9979TIP3   OH251351   0.905   0.012   2.511 -0.2800 -0.2757  0.1536
 9979TIP3    H151352   0.927  -0.068   2.463  0.3682  0.4266 -0.7583
 9979TIP3    H251353   0.810   0.015   2.511 -0.3000 -0.2635 -1.1857
 9980TIP3   OH251354   3.155   1.058  12.719  0.0012  0.3514  0.2417
 9980TIP3    H151355   3.101   1.115  12.663 -1.7134 -1.7055 -0.3269
 9980TIP3    H251356   3.240   1.055  12.675 -0.0265  2.0346  0.0143
 9981TIP3   OH251357   2.501   0.576  14.455 -0.0617 -0.6375 -0.5346
 9981TIP3    H151358   2.419   0.620  14.435  0.2594 -0.9030 -2.7116
 9981TIP3    H251359   2.563   0.647  14.473 -0.0910 -0.2521 -1.8140
 9982TIP3   OH251360   1.806   5.993   3.241 -0.0036  0.8142 -0.2861
 9982TIP3    H151361   1.806   6.067   3.180 -0.7433 -0.0103 -1.3244
 9982TIP3    H251362   1.774   6.030   3.324  0.1628  1.7680 -0.6390
 9983TIP3   OH251363   3.981   6.744   3.945  0.1161  0.4517 -0.0586
 9983TIP3    H151364   3.960   6.727   4.037 -1.2823 -0.6335 -0.5546
 9983TIP3    H251365   4.070   6.710   3.935  0.3693  0.7763  0.9335
 9984TIP3   OH251366   0.131   0.345   0.035 -0.3829 -0.0617  0.1940
 9984TIP3    H151367   0.153   0.287  -0.038  0.5733  2.5738 -1.7467
 9984TIP3    H251368   0.035   0.348   0.034 -0.4057 -0.6673 -0.4321
 9985TIP3   OH251369   2.355   0.541   4.557  0.1487  0.6626  0.2300
 9985TIP3    H151370   2.397   0.455   4.549  1.6978  1.4549 -0.4736
 9985TIP3    H251371   2.426   0.600   4.582 -0.9438  1.7136  0.9576
 9986TIP3   OH251372   2.550   4.587   5.282 -0.1389 -0.2411  0.6635
 9986TIP3    H151373   2.496   4.522   5.327 -2.8339  1.6770  0.4578
 9986TIP3    H251374   2.499   4.668   5.289  2.3779  1.5304 -0.3379
 9987TIP3   OH251375   0.439   2.176   0.360  0.4116  0.0024 -0.9495
 9987TIP3    H151376   0.436   2.173   0.456 -1.7952  1.5713 -0.8971
 9987TIP3    H251377   0.450   2.268   0.339  0.3476 -0.2565 -2.2188
 9988TIP3   OH251378   2.016   3.026  11.612 -0.2704  0.0811  0.2517
 9988TIP3    H151379   2.013   2.936  11.644 -1.2873 -0.8425 -2.1411
 9988TIP3    H251380   2.062   3.020  11.528 -0.6648  1.7324 -0.1268
 9989TIP3   OH251381   2.294   5.110   0.056 -0.3433  0.0980 -0.3145
 9989TIP3    H151382   2.303   5.104   0.151 -0.4703  2.5671 -0.0750
 9989TIP3    H251383   2.383   5.099   0.023 -0.2275 -0.3227  0.1284
 9990TIP3   OH251384   6.748   1.609  12.191 -0.0507  0.3176 -0.0095
 9990TIP3    H151385   6.685   1.652  12.249  1.9055 -0.4079  2.8912
 9990TIP3    H251386   6.794   1.681  12.148  0.2767  1.0450  1.4870
 9991TIP3   OH251387   5.604   1.005  16.499 -0.0942  0.3006 -0.4876
 9991TIP3    H151388   5.589   0.979  16.590 -0.7249  0.3189 -0.5821
 9991TIP3    H251389   5.698   0.990  16.485 -0.2507 -1.0087 -0.2448
 9992TIP3   OH251390   2.079   4.516  12.739 -0.0192 -0.2439 -0.1715
 9992TIP3    H151391   2.065   4.440  12.796 -0.9434  0.4227  0.5172
 9992TIP3    H251392   2.058   4.483  12.651  0.4083 -1.0061  0.0016
 9993TIP3   OH251393   3.869   1.341   1.782  0.5458  0.4114 -0.1907
 9993TIP3    H151394   3.958   1.316   1.806  0.9942  1.4877 -0.6806
 9993TIP3    H251395   3.847   1.412   1.843  0.4636  0.9223 -0.7999
 9994TIP3   OH251396   0.207   0.034   3.677  0.1142 -0.2460 -0.0610
 9994TIP3    H151397   0.166  -0.031   3.619 -1.4138  0.4591  0.1624
 9994TIP3    H251398   0.222  -0.012   3.759 -0.9524 -0.3384  0.0945
 9995TIP3   OH251399   2.133   0.120   2.960 -0.3488 -0.4487  0.1099
 9995TIP3    H151400   2.095   0.151   3.042  0.1663 -0.3528  0.3153
 9995TIP3    H251401   2.122   0.195   2.900 -0.1857 -0.3009  0.2629
 9996TIP3   OH251402   5.779   6.321  11.899  0.2867 -0.0106  0.2697
 9996TIP3    H151403   5.701   6.373  11.881  0.1421 -0.7479 -1.4798
 9996TIP3    H251404   5.753   6.263  11.970 -0.8162 -0.2851 -0.3256
 9997TIP3   OH251405   5.893   4.707  10.318  0.1720 -0.2401 -0.2505
 9997TIP3    H151406   5.955   4.703  10.391  0.0024 -1.0421 -0.1422
 9997TIP3    H251407   5.934   4.654  10.249 -0.4537 -0.8970 -0.1258
 9998TIP3   OH251408   2.509   0.010   3.403  0.3144 -0.4415  0.1789
 9998TIP3    H151409   2.442   0.073   3.375  1.1701 -0.1801 -1.4232
 9998TIP3    H251410   2.585   0.064   3.422  0.5918 -0.8699  0.2841
 9999TIP3   OH251411   3.203   3.591   6.382 -0.2792 -0.0687 -0.7090
 9999TIP3    H151412   3.272   3.526   6.368 -0.4745 -0.1498 -1.3332
 9999TIP3    H251413   3.138   3.547   6.437  1.0737  0.6499  1.5883
10000TIP3   OH251414   1.959   1.824  13.153 -0.4383  0.1123  0.3850
10000TIP3    H151415   2.027   1.813  13.220 -0.9815  0.2911  0.9782
10000TIP3    H251416   1.937   1.735  13.126  0.5782  0.0758 -0.3882
10001TIP3   OH251417   0.223   6.293   1.878 -0.2029 -0.2217  0.3173
10001TIP3    H151418   0.152   6.358   1.880 -0.4500 -0.5042  0.9548
10001TIP3    H251419   0.245   6.284   1.785 -1.6661 -0.8518  0.0060
10002TIP3   OH251420   3.164   3.076  17.189 -0.2388 -0.2532 -0.0466
10002TIP3    H151421   3.178   2.990  17.150  2.3660 -0.6218  1.4487
10002TIP3    H251422   3.184   3.064  17.282  0.0936  1.9349  0.2182
10003TIP3   OH251423   0.352   4.382   0.009 -0.0269  0.4956 -0.2055
10003TIP3    H151424   0.305   4.374  -0.074  1.4901  1.2743 -1.1838
10003TIP3    H251425   0.403   4.301   0.015  0.9151  1.0339 -0.7402
10004TIP3   OH251426   4.687   3.039  16.274 -0.3480 -0.2343  0.0845
10004TIP3    H151427   4.743   3.025  16.198 -0.5938  0.7249 -0.2868
10004TIP3    H251428   4.711   2.969  16.335  1.0782  0.0126 -0.1577
10005TIP3   OH251429   4.117   1.073  11.656 -0.0774  0.2135  0.1075
10005TIP3    H151430   4.023   1.061  11.643 -0.0732  0.0894  0.1879
10005TIP3    H251431   4.141   1.142  11.595 -0.0566 -0.3646 -0.5543
10006TIP3   OH251432   1.630   1.748   3.412  0.6492  0.3148  0.7499
10006TIP3    H151433   1.619   1.658   3.383  0.2107  0.4111  0.6167
10006TIP3    H251434   1.656   1.796   3.333 -0.6416  0.5957  0.4832
10007TIP3   OH251435   0.521   4.749  13.117 -0.8417 -0.3245 -0.2754
10007TIP3    H151436   0.572   4.701  13.183  0.3178  0.6967 -0.4012
10007TIP3    H251437   0.495   4.830  13.161 -1.1688 -0.2181 -0.6596
10008TIP3   OH251438   2.632   3.543  15.623 -0.3017  0.1904  0.4600
10008TIP3    H151439   2.559   3.547  15.561 -0.6589  1.0055  0.9119
10008TIP3    H251440   2.703   3.502  15.574 -0.5207  0.9673 -0.5469
10009TIP3   OH251441   2.511   3.607   2.848  0.0983 -0.2275  0.6675
10009TIP3    H151442   2.454   3.532   2.868  0.2385 -0.0394  1.8579
10009TIP3    H251443   2.461   3.683   2.876 -0.0317  0.1383 -0.5233
10010TIP3   OH251444   5.710   2.101   6.419  0.2915  0.8651 -0.4404
10010TIP3    H151445   5.705   2.189   6.458 -1.4981  1.1601 -1.2075
10010TIP3    H251446   5.753   2.115   6.334  0.6795  0.8770 -0.2417
10011TIP3   OH251447   6.355   5.916   5.757 -0.3065  0.3726  1.0767
10011TIP3    H151448   6.449   5.901   5.745 -0.3254 -0.5541  2.0196
10011TIP3    H251449   6.328   5.850   5.819 -1.5105  0.9259  1.1585
10012TIP3   OH251450   4.280   2.566  15.975  0.1932 -0.4360 -0.0775
10012TIP3    H151451   4.237   2.561  15.889  1.3479 -0.5708 -0.6672
10012TIP3    H251452   4.341   2.640  15.966 -0.0168 -0.1504  0.7929
10013TIP3   OH251453   1.396   3.211   2.157  0.0693  0.0697  0.1083
10013TIP3    H151454   1.399   3.149   2.084 -0.9435  0.5472 -0.3675
10013TIP3    H251455   1.303   3.220   2.177  0.0244  2.4998 -0.7969
10014TIP3   OH251456   0.473   1.397  15.095 -0.3918 -0.0096  0.1777
10014TIP3    H151457   0.447   1.439  15.177  1.2086  2.1347 -0.3166
10014TIP3    H251458   0.499   1.470  15.038 -0.1731 -1.5254 -1.7794
10015TIP3   OH251459   0.486   1.717   5.514  0.2563 -0.0139 -0.3721
10015TIP3    H151460   0.445   1.712   5.601 -1.7204  2.7311 -1.0062
10015TIP3    H251461   0.484   1.627   5.481  1.1089 -1.1555  2.3776
10016TIP3   OH251462   1.148   4.928  14.240  0.4446 -0.2306 -0.5433
10016TIP3    H151463   1.066   4.947  14.193 -0.5115 -2.8387 -0.1374
10016TIP3    H251464   1.121   4.872  14.313  2.8059 -4.1637 -2.3390
10017TIP3   OH251465   3.738   2.623  15.699  0.4660 -0.4289  0.1785
10017TIP3    H151466   3.829   2.627  15.670  0.9663 -0.3150  1.7243
10017TIP3    H251467   3.737   2.560  15.770 -0.1275  1.5256  1.9960
10018TIP3   OH251468   3.607   5.442   1.023  0.2934 -0.2826 -0.2876
10018TIP3    H151469   3.698   5.469   1.006  0.2357 -0.2876 -0.6155
10018TIP3    H251470   3.599   5.357   0.980 -0.3365  0.4523 -1.7001
10019TIP3   OH251471   6.725   5.124   0.945 -0.0124 -0.2386  0.5723
10019TIP3    H151472   6.637   5.162   0.951 -0.7578 -1.6525 -0.7869
10019TIP3    H251473   6.722   5.047   1.001  0.3805 -0.2706  0.5522
10020TIP3   OH251474   4.334   2.268   5.108 -0.4727  0.5146  0.2486
10020TIP3    H151475   4.257   2.318   5.082 -0.0569  1.1126  0.1584
10020TIP3    H251476   4.313   2.178   5.082 -1.4617  0.5245  0.9503
10021TIP3   OH251477   3.388   3.908   0.652  0.2854 -0.1878 -0.5682
10021TIP3    H151478   3.357   3.899   0.743 -1.0171 -1.0407 -1.0627
10021TIP3    H251479   3.481   3.885   0.656  0.8023  1.9015  0.8975
10022TIP3   OH251480   4.648   4.937   3.917 -0.2593 -0.4242  0.5030
10022TIP3    H151481   4.574   4.951   3.858  0.8032  0.0128 -0.7905
10022TIP3    H251482   4.611   4.889   3.991 -1.7746 -0.4480 -0.2252
10023TIP3   OH251483   0.359   6.246   2.333  0.2871  0.0579 -0.5406
10023TIP3    H151484   0.347   6.153   2.316  0.4222 -0.2533  0.9114
10023TIP3    H251485   0.357   6.287   2.247  0.3734 -1.3004 -1.2121
10024TIP3   OH251486   5.242   0.395  14.676  0.3570  0.7424 -0.2270
10024TIP3    H151487   5.238   0.445  14.594  0.9814 -0.6074 -1.1161
10024TIP3    H251488   5.192   0.315  14.657  2.8282 -0.8883 -0.2828
10025TIP3   OH251489   6.557   2.447   3.970 -0.9565 -0.7089  0.0859
10025TIP3    H151490   6.633   2.425   4.024  0.4096  0.1801 -1.3858
10025TIP3    H251491   6.527   2.364   3.935  0.8208 -0.8760 -1.1653
10026TIP3   OH251492   5.377   1.011  13.909  0.1023  0.7550 -0.4891
10026TIP3    H151493   5.473   1.006  13.919 -0.0010 -1.8059 -0.3662
10026TIP3    H251494   5.352   0.929  13.867 -2.3487 -0.1165  2.3233
10027TIP3   OH251495   5.902   1.256  14.625 -0.7012  0.4004 -0.0959
10027TIP3    H151496   5.825   1.232  14.572 -1.1370  2.2593 -0.3805
10027TIP3    H251497   5.886   1.214  14.710 -1.9431  0.5836 -0.2104
10028TIP3   OH251498   3.449   1.645   0.314  0.0479 -0.0442 -0.0813
10028TIP3    H151499   3.437   1.617   0.404  2.6497  2.0533  1.0704
10028TIP3    H251500   3.417   1.573   0.261 -1.1000 -1.5549  2.5127
10029TIP3   OH251501   3.290   5.057  13.562  0.2802  0.4007  0.2493
10029TIP3    H151502   3.266   4.983  13.619  0.3143 -0.6162 -1.0008
10029TIP3    H251503   3.211   5.074  13.511  0.7563  0.1436 -0.5950
10030TIP3   OH251504   3.066   4.458   3.726  0.4992 -0.0213 -0.4974
10030TIP3    H151505   3.121   4.499   3.659  2.7398 -1.8612  0.0749
10030TIP3    H251506   3.103   4.487   3.809 -0.7694  0.3697 -0.0473
10031TIP3   OH251507   0.337   5.818  11.835  0.3923 -0.1950 -0.7457
10031TIP3    H151508   0.324   5.912  11.830 -1.6585 -0.4476 -1.1507
10031TIP3    H251509   0.382   5.795  11.753 -0.0985  0.3044 -1.1611
10032TIP3   OH251510   3.747   2.789  14.084  0.0854 -0.2590 -0.2673
10032TIP3    H151511   3.742   2.865  14.026 -1.2241 -0.4167 -0.3765
10032TIP3    H251512   3.676   2.801  14.147  0.1549 -1.1569 -0.0013
10033TIP3   OH251513   1.647   2.963  11.642  0.3970 -0.4666  0.6909
10033TIP3    H151514   1.621   2.870  11.646 -1.5559  0.0658  1.8883
10033TIP3    H251515   1.659   2.980  11.548 -0.3218 -1.6528  0.3515
10034TIP3   OH251516   5.820   0.437   2.406 -0.8265 -0.2577 -0.2129
10034TIP3    H151517   5.755   0.475   2.347 -0.7796 -0.6534 -0.5225
10034TIP3    H251518   5.895   0.496   2.401 -1.2034  0.2791  0.2528
10035TIP3   OH251519   0.493   3.750   1.515  0.1655 -0.0993  0.3354
10035TIP3    H151520   0.525   3.693   1.446  1.2993  1.2643 -0.3031
10035TIP3    H251521   0.569   3.801   1.542 -1.2010  2.7215 -0.6891
10036TIP3   OH251522   3.417   3.574  17.056  0.2448 -0.0400 -0.3900
10036TIP3    H151523   3.373   3.489  17.051 -1.3637  0.7510 -0.6867
10036TIP3    H251524   3.392   3.609  17.141  2.3497 -0.5599  0.5007
10037TIP3   OH251525   2.861   0.109   0.088 -0.3063 -0.0529  0.0533
10037TIP3    H151526   2.853   0.077  -0.002  2.9215 -0.2199 -0.2914
10037TIP3    H251527   2.905   0.038   0.135  2.5011  1.8027  0.4761
10038TIP3   OH251528   0.169   6.346   0.897  0.1361  0.6586  0.8015
10038TIP3    H151529   0.134   6.429   0.863  1.5014  1.3629  1.0466
10038TIP3    H251530   0.254   6.369   0.933  0.5374 -0.8629  0.8909
10039TIP3   OH251531   1.567   0.956   0.060 -0.4280  0.2130 -0.0809
10039TIP3    H151532   1.557   0.956  -0.035 -0.3563 -2.0458 -0.1222
10039TIP3    H251533   1.489   0.912   0.093  0.0460  0.0415  0.8565
10040TIP3   OH251534   0.560   4.133  15.484 -0.0757 -0.6404 -0.1882
10040TIP3    H151535   0.472   4.122  15.448 -0.4615 -0.3848  0.6397
10040TIP3    H251536   0.605   4.191  15.423 -1.1362  0.8610  0.4109
10041TIP3   OH251537   5.541   6.239   5.738  0.6555  0.3675  0.1814
10041TIP3    H151538   5.637   6.234   5.731  0.6410 -2.7431  0.5906
10041TIP3    H251539   5.523   6.208   5.827 -0.7979 -2.8268 -1.0856
10042TIP3   OH251540   0.721   2.828   3.781 -0.3316  0.1342 -0.4342
10042TIP3    H151541   0.685   2.765   3.720  0.1469  0.2463 -0.8379
10042TIP3    H251542   0.762   2.774   3.850 -0.5653  0.0098 -0.3917
10043TIP3   OH251543   6.032   5.788   5.124  0.0054  0.6683  0.7983
10043TIP3    H151544   6.075   5.729   5.185 -0.5576  0.3301  0.8776
10043TIP3    H251545   5.953   5.741   5.097 -0.6578  1.5443  1.1653
10044TIP3   OH251546   5.232   2.077   2.857 -0.0493 -0.0932 -0.2535
10044TIP3    H151547   5.214   2.012   2.925  1.1193 -1.6864 -1.3832
10044TIP3    H251548   5.272   2.150   2.903  0.7113 -1.1312  0.7814
10045TIP3   OH251549   3.073   1.780   2.135 -0.1096 -0.1539  0.4133
10045TIP3    H151550   3.025   1.860   2.152 -0.4027 -0.3496  0.5189
10045TIP3    H251551   3.086   1.778   2.040  1.9471  1.1837  0.6022
10046TIP3   OH251552   5.646   0.943  16.111 -0.6788 -0.0161  0.7430
10046TIP3    H151553   5.567   0.994  16.097  0.0833  0.4061 -2.9025
10046TIP3    H251554   5.698   0.995  16.173 -1.9042  1.2507  0.7462
10047TIP3   OH251555   0.291   6.719  15.979  0.6209 -0.2927 -0.2023
10047TIP3    H151556   0.225   6.768  15.929 -0.3199 -0.9379  0.3768
10047TIP3    H251557   0.263   6.727  16.070 -1.2665 -4.2649 -0.2523
10048TIP3   OH251558   5.669   0.087  16.756  0.8972 -0.4456  0.5800
10048TIP3    H151559   5.613   0.070  16.832 -2.1344 -2.2937 -1.8276
10048TIP3    H251560   5.630   0.163  16.714  1.0144 -0.9153 -0.4069
10049TIP3   OH251561   0.277   2.059  16.365 -0.0782 -0.5580 -0.1144
10049TIP3    H151562   0.227   2.015  16.434 -1.8428  0.0542 -0.9328
10049TIP3    H251563   0.294   1.990  16.301 -0.4219 -0.6555 -0.1061
10050TIP3   OH251564   5.871   0.818  11.301  0.6487  0.8513 -0.4166
10050TIP3    H151565   5.876   0.744  11.239  0.4640  1.5150 -1.2368
10050TIP3    H251566   5.864   0.895  11.246 -0.3473  1.4055  0.4481
10051TIP3   OH251567   6.173   6.533  13.220 -0.2890 -0.3750  0.3601
10051TIP3    H151568   6.081   6.509  13.231 -0.2386 -0.3636  0.8399
10051TIP3    H251569   6.173   6.628  13.217 -0.1678 -0.3158  1.6814
10052TIP3   OH251570   2.851   0.582   5.611 -0.1171 -0.0484 -0.0858
10052TIP3    H151571   2.804   0.500   5.630  1.0108 -0.4097  1.2731
10052TIP3    H251572   2.782   0.644   5.589 -1.1171 -0.9536  0.3853
10053TIP3   OH251573   5.265   4.987  13.959  0.0251 -0.7264  0.0493
10053TIP3    H151574   5.342   5.016  14.008 -0.1329 -1.3396  0.6671
10053TIP3    H251575   5.198   4.974  14.026 -0.0826 -1.9393 -0.2787
10054TIP3   OH251576   0.626   3.485   2.003 -0.2414 -0.2286 -0.7986
10054TIP3    H151577   0.627   3.403   2.052 -0.5064 -0.2184 -0.7748
10054TIP3    H251578   0.560   3.471   1.935 -0.1061 -0.1269 -0.9518
10055TIP3   OH251579   1.106   5.430   0.555 -0.2010 -0.4863 -0.6765
10055TIP3    H151580   1.060   5.349   0.534  0.1828 -0.9248  0.1356
10055TIP3    H251581   1.199   5.406   0.553 -0.1098 -0.2874  0.3728
10056TIP3   OH251582   3.963   2.229   1.430 -0.4383  0.4931 -0.2372
10056TIP3    H151583   4.004   2.162   1.485  0.6750  1.2570 -0.0935
10056TIP3    H251584   4.030   2.250   1.364 -0.9047  1.2027 -0.4972
10057TIP3   OH251585   4.754   0.855  11.706  0.1873 -0.5647  0.3557
10057TIP3    H151586   4.736   0.942  11.670 -0.2441 -0.2930  1.1914
10057TIP3    H251587   4.681   0.801  11.677  1.2084 -1.0698 -1.4434
10058TIP3   OH251588   5.484   0.509  12.336 -0.6410 -0.2393 -0.2702
10058TIP3    H151589   5.555   0.574  12.328 -0.2722 -0.7198 -1.0150
10058TIP3    H251590   5.516   0.433  12.287  0.3304 -2.2231  3.0808
10059TIP3   OH251591   3.537   0.617   5.715  0.1482 -0.0357  0.0736
10059TIP3    H151592   3.569   0.700   5.679  0.1187  0.0946  0.3448
10059TIP3    H251593   3.551   0.624   5.809  1.9014 -1.0898 -0.0634
10060TIP3   OH251594   2.284   0.490   1.405 -0.1291  0.5849 -0.0526
10060TIP3    H151595   2.203   0.538   1.386  0.1097  0.9354 -0.1867
10060TIP3    H251596   2.343   0.514   1.334  0.6924  1.7138  0.9763
10061TIP3   OH251597   5.806   0.358  12.740 -0.0928 -0.0911  0.1635
10061TIP3    H151598   5.858   0.436  12.759  0.7621 -0.6588  0.1712
10061TIP3    H251599   5.833   0.332  12.652 -0.4400 -0.3371  0.1263
10062TIP3   OH251600   0.501   3.600  10.801  0.5534  0.3605  0.0453
10062TIP3    H151601   0.473   3.641  10.719 -0.5689 -1.2899 -0.4550
10062TIP3    H251602   0.584   3.642  10.822 -0.9105  3.5106  0.0816
10063TIP3   OH251603   5.038   3.932   2.932 -0.3901 -0.3623  0.1755
10063TIP3    H151604   5.051   4.017   2.891 -0.3045 -0.5131 -0.1075
10063TIP3    H251605   4.949   3.936   2.968  0.4606  0.7804  2.3839
10064TIP3   OH251606   2.187   0.715   5.064  0.1005 -0.2714  0.1085
10064TIP3    H151607   2.270   0.692   5.106  0.3864 -0.2406 -0.4252
10064TIP3    H251608   2.187   0.665   4.982 -1.0551 -1.3767  0.7410
10065TIP3   OH251609   3.066   6.021   2.342 -0.1067  0.7521 -0.3686
10065TIP3    H151610   3.127   6.019   2.416  0.3380 -3.1049 -0.5955
10065TIP3    H251611   3.104   6.083   2.280  2.9361 -0.4646  0.0993
10066TIP3   OH251612   3.474   3.682  16.551 -0.4632  0.4995 -0.0639
10066TIP3    H151613   3.525   3.601  16.550  0.9490  1.2826  1.8800
10066TIP3    H251614   3.488   3.718  16.638 -1.5922  2.5211 -0.6536
10067TIP3   OH251615   2.637   0.438   1.968 -0.0729 -0.1031  0.4117
10067TIP3    H151616   2.585   0.516   1.951 -0.0012 -0.2068 -0.3150
10067TIP3    H251617   2.727   0.467   1.961 -0.0475 -0.3026 -0.1129
10068TIP3   OH251618   2.356   6.096   4.548  0.2782 -0.3019 -0.0052
10068TIP3    H151619   2.399   6.072   4.466  0.5450  1.7387 -0.5052
10068TIP3    H251620   2.325   6.013   4.584 -1.9463 -1.0614 -3.3224
10069TIP3   OH251621   4.285   0.329  16.959 -0.3305  0.0257 -0.1196
10069TIP3    H151622   4.265   0.399  17.021  0.8986  0.7321 -0.4876
10069TIP3    H251623   4.331   0.263  17.011 -0.3385  0.0870 -0.0348
10070TIP3   OH251624   3.712   5.267  16.762 -0.1548  0.2443  0.5946
10070TIP3    H151625   3.633   5.291  16.714  1.2539  1.5340 -1.2694
10070TIP3    H251626   3.735   5.180  16.730  0.4959  0.8907 -0.8256
10071TIP3   OH251627   0.871   0.567   1.446  0.2904 -0.5035 -0.0656
10071TIP3    H151628   0.930   0.580   1.371 -1.0013 -0.9278 -1.1829
10071TIP3    H251629   0.853   0.473   1.446  1.3132 -0.7383  1.6178
10072TIP3   OH251630   6.335   5.060   0.266 -0.8980 -0.1671 -0.6011
10072TIP3    H151631   6.329   5.010   0.184 -1.2165  0.8849 -1.2504
10072TIP3    H251632   6.247   5.054   0.303 -1.0831  0.3456 -0.9506
10073TIP3   OH251633   5.558   3.764  13.365 -0.2431  0.3183 -0.1547
10073TIP3    H151634   5.485   3.751  13.426 -0.2541  0.1804 -0.1954
10073TIP3    H251635   5.516   3.782  13.281 -0.3627 -3.0438 -0.9880
10074TIP3   OH251636   5.576   2.707   5.883 -0.1067  0.0891 -0.9312
10074TIP3    H151637   5.596   2.792   5.922 -1.0686  0.3461 -0.9530
10074TIP3    H251638   5.618   2.643   5.941  1.3593  0.6021 -1.3999
10075TIP3   OH251639   2.383   3.163   0.927  0.3486  0.2154 -0.2045
10075TIP3    H151640   2.425   3.079   0.946 -3.2308 -1.5967  0.4106
10075TIP3    H251641   2.426   3.225   0.986  1.3831 -1.7120  1.1669
10076TIP3   OH251642   2.360   6.100   3.406 -0.2400  0.2231  0.2550
10076TIP3    H151643   2.376   6.100   3.311  1.6740 -0.6666  0.5315
10076TIP3    H251644   2.350   6.193   3.429  3.6240  0.9043 -0.2234
10077TIP3   OH251645   2.113   5.232  12.253  0.2487  0.1586  0.0426
10077TIP3    H151646   2.080   5.308  12.300 -0.7237 -0.7193  0.8368
10077TIP3    H251647   2.207   5.249  12.243 -0.0731  1.7889 -0.4657
10078TIP3   OH251648   3.871   4.236  16.474  0.2054 -0.1258 -0.0488
10078TIP3    H151649   3.803   4.172  16.457 -0.3927  0.0026  1.7259
10078TIP3    H251650   3.845   4.313  16.422 -1.7310  0.3694  1.5296
10079TIP3   OH251651   5.808   5.296  16.495 -0.0831 -0.0435 -0.6135
10079TIP3    H151652   5.805   5.389  16.516  1.1875  0.1485 -1.1826
10079TIP3    H251653   5.755   5.287  16.415 -0.2320  0.1867 -0.5381
10080TIP3   OH251654   5.878   4.304   2.169  0.9655  0.2783  0.4620
10080TIP3    H151655   5.832   4.388   2.172  0.2452 -0.1309  1.4096
10080TIP3    H251656   5.822   4.249   2.113  2.6171  1.0634 -2.1583
10081TIP3   OH251657   0.247   6.017  13.593  0.2446  0.0850  0.1310
10081TIP3    H151658   0.311   6.088  13.590  1.2826 -0.7993 -3.8920
10081TIP3    H251659   0.162   6.061  13.591  0.8625  1.3183 -2.1805
10082TIP3   OH251660   4.605   0.335  14.620  0.1050  0.1644 -0.0325
10082TIP3    H151661   4.545   0.335  14.695  0.6014  0.0997  0.3713
10082TIP3    H251662   4.673   0.273  14.645  0.7022  0.7500 -0.1990
10083TIP3   OH251663   6.769   3.338   3.712 -0.0672  0.2841  0.1012
10083TIP3    H151664   6.836   3.344   3.644  1.3042 -0.1048  1.3882
10083TIP3    H251665   6.786   3.255   3.756 -1.5298  0.0760  0.3499
10084TIP3   OH251666   2.764   3.216   5.327  0.4635 -0.2973  0.2942
10084TIP3    H151667   2.840   3.166   5.358  0.5332 -1.8851 -2.1464
10084TIP3    H251668   2.772   3.216   5.232 -2.2151  0.0936 -0.0251
10085TIP3   OH251669   4.714   2.838   2.518  0.1151 -0.0768  0.1188
10085TIP3    H151670   4.635   2.861   2.567  0.8245 -1.0168  1.7494
10085TIP3    H251671   4.719   2.905   2.449 -1.1544  1.0022  1.0259
10086TIP3   OH251672   3.176   3.741  14.593  0.6405 -0.2727 -0.1950
10086TIP3    H151673   3.247   3.797  14.624  0.7042 -0.9249  0.9080
10086TIP3    H251674   3.123   3.726  14.672 -0.2760 -0.4389 -0.8346
10087TIP3   OH251675   2.745   1.155  14.258  0.2906 -0.5088  0.4657
10087TIP3    H151676   2.687   1.229  14.241 -0.1476 -0.6333  1.3827
10087TIP3    H251677   2.749   1.108  14.174  1.6874  1.2921 -0.5573
10088TIP3   OH251678   6.642   3.895   1.175  0.4890 -0.0092 -0.3756
10088TIP3    H151679   6.547   3.885   1.179  0.7098 -2.2624  0.4344
10088TIP3    H251680   6.670   3.834   1.106  1.4171 -0.1307  0.0887
10089TIP3   OH251681   3.865   0.759   3.627 -0.3508 -0.1183  0.1002
10089TIP3    H151682   3.867   0.845   3.669 -0.8908 -0.5619  1.0954
10089TIP3    H251683   3.835   0.776   3.538 -2.9922  0.5056  0.9923
10090TIP3   OH251684   1.960   1.550   1.293 -0.3996  0.3486 -0.3804
10090TIP3    H151685   2.041   1.523   1.250 -0.5218  0.8358 -0.9340
10090TIP3    H251686   1.976   1.534   1.386  0.2704  0.2818 -0.4978
10091TIP3   OH251687   6.263   2.498  14.682 -0.3861  0.7110  0.1795
10091TIP3    H151688   6.211   2.419  14.668 -1.5895  1.7814 -1.7989
10091TIP3    H251689   6.350   2.475  14.648 -0.0589 -0.4622  1.7259
10092TIP3   OH251690   3.095   5.622  14.280 -0.0499  0.4735 -0.4271
10092TIP3    H151691   3.036   5.563  14.233  1.4142 -1.8673  0.4787
10092TIP3    H251692   3.181   5.609  14.240  0.8176 -0.0242  1.4517
10093TIP3   OH251693   3.860   1.530   5.338 -0.4475  0.6930  1.0569
10093TIP3    H151694   3.770   1.522   5.370 -0.9815 -0.0559 -0.5162
10093TIP3    H251695   3.866   1.619   5.304 -0.9920  0.3831  0.1068
10094TIP3   OH251696   1.665   5.703   4.308  0.0084  0.2013 -0.2725
10094TIP3    H151697   1.707   5.789   4.301  1.7119 -0.4990  0.8483
10094TIP3    H251698   1.736   5.640   4.300 -1.1410 -1.1177 -0.5358
10095TIP3   OH251699   2.225   1.689  11.379 -0.2090 -0.4520 -0.5099
10095TIP3    H151700   2.131   1.685  11.398 -0.0761  0.7780  0.4834
10095TIP3    H251701   2.251   1.779  11.398  0.8931 -0.3549 -2.2333
10096TIP3   OH251702   6.691   1.495  15.421 -0.2484  0.1597 -0.2885
10096TIP3    H151703   6.621   1.430  15.426 -1.0771  1.0963  1.0365
10096TIP3    H251704   6.681   1.535  15.335 -0.5644 -0.5621 -0.5937
10097TIP3   OH251705   2.201   0.628   4.771 -0.0137  0.6844  0.3646
10097TIP3    H151706   2.243   0.594   4.692  0.6799 -0.4304  1.1792
10097TIP3    H251707   2.113   0.653   4.744  0.3579  0.7204 -0.8462
10098TIP3   OH251708   1.267   1.703  17.219 -0.0947 -0.3590 -0.0647
10098TIP3    H151709   1.300   1.721  17.131 -2.1173 -1.1805 -1.0498
10098TIP3    H251710   1.342   1.720  17.276  0.6855  2.3466 -1.6874
10099TIP3   OH251711   2.630   2.999   4.217  0.5279 -0.0440 -0.0808
10099TIP3    H151712   2.700   2.951   4.172 -1.3345 -0.7516 -2.4282
10099TIP3    H251713   2.648   3.091   4.197  1.4832 -0.1058  0.4411
10100TIP3   OH251714   1.189   0.393  11.907 -0.2098  0.7195 -0.0490
10100TIP3    H151715   1.112   0.337  11.901  1.2232 -1.2623 -1.4337
10100TIP3    H251716   1.225   0.375  11.994  0.0478 -0.2835 -0.3553
10101TIP3   OH251717   2.463   3.584  12.560 -0.5471  0.0267 -0.0040
10101TIP3    H151718   2.443   3.666  12.514 -0.6950  0.8185  1.4201
10101TIP3    H251719   2.460   3.517  12.491  0.3822  1.3027 -1.3651
10102TIP3   OH251720   4.601   3.031  12.020 -0.3808  0.3061  0.4393
10102TIP3    H151721   4.540   3.097  12.052  0.3033  1.1899 -0.0560
10102TIP3    H251722   4.597   3.038  11.925  0.2074  0.1046  0.3940
10103TIP3   OH251723   6.685   0.982   5.258 -0.3293  0.0463  0.0714
10103TIP3    H151724   6.733   1.062   5.281 -0.1421 -0.2165  0.6224
10103TIP3    H251725   6.738   0.941   5.190 -1.2651  1.2068 -1.4360
10104TIP3   OH251726   4.987   4.885  12.700 -0.0504  0.0741 -0.3494
10104TIP3    H151727   5.026   4.924  12.778 -1.8517  1.7201 -0.1838
10104TIP3    H251728   4.893   4.890  12.716 -0.4199 -0.7017 -2.1074
10105TIP3   OH251729   1.945   6.699   4.252 -0.1621 -0.0328 -0.3050
10105TIP3    H151730   1.964   6.639   4.324 -2.0050 -1.2735 -0.7824
10105TIP3    H251731   1.943   6.643   4.174  2.8093  1.4110 -1.5928
10106TIP3   OH251732   6.614   0.584  11.386 -0.4156  0.0798  0.2853
10106TIP3    H151733   6.565   0.655  11.427  0.8869  1.0852  0.1761
10106TIP3    H251734   6.610   0.604  11.292  1.3783  1.0047  0.3695
10107TIP3   OH251735   5.320   3.450  13.167 -0.4360 -0.1975  0.0807
10107TIP3    H151736   5.257   3.383  13.195  0.8380 -1.0885  0.9061
10107TIP3    H251737   5.392   3.442  13.229  1.4666 -0.6771 -2.0871
10108TIP3   OH251738   6.775   6.317  12.530  0.1117  0.4324 -0.1480
10108TIP3    H151739   6.783   6.300  12.436 -0.5961  0.8378 -0.2896
10108TIP3    H251740   6.719   6.394  12.535  1.7841  1.6700  0.5424
10109TIP3   OH251741   6.439   1.484  11.791 -0.3646 -0.3707  0.1705
10109TIP3    H151742   6.520   1.513  11.832 -0.0173 -2.3351  0.9753
10109TIP3    H251743   6.370   1.522  11.845  0.0394  0.1335  0.3361
10110TIP3   OH251744   1.358   3.894  15.669  0.3573  0.0382  0.2476
10110TIP3    H151745   1.300   3.866  15.739 -0.6826  0.1755 -0.5349
10110TIP3    H251746   1.305   3.889  15.590  1.0355  1.3438 -0.3317
10111TIP3   OH251747   2.923   2.071  16.034 -0.2844  0.5621 -0.6360
10111TIP3    H151748   2.897   2.124  16.110  0.6446  0.6195 -0.3390
10111TIP3    H251749   2.950   1.987  16.071 -1.6001 -0.0781 -1.0929
10112TIP3   OH251750   6.358   3.814   5.387  0.8017 -0.6860 -0.0415
10112TIP3    H151751   6.376   3.833   5.479 -0.1020  1.6668 -0.2879
10112TIP3    H251752   6.263   3.823   5.378  0.4601 -3.8605 -0.6398
10113TIP3   OH251753   0.638   0.864   2.048  0.4603 -0.2796  0.0685
10113TIP3    H151754   0.573   0.886   2.115  0.0948  2.1516 -0.9980
10113TIP3    H251755   0.611   0.778   2.016 -1.0577 -0.1952  1.0237
10114TIP3   OH251756   6.179   2.762   0.872  0.4047  0.8836  0.0726
10114TIP3    H151757   6.152   2.842   0.918 -0.2913  2.6612 -3.1710
10114TIP3    H251758   6.274   2.773   0.860  0.7636 -0.0209  1.6859
10115TIP3   OH251759   2.260   0.964  11.980  0.2455  0.7293 -0.8053
10115TIP3    H151760   2.230   1.017  11.906  1.0762  1.8369 -0.3748
10115TIP3    H251761   2.331   1.015  12.019  0.5280 -0.3328  0.1234
10116TIP3   OH251762   6.505   4.311  17.118  0.0472  0.2062 -0.3496
10116TIP3    H151763   6.509   4.325  17.023  0.2916 -1.0151 -0.5321
10116TIP3    H251764   6.579   4.361  17.152  0.1274  0.4245 -0.8313
10117TIP3   OH251765   1.370   2.582   5.671  0.1628  0.4903 -0.1343
10117TIP3    H151766   1.318   2.537   5.737 -2.9808  0.0808 -2.6316
10117TIP3    H251767   1.420   2.513   5.628 -0.7549  0.1379 -0.6554
10118TIP3   OH251768   5.733   3.683   0.335 -1.0145  0.4914  0.0847
10118TIP3    H151769   5.769   3.772   0.332 -0.2605  0.1899 -2.1826
10118TIP3    H251770   5.641   3.695   0.359 -0.4382  1.6511  1.9164
10119TIP3   OH251771   0.871   1.589   5.107  0.2551 -0.1667  0.2599
10119TIP3    H151772   0.915   1.592   5.022  1.0509  1.9466  0.6665
10119TIP3    H251773   0.778   1.598   5.086  0.5293  1.6097 -0.3965
10120TIP3   OH251774   5.563   3.175   6.150 -0.1820  0.0035 -0.2572
10120TIP3    H151775   5.485   3.188   6.204  0.4114 -1.0922  0.9107
10120TIP3    H251776   5.630   3.229   6.191  0.2213 -0.6924  0.0286
10121TIP3   OH251777   3.856   1.269   3.546  0.6063 -0.1414 -0.2130
10121TIP3    H151778   3.874   1.355   3.508  2.1817 -0.2028  0.3159
10121TIP3    H251779   3.921   1.211   3.507  2.0245 -0.2880  2.1317
10122TIP3   OH251780   2.015   4.974  13.095 -0.4417  0.9828  0.0152
10122TIP3    H151781   2.045   4.951  13.183  0.2246 -0.9460 -0.6566
10122TIP3    H251782   2.005   4.890  13.051 -1.9208  1.8388 -1.4127
10123TIP3   OH251783   5.454   6.239  15.268 -0.4132  0.6420  0.2938
10123TIP3    H151784   5.479   6.279  15.351  1.2011 -0.3852  0.3462
10123TIP3    H251785   5.397   6.166  15.292  0.0502  0.3473  0.5213
10124TIP3   OH251786   3.763   3.169   4.791  0.1248  1.0703  0.5229
10124TIP3    H151787   3.703   3.219   4.847 -1.6299 -0.5190  0.1361
10124TIP3    H251788   3.824   3.235   4.758 -1.6835  2.8565  0.5457
10125TIP3   OH251789   1.989   1.086   5.465  0.0043  0.3563  0.1975
10125TIP3    H151790   2.073   1.059   5.429 -0.6736 -0.0046 -1.1537
10125TIP3    H251791   1.935   1.007   5.464 -0.9621  1.0003 -0.7572
10126TIP3   OH251792   1.874   3.190  17.059  0.1636 -0.0822  0.6759
10126TIP3    H151793   1.890   3.140  16.979 -2.2617 -0.6783  0.4644
10126TIP3    H251794   1.821   3.264  17.030  1.5955  1.2635  1.3693
10127TIP3   OH251795   6.447   6.656   4.345  0.2997 -0.2135  1.2655
10127TIP3    H151796   6.410   6.588   4.288  3.4782 -1.2811  0.2747
10127TIP3    H251797   6.382   6.666   4.415 -0.9058 -3.3953  0.7945
10128TIP3   OH251798   2.909   0.885   4.693 -0.0195  0.3912  0.2989
10128TIP3    H151799   3.002   0.892   4.716  0.9621 -1.9081 -2.4353
10128TIP3    H251800   2.894   0.955   4.630  0.4866 -0.5169 -0.8658
10129TIP3   OH251801   2.604   1.207   1.253  0.0017 -0.1748  0.4604
10129TIP3    H151802   2.684   1.157   1.264  0.1859 -0.2681 -1.0738
10129TIP3    H251803   2.617   1.286   1.306  0.5508 -0.7848  1.2551
10130TIP3   OH251804   1.542   2.892  15.757 -0.4275  0.0751 -0.2666
10130TIP3    H151805   1.517   2.860  15.844 -2.0457  1.2583 -0.2600
10130TIP3    H251806   1.567   2.983  15.771  0.8749 -0.1703 -0.8213
10131TIP3   OH251807   0.817   1.380  16.778 -0.0993  0.6990  0.7358
10131TIP3    H151808   0.757   1.354  16.848  1.1242 -1.8559  0.9826
10131TIP3    H251809   0.790   1.327  16.703 -1.2561  3.2395 -0.7693
10132TIP3   OH251810   5.692   6.581  16.369  0.3271  0.0245  0.0990
10132TIP3    H151811   5.698   6.677  16.362  2.9203 -0.1343 -1.0431
10132TIP3    H251812   5.738   6.549  16.291  2.7924 -2.1095  2.2488
10133TIP3   OH251813   0.169   1.664  14.669 -0.2461 -0.3989 -0.5798
10133TIP3    H151814   0.172   1.688  14.761  2.6218  1.5249 -1.0520
10133TIP3    H251815   0.096   1.716  14.633  0.0299  0.5528  0.2002
10134TIP3   OH251816   5.083   5.726   6.271  0.5869 -0.7602 -0.3180
10134TIP3    H151817   5.081   5.771   6.356  1.1778 -2.1733  0.4620
10134TIP3    H251818   5.116   5.639   6.290  0.0009 -1.3659 -1.8963
10135TIP3   OH251819   4.596   0.999   1.374 -0.4634 -0.2612 -0.3286
10135TIP3    H151820   4.613   1.059   1.302 -1.6044 -0.0699 -0.4664
10135TIP3    H251821   4.680   0.990   1.419 -0.5172  2.5184  0.5144
10136TIP3   OH251822   0.912   3.787   5.228 -0.0276 -0.1338  0.4127
10136TIP3    H151823   0.872   3.803   5.142  0.9892 -0.7608 -0.1964
10136TIP3    H251824   0.838   3.784   5.288 -0.8143 -0.2892 -0.5378
10137TIP3   OH251825   2.429   6.163   0.116  0.3298 -0.1325  0.0960
10137TIP3    H151826   2.463   6.075   0.099 -0.3478 -0.7179  1.6289
10137TIP3    H251827   2.477   6.192   0.194  0.0156  0.5651  0.0347
10138TIP3   OH251828   4.190   6.078   4.995  0.5089 -0.2505  0.1853
10138TIP3    H151829   4.236   6.035   4.923 -0.6919  0.0884 -0.8389
10138TIP3    H251830   4.097   6.066   4.974  0.1421  0.7298  1.1508
10139TIP3   OH251831   5.709   1.456   0.289 -0.2723 -0.1355 -0.2719
10139TIP3    H151832   5.700   1.367   0.325 -0.6921  0.7012  1.8664
10139TIP3    H251833   5.678   1.449   0.199  0.9941 -2.4305 -0.6313
10140TIP3   OH251834   2.491   3.250  15.247  0.8892  0.1106 -0.0523
10140TIP3    H151835   2.431   3.187  15.207 -0.2018  1.3318 -0.4283
10140TIP3    H251836   2.551   3.197  15.299 -0.7697 -1.1430  0.6581
10141TIP3   OH251837   3.335   5.438  16.511 -0.6657 -0.9572  0.0098
10141TIP3    H151838   3.371   5.488  16.584  1.8543 -2.7637  0.1252
10141TIP3    H251839   3.326   5.502  16.440  1.6264 -0.0931  0.4069
10142TIP3   OH251840   2.288   5.178  12.572 -0.7202  0.0165  0.0502
10142TIP3    H151841   2.230   5.106  12.545 -0.8950 -0.7990  2.3612
10142TIP3    H251842   2.240   5.224  12.640  0.8967 -0.0625  1.3272
10143TIP3   OH251843   2.798   4.909  16.654  0.3047 -0.3917  0.1038
10143TIP3    H151844   2.882   4.934  16.691  0.6583 -1.3341 -0.0397
10143TIP3    H251845   2.817   4.888  16.562 -0.1327 -0.3467 -0.0011
10144TIP3   OH251846   5.399   5.195   5.369  0.1088  0.1759 -0.5372
10144TIP3    H151847   5.416   5.218   5.278  0.6876 -0.2206 -0.5346
10144TIP3    H251848   5.454   5.118   5.385 -0.7732 -0.4026 -0.1677
10145TIP3   OH251849   2.968   2.250  17.168 -0.1593 -0.3004 -0.7069
10145TIP3    H151850   2.928   2.279  17.086 -0.2478 -1.2992 -1.0299
10145TIP3    H251851   3.050   2.208  17.142  0.6866  0.9207 -0.1205
10146TIP3   OH251852   5.036   1.808   4.298 -0.5129  0.3831  0.3385
10146TIP3    H151853   5.029   1.868   4.224 -2.9040  0.9433  0.9338
10146TIP3    H251854   5.040   1.721   4.257  0.1340  0.7810 -0.4735
10147TIP3   OH251855   4.005   4.209   0.014 -0.0218 -0.7776 -0.1596
10147TIP3    H151856   3.998   4.120   0.047 -0.9662 -1.1119 -1.1697
10147TIP3    H251857   3.914   4.240   0.010  0.3435  0.7004  1.3319
10148TIP3   OH251858   5.974   4.621  16.626  0.0108 -0.0910 -0.0432
10148TIP3    H151859   5.892   4.608  16.579  0.5267 -3.8744 -0.1611
10148TIP3    H251860   6.032   4.664  16.562 -0.5962 -1.2557 -1.4151
10149TIP3   OH251861   5.460   4.793   2.352  0.2403  0.4755  0.3525
10149TIP3    H151862   5.387   4.854   2.357 -0.0964  0.2885 -1.3700
10149TIP3    H251863   5.429   4.713   2.394 -1.3699 -0.2797 -2.0486
10150TIP3   OH251864   2.079   3.618  10.502  0.1014  0.2612  0.6535
10150TIP3    H151865   2.084   3.658  10.415 -1.3407  0.1642  0.5052
10150TIP3    H251866   2.155   3.654  10.549  0.1346  1.3644 -0.2093
10151TIP3   OH251867   2.416   4.023  11.435 -0.5463 -0.0320  0.7270
10151TIP3    H151868   2.329   4.057  11.454  0.1987  0.8063  3.0053
10151TIP3    H251869   2.408   3.928  11.450 -0.8093  0.1967  2.2318
10152TIP3   OH251870   0.187   1.062  14.356  0.1374  0.0221  0.2345
10152TIP3    H151871   0.206   0.997  14.423 -0.0544  0.2908  0.5493
10152TIP3    H251872   0.272   1.101  14.335  0.1546  0.1516  0.5435
10153TIP3   OH251873   2.807   1.418  15.559  0.5140  0.3324 -0.8042
10153TIP3    H151874   2.892   1.456  15.581  0.8404 -0.6315 -0.3242
10153TIP3    H251875   2.793   1.350  15.626 -0.8555  0.7943 -0.5871
10154TIP3   OH251876   0.852   6.144  13.553 -0.3216 -0.2076 -0.0254
10154TIP3    H151877   0.873   6.077  13.487 -0.4469 -0.5030  0.2307
10154TIP3    H251878   0.758   6.137  13.566 -0.2168 -0.5658  0.6181
10155TIP3   OH251879   2.737   1.187  15.713  0.2427 -0.4102 -0.3650
10155TIP3    H151880   2.772   1.107  15.674 -0.1058 -0.3624 -0.7832
10155TIP3    H251881   2.643   1.172  15.719  0.1299  0.0957 -0.7559
10156TIP3   OH251882   2.437   5.427   1.855 -0.3004  0.1795  0.1362
10156TIP3    H151883   2.403   5.389   1.774  2.8250  0.5452 -1.5000
10156TIP3    H251884   2.466   5.352   1.907 -1.0204  0.0273  0.3406
10157TIP3   OH251885   3.911   3.138   4.288  0.2528 -0.0006 -0.3004
10157TIP3    H151886   3.977   3.122   4.221  2.4003  1.0812  1.4292
10157TIP3    H251887   3.888   3.051   4.321  0.5278 -0.4150 -1.1760
10158TIP3   OH251888   1.209   1.428   0.409 -0.4700 -0.0311 -0.5535
10158TIP3    H151889   1.170   1.468   0.332 -0.6745  0.0678 -0.3992
10158TIP3    H251890   1.142   1.369   0.443 -0.8041  0.7540  0.1859
10159TIP3   OH251891   1.314   5.398  14.734  0.3470 -0.3340  0.0618
10159TIP3    H151892   1.382   5.434  14.791 -0.4567 -1.7754  2.0421
10159TIP3    H251893   1.272   5.475  14.695  1.0849  0.7023  1.2471
10160TIP3   OH251894   5.581   3.032   2.972  0.2574 -0.4525  0.2308
10160TIP3    H151895   5.536   3.111   3.000 -2.3566 -1.1912 -1.5129
10160TIP3    H251896   5.673   3.057   2.965 -0.6448  2.8287 -1.5699
10161TIP3   OH251897   2.770   6.375  12.955 -0.0413  0.8680 -0.0128
10161TIP3    H151898   2.721   6.342  12.880 -0.5493 -0.1586  0.7497
10161TIP3    H251899   2.742   6.320  13.028  3.2427 -0.6931  0.2241
10162TIP3   OH251900   4.058   5.869   1.563 -0.0078  0.4720 -0.3117
10162TIP3    H151901   3.985   5.851   1.622 -0.3938 -0.2668 -0.9989
10162TIP3    H251902   4.134   5.876   1.621 -0.1787 -1.3860  0.2032
10163TIP3   OH251903   0.213   3.948  17.194 -0.2741 -0.1119  0.1550
10163TIP3    H151904   0.177   4.032  17.166 -0.6689  0.2216  1.5418
10163TIP3    H251905   0.188   3.886  17.127 -1.5745  0.5373  0.0209
10164TIP3   OH251906   2.660   6.787  16.823  0.3018  0.1314 -0.1043
10164TIP3    H151907   2.712   6.723  16.775 -0.8258 -0.2903 -0.8063
10164TIP3    H251908   2.651   6.861  16.763 -0.9147 -0.3004 -0.4955
10165TIP3   OH251909   1.652   4.306  15.836  0.5311 -0.3317  0.0240
10165TIP3    H151910   1.639   4.392  15.874  0.9409 -0.3134  0.1276
10165TIP3    H251911   1.726   4.317  15.776 -0.8583 -0.0588 -1.7337
10166TIP3   OH251912   3.318   0.249   5.519 -0.1677 -0.3954 -0.4910
10166TIP3    H151913   3.390   0.297   5.559 -1.4326 -0.5776  2.1758
10166TIP3    H251914   3.354   0.216   5.437  1.8065  2.0946 -0.7550
10167TIP3   OH251915   4.885   5.836  14.416 -0.4078 -0.2579 -0.5534
10167TIP3    H151916   4.975   5.847  14.446  0.0088  0.3568 -1.9963
10167TIP3    H251917   4.879   5.744  14.391 -0.0614 -0.2093 -0.8201
10168TIP3   OH251918   0.912   0.695   4.198 -0.0451 -0.6587 -0.7016
10168TIP3    H151919   0.943   0.607   4.221  0.2140 -1.2971 -3.2204
10168TIP3    H251920   0.827   0.680   4.156 -0.9480  0.5195  0.6109
10169TIP3   OH251921   2.583   4.847   4.929  0.4485  0.0097 -0.2603
10169TIP3    H151922   2.675   4.832   4.908  0.5374  1.8260 -1.4445
10169TIP3    H251923   2.584   4.924   4.986 -0.2530 -0.8974  0.9944
10170TIP3   OH251924   0.977   6.702   4.928 -0.1158  0.3681 -0.3998
10170TIP3    H151925   1.068   6.730   4.932 -0.1506  0.4066  0.4706
10170TIP3    H251926   0.954   6.704   4.835  0.9702 -0.2917 -0.7006
10171TIP3   OH251927   6.699   1.704   0.729 -0.0708 -0.3663  0.1254
10171TIP3    H151928   6.734   1.633   0.675 -0.9473 -1.6345  1.1497
10171TIP3    H251929   6.664   1.767   0.667 -1.5892 -2.0625 -0.8070
10172TIP3   OH251930   1.810   5.597  12.348 -0.1870  0.2521  0.1442
10172TIP3    H151931   1.828   5.525  12.288  1.3451  1.1521 -0.5363
10172TIP3    H251932   1.890   5.650  12.347 -0.8937  1.4151  1.3993
10173TIP3   OH251933   6.030   1.924   0.232  0.3130 -0.0548 -0.0865
10173TIP3    H151934   6.064   1.978   0.161 -0.4377  0.1289 -0.3117
10173TIP3    H251935   6.026   1.983   0.307  1.4168 -0.3302  0.2211
10174TIP3   OH251936   4.888   0.778   0.169  0.2349  0.5879 -0.1404
10174TIP3    H151937   4.803   0.741   0.148  0.7683 -0.5936 -0.2951
10174TIP3    H251938   4.893   0.858   0.116 -0.2053 -0.0759 -1.2203
10175TIP3   OH251939   6.370   5.676  17.073 -0.7441  0.1545 -0.5476
10175TIP3    H151940   6.369   5.716  16.986 -0.1186  0.0453 -0.6047
10175TIP3    H251941   6.354   5.583  17.057  0.6740 -0.0806 -0.6660
10176TIP3   OH251942   4.897   0.602   3.214 -0.3179  0.1998 -0.0881
10176TIP3    H151943   4.973   0.585   3.271 -1.6878 -2.0460  1.2487
10176TIP3    H251944   4.905   0.537   3.145 -0.7737  0.2863 -0.2202
10177TIP3   OH251945   3.153   1.197  17.097 -0.3748 -0.0323  0.1513
10177TIP3    H151946   3.188   1.286  17.103  0.9094 -0.5819  1.4119
10177TIP3    H251947   3.096   1.188  17.174 -0.8117 -0.1797 -0.1842
10178TIP3   OH251948   5.116   2.420   4.950  0.0677 -0.6769 -0.0053
10178TIP3    H151949   5.098   2.365   4.874  1.1159 -1.2848  0.1740
10178TIP3    H251950   5.115   2.510   4.915 -0.9732 -0.8355 -0.4231
10179TIP3   OH251951   0.409   2.962   0.249 -0.2507  0.3921 -0.6433
10179TIP3    H151952   0.454   3.039   0.217  2.1476  0.1115  1.6814
10179TIP3    H251953   0.466   2.889   0.225 -0.4318 -0.2017  0.6279
10180TIP3   OH251954   5.663   1.536   0.612  0.3407 -0.3318 -0.4220
10180TIP3    H151955   5.755   1.561   0.598  1.2649 -1.2093  3.1607
10180TIP3    H251956   5.616   1.619   0.617  1.0616  0.1582 -1.3743
10181TIP3   OH251957   4.316   2.301   5.458 -0.1212  0.0790 -0.2105
10181TIP3    H151958   4.355   2.234   5.401 -0.2364 -0.6891  0.5895
10181TIP3    H251959   4.276   2.363   5.398 -0.3701 -0.7916 -0.9678
10182TIP3   OH251960   4.270   4.282   3.146 -0.2457 -0.1523 -0.5994
10182TIP3    H151961   4.331   4.211   3.128  1.3363  0.8495  0.5700
10182TIP3    H251962   4.245   4.271   3.238  0.9653  1.4415 -0.0398
10183TIP3   OH251963   4.691   5.628   3.943 -0.5473 -0.0774  0.3639
10183TIP3    H151964   4.786   5.631   3.931 -0.6404  1.4448 -0.1751
10183TIP3    H251965   4.674   5.538   3.973  0.8882 -0.8200 -0.9098
10184TIP3   OH251966   3.210   2.040   3.992  0.1690 -0.0350 -0.3515
10184TIP3    H151967   3.180   2.076   4.076 -2.7033  0.6692 -1.5505
10184TIP3    H251968   3.267   2.107   3.955 -0.1713  0.5356  0.1546
10185TIP3   OH251969   5.890   6.490   1.316  0.2725 -0.3781 -0.0964
10185TIP3    H151970   5.945   6.444   1.253  0.4671  0.3594 -0.4673
10185TIP3    H251971   5.867   6.573   1.274 -1.7594 -0.9731 -0.2640
10186TIP3   OH251972   1.516   3.435  12.919 -0.1417  0.6413  0.1150
10186TIP3    H151973   1.433   3.389  12.908  0.4508 -0.4109 -0.1314
10186TIP3    H251974   1.578   3.384  12.867  1.3618 -0.6029  2.8775
10187TIP3   OH251975   6.107   1.209   4.896 -0.2525  0.3268  0.2715
10187TIP3    H151976   6.115   1.292   4.849 -2.5661 -1.2779 -3.3532
10187TIP3    H251977   6.165   1.149   4.849  0.6443 -0.4558  2.2356
10188TIP3   OH251978   4.665   0.183   1.760  0.1566 -0.2308 -0.4755
10188TIP3    H151979   4.716   0.231   1.825 -0.4600 -2.3337  1.6914
10188TIP3    H251980   4.584   0.234   1.753  0.8078  0.8018 -0.7121
10189TIP3   OH251981   2.179   3.454   1.761 -0.0435  0.2664  0.0469
10189TIP3    H151982   2.268   3.454   1.795 -0.1122  0.6669  0.2312
10189TIP3    H251983   2.145   3.540   1.782  0.4030  1.1019 -2.3051
10190TIP3   OH251984   6.692   5.927  13.095  0.1257 -0.5902 -0.1546
10190TIP3    H151985   6.676   6.020  13.110 -0.4804 -0.7514  0.2403
10190TIP3    H251986   6.725   5.922  13.005 -0.5510 -0.0729 -0.4328
10191TIP3   OH251987   3.440   4.165  15.613 -0.5001 -0.6598 -0.0738
10191TIP3    H151988   3.456   4.251  15.651  2.5262 -1.0822 -0.1604
10191TIP3    H251989   3.346   4.150  15.624 -0.9373  2.2372  0.7509
10192TIP3   OH251990   6.531   4.116   0.611  0.4290 -0.5637 -0.2374
10192TIP3    H151991   6.533   4.174   0.535 -0.5761  1.2206  1.0182
10192TIP3    H251992   6.451   4.064   0.599  1.2329 -1.6014 -1.2739
10193TIP3   OH251993   0.294   1.988   3.526  0.0222 -0.5571 -0.0331
10193TIP3    H151994   0.230   1.923   3.557 -0.3639 -0.0042  0.3314
10193TIP3    H251995   0.297   1.974   3.431 -1.1728 -0.1152 -0.1498
10194TIP3   OH251996   2.875   0.948   4.059  0.3359  0.0929 -0.5447
10194TIP3    H151997   2.792   0.926   4.101  0.3911  1.8884  0.5933
10194TIP3    H251998   2.939   0.889   4.100  0.1785  0.9998  1.0866
10195TIP3   OH251999   4.472   1.733   3.774 -0.9722  0.5322 -0.0051
10195TIP3    H152000   4.436   1.693   3.695  1.7701 -0.5202 -0.8325
10195TIP3    H252001   4.539   1.794   3.742  2.0364 -1.7880  1.4203
10196TIP3   OH252002   5.815   1.596   4.509 -1.1564  0.3720 -0.1854
10196TIP3    H152003   5.828   1.516   4.458 -1.3677 -0.1553  0.5597
10196TIP3    H252004   5.756   1.570   4.580  0.6854  0.5186  1.5247
10197TIP3   OH252005   3.471   4.711  11.183 -0.6935  0.0111  0.2422
10197TIP3    H152006   3.535   4.715  11.111  0.1619 -3.2422  0.6676
10197TIP3    H252007   3.412   4.640  11.158 -0.1640 -1.4611  2.8661
10198TIP3   OH252008   1.703   1.918   0.783  0.0766 -0.5439 -0.1439
10198TIP3    H152009   1.761   1.858   0.736  3.2391  0.9184  1.5122
10198TIP3    H252010   1.657   1.863   0.846  0.5835 -1.6329 -0.6927
10199TIP3   OH252011   6.118   3.228   4.133  0.1949 -0.8474 -0.4815
10199TIP3    H152012   6.133   3.317   4.100 -0.4371 -0.6093 -0.1539
10199TIP3    H252013   6.141   3.233   4.226  2.2344 -1.5850 -0.9034
10200TIP3   OH252014   4.249   0.981  13.244 -0.6223 -0.1417 -0.2250
10200TIP3    H152015   4.281   1.058  13.292 -1.5818 -1.2331  2.3365
10200TIP3    H252016   4.328   0.940  13.210  0.0860  0.9229  0.0828
10201TIP3   OH252017   5.680   3.853   2.561 -0.0814 -0.0616  0.0824
10201TIP3    H152018   5.696   3.818   2.473  1.9685  0.3253  0.2357
10201TIP3    H252019   5.768   3.858   2.600 -0.7261  1.6859  1.4227
10202TIP3   OH252020   6.370   0.650   4.007  0.2971 -0.2150 -0.0788
10202TIP3    H152021   6.391   0.564   4.043 -1.2620 -0.5883  0.0342
10202TIP3    H252022   6.311   0.631   3.934  0.3583  0.7316 -0.3824
10203TIP3   OH252023   6.101   3.382  14.384 -0.0696 -0.2860 -0.3851
10203TIP3    H152024   6.048   3.318  14.431 -0.4449 -0.2962 -0.8153
10203TIP3    H252025   6.186   3.381  14.429 -0.3899 -0.3534  0.2339
10204TIP3   OH252026   1.845   4.827  12.652 -0.2807  0.4361 -0.1122
10204TIP3    H152027   1.910   4.844  12.720 -1.5897 -0.7765  1.5415
10204TIP3    H252028   1.826   4.733  12.661 -3.1733  0.9692  0.4098
10205TIP3   OH252029   5.090   3.683   3.714 -0.1651  0.2832 -0.0481
10205TIP3    H152030   5.049   3.700   3.629 -0.7934 -0.5778  0.0626
10205TIP3    H252031   5.050   3.600   3.743 -0.1041  0.6671  1.1685
10206TIP3   OH252032   0.137   6.113   4.620 -0.0382 -0.3775 -0.1197
10206TIP3    H152033   0.047   6.127   4.650 -0.3539  2.4018 -2.0102
10206TIP3    H252034   0.191   6.143   4.692 -0.7022  1.0126 -0.1669
10207TIP3   OH252035   2.604   2.443  12.318  0.3267 -0.0984 -0.6027
10207TIP3    H152036   2.582   2.412  12.231 -0.1345  1.6514 -1.1440
10207TIP3    H252037   2.526   2.490  12.348  0.1246 -1.4292  1.1515
10208TIP3   OH252038   5.241   5.748   4.090 -0.0225  0.2076  0.2211
10208TIP3    H152039   5.311   5.790   4.138 -0.5664 -0.9457  2.1201
10208TIP3    H252040   5.172   5.732   4.155 -1.5268  0.1485 -1.3018
10209TIP3   OH252041   1.350   4.931  15.156 -0.6157 -0.0403 -0.0646
10209TIP3    H152042   1.369   5.016  15.116 -0.4198  0.0349  0.1897
10209TIP3    H252043   1.432   4.904  15.197 -0.4663 -0.6875 -0.7520
10210TIP3   OH252044   0.086   6.727   2.310  0.2169 -0.4193 -0.2748
10210TIP3    H152045   0.143   6.729   2.233  3.6243  0.5056  2.0513
10210TIP3    H252046   0.111   6.646   2.356 -1.5351 -0.8055  0.0769
10211TIP3   OH252047   0.934   5.629  15.315 -0.1103 -0.1414 -0.6661
10211TIP3    H152048   0.999   5.603  15.249  0.9960 -0.0032  0.3494
10211TIP3    H252049   0.940   5.724  15.318  0.1565 -0.1736 -0.0627
10212TIP3   OH252050   3.893   1.269   2.941 -0.1424  0.3739 -0.3880
10212TIP3    H152051   3.854   1.193   2.896  1.1902 -1.1137  0.8503
10212TIP3    H252052   3.877   1.342   2.881 -2.4968 -0.6163 -1.1272
10213TIP3   OH252053   0.140   3.957  16.466  0.0715  0.8739 -0.4166
10213TIP3    H152054   0.209   3.895  16.488 -0.7284  0.3600  0.7866
10213TIP3    H252055   0.184   4.042  16.460  1.1536  0.2405 -1.9420
10214TIP3   OH252056   2.118   6.363   0.503  0.3294 -0.2030  0.9789
10214TIP3    H152057   2.076   6.392   0.584 -0.8107  0.2885  0.2440
10214TIP3    H252058   2.065   6.289   0.473  0.6807 -0.3209  0.6264
10215TIP3   OH252059   3.014   1.752   1.395  0.2842  0.2469  0.0630
10215TIP3    H152060   2.939   1.810   1.407 -0.4059 -0.7484  0.8001
10215TIP3    H252061   3.036   1.723   1.484  0.1790 -1.1285 -0.3278
10216TIP3   OH252062   2.645   5.999   3.462 -0.0243 -0.1076  0.6941
10216TIP3    H152063   2.663   5.907   3.439  1.5518  0.8569 -2.4184
10216TIP3    H252064   2.565   6.020   3.414  1.0896  0.8385 -0.8087
10217TIP3   OH252065   2.616   4.091   3.105  0.2661  0.6605  0.9161
10217TIP3    H152066   2.703   4.058   3.082 -0.5303 -1.0065  0.1556
10217TIP3    H252067   2.633   4.177   3.143  2.2127  0.5675  0.3838
10218TIP3   OH252068   0.142   5.349  15.252 -0.1803 -0.1809 -0.2393
10218TIP3    H152069   0.227   5.327  15.291  0.0966  0.0830 -0.6785
10218TIP3    H252070   0.107   5.266  15.221 -0.1145 -0.3005  0.0031
10219TIP3   OH252071   4.892   0.222   4.897  0.0505  0.5010 -0.1680
10219TIP3    H152072   4.843   0.212   4.979  1.1251  1.1022  0.5835
10219TIP3    H252073   4.879   0.139   4.851 -2.3343  0.9549 -0.4174
10220TIP3   OH252074   1.085   0.024   2.073  0.5096 -0.3813  0.0948
10220TIP3    H152075   1.111  -0.023   2.152  2.8441  0.5029 -0.0441
10220TIP3    H252076   1.099  -0.038   2.001  3.0769  0.2478 -0.0383
10221TIP3   OH252077   1.161   0.431   0.130  0.5601  0.2107  0.2729
10221TIP3    H152078   1.084   0.395   0.087 -0.1408  1.0787  0.7594
10221TIP3    H252079   1.180   0.512   0.083 -0.1183  1.0870  1.4597
10222TIP3   OH252080   1.446   3.886   5.678  0.1746 -0.2098 -0.5160
10222TIP3    H152081   1.357   3.918   5.665  0.8270  1.1485 -1.9982
10222TIP3    H252082   1.465   3.834   5.600  1.0206  0.3569 -0.7023
10223TIP3   OH252083   2.347   4.078   0.830 -0.2825 -0.2191 -0.0390
10223TIP3    H152084   2.367   3.992   0.795  0.6111  0.0196 -0.1299
10223TIP3    H252085   2.322   4.063   0.921 -0.9096 -0.6514 -0.2778
10224TIP3   OH252086   6.052   3.826   2.006  0.4843 -0.2981  0.2184
10224TIP3    H152087   6.115   3.756   2.020  2.1378  0.9764 -0.4906
10224TIP3    H252088   5.971   3.781   1.979  1.5011 -1.9050 -0.2820
10225TIP3   OH252089   4.996   5.587  16.460 -0.4689 -0.1118 -0.3054
10225TIP3    H152090   5.062   5.630  16.515 -0.0165  0.1516 -1.0345
10225TIP3    H252091   4.938   5.544  16.522 -0.0589  0.3004  0.3860
10226TIP3   OH252092   3.168   5.731   4.567  0.2693 -0.8980  0.1392
10226TIP3    H152093   3.118   5.789   4.625 -0.8700 -0.3895 -1.2762
10226TIP3    H252094   3.115   5.726   4.488  2.2765 -0.7091 -1.2892
10227TIP3   OH252095   2.521   1.574  12.446 -0.8480 -0.6106  0.1871
10227TIP3    H152096   2.510   1.659  12.402 -0.9130  0.7304  2.6373
10227TIP3    H252097   2.450   1.520  12.411 -3.8720  1.8840  1.9599
10228TIP3   OH252098   0.364   2.450   4.131 -0.5995 -0.0490  0.2430
10228TIP3    H152099   0.280   2.421   4.166 -1.5219 -0.6078 -2.2457
10228TIP3    H252100   0.387   2.384   4.066  0.8308  1.1107 -0.4943
10229TIP3   OH252101   2.432   5.039  16.665  0.0106  0.1889  0.0426
10229TIP3    H152102   2.518   5.079  16.651 -0.3906  0.8295 -0.6960
10229TIP3    H252103   2.378   5.075  16.595 -0.9103 -0.0572  0.6190
10230TIP3   OH252104   4.914   4.813   3.184  0.4674 -0.0618 -0.1003
10230TIP3    H152105   4.990   4.850   3.228  0.5699  2.0448 -1.8617
10230TIP3    H252106   4.910   4.859   3.100 -2.3177 -0.6349 -0.3829
10231TIP3   OH252107   5.477   1.764   6.627  0.3653  0.8296  0.3696
10231TIP3    H152108   5.449   1.693   6.569 -0.1054  0.7368  0.7004
10231TIP3    H252109   5.567   1.743   6.650  0.3349  0.5160  0.2033
10232TIP3   OH252110   5.125   3.768  16.488 -0.5042 -0.1462  0.5069
10232TIP3    H152111   5.063   3.831  16.525 -1.6607 -0.5646 -0.6107
10232TIP3    H252112   5.118   3.782  16.393  0.1624 -1.0909  0.3103
10233TIP3   OH252113   2.960   3.183  12.530  0.0118  0.0782 -0.6011
10233TIP3    H152114   2.987   3.273  12.550 -1.4592  0.3608  0.2843
10233TIP3    H252115   2.985   3.133  12.609 -3.4012  0.6805  1.0491
10234TIP3   OH252116   1.434   1.704   6.556 -0.4319  0.0830 -0.6318
10234TIP3    H152117   1.364   1.701   6.621 -0.0791  0.0006 -0.2500
10234TIP3    H252118   1.393   1.741   6.477 -0.8000  0.4145 -0.2872
10235TIP3   OH252119   4.318   0.153   2.772  0.0400  0.2023  0.1184
10235TIP3    H152120   4.368   0.099   2.710 -1.9338 -2.2231  0.4757
10235TIP3    H252121   4.373   0.155   2.851 -0.0713 -1.9003  0.3130
10236TIP3   OH252122   6.249   4.722   5.383 -0.7394 -0.9722 -0.2696
10236TIP3    H152123   6.226   4.752   5.471 -0.8671  0.9820 -0.9267
10236TIP3    H252124   6.341   4.696   5.390 -0.1563  1.0495  0.0244
10237TIP3   OH252125   0.475   1.003   4.694 -0.0413 -0.0045 -0.2848
10237TIP3    H152126   0.435   0.981   4.778  2.5140 -0.8661  0.8150
10237TIP3    H252127   0.469   0.923   4.643 -0.9906  0.3135 -0.6848
10238TIP3   OH252128   0.289   5.961  14.494 -0.3779 -0.0247  0.0281
10238TIP3    H152129   0.287   5.995  14.583 -1.7913  1.8581 -0.6562
10238TIP3    H252130   0.311   5.868  14.504  0.1326  0.2786  2.2574
10239TIP3   OH252131   5.330   0.990  14.222 -0.1286  0.3350 -0.5706
10239TIP3    H152132   5.394   1.058  14.201  0.7669 -0.2388  0.2384
10239TIP3    H252133   5.279   0.979  14.141  0.6607  0.9316 -1.1643
10240TIP3   OH252134   1.327   4.885  16.443  0.6606  0.4495 -0.1971
10240TIP3    H152135   1.286   4.876  16.357  0.8064 -0.7126 -0.1493
10240TIP3    H252136   1.281   4.824  16.499  1.0371  0.6875  0.3834
10241TIP3   OH252137   5.713   1.816  16.409  0.8978 -0.1309  0.1042
10241TIP3    H152138   5.701   1.742  16.350 -0.5986 -1.3668  1.8507
10241TIP3    H252139   5.783   1.789  16.468  0.8597  0.1541  0.2845
10242TIP3   OH252140   6.277   3.748   2.158 -0.0551 -0.1188 -0.5896
10242TIP3    H152141   6.190   3.736   2.196 -0.0452  0.6006 -0.3213
10242TIP3    H252142   6.301   3.838   2.181  2.1922 -1.2754  2.3162
10243TIP3   OH252143   6.263   2.837   5.720 -0.4601 -0.3623  0.4458
10243TIP3    H152144   6.256   2.835   5.816 -0.6608  0.3802  0.4534
10243TIP3    H252145   6.177   2.865   5.690  0.1950  1.4234  0.1548
10244TIP3   OH252146   5.109   2.262  16.124 -0.4231  0.4190  0.0137
10244TIP3    H152147   5.153   2.330  16.074  0.3640  0.4267  0.6893
10244TIP3    H252148   5.084   2.196  16.059  0.8585  0.2782 -0.3743
10245TIP3   OH252149   5.645   2.388   6.551 -0.3380 -0.4488 -0.0869
10245TIP3    H152150   5.555   2.421   6.549 -0.6182 -0.9915  1.6698
10245TIP3    H252151   5.694   2.453   6.601 -0.4751 -1.6629  1.7138
10246TIP3   OH252152   0.687   3.379  17.211 -0.4250  0.1891  0.1178
10246TIP3    H152153   0.710   3.300  17.259 -0.4431 -0.1260 -0.3774
10246TIP3    H252154   0.697   3.354  17.119 -1.1690  0.5290 -0.0657
10247TIP3   OH252155   6.701   1.927  14.813  0.5231  0.4102 -0.0564
10247TIP3    H152156   6.756   1.858  14.850 -0.7859 -0.5434  0.2084
10247TIP3    H252157   6.735   1.941  14.725  1.8605  0.6283  0.4801
10248TIP3   OH252158   1.149   2.708  15.130 -0.1111 -0.1709 -0.5388
10248TIP3    H152159   1.087   2.636  15.119  0.7792 -1.1218  0.5054
10248TIP3    H252160   1.114   2.778  15.074 -1.3492 -1.1659 -1.0581
10249TIP3   OH252161   1.300   3.663  13.919 -0.6337  0.4367  0.1481
10249TIP3    H152162   1.225   3.604  13.911 -0.0129 -0.1172 -2.2823
10249TIP3    H252163   1.287   3.727  13.848  0.6406  0.9627  0.3709
10250TIP3   OH252164   3.979   6.624   5.334  0.2614 -0.2239  0.3696
10250TIP3    H152165   3.946   6.568   5.405 -0.6215 -1.8991 -1.2970
10250TIP3    H252166   3.907   6.629   5.272  0.8625  1.6048 -0.2300
10251TIP3   OH252167   1.514   2.724   1.204  0.3076 -0.1677  0.2797
10251TIP3    H152168   1.595   2.773   1.190  0.4070 -0.6646 -1.0150
10251TIP3    H252169   1.514   2.658   1.135 -1.3611  0.0332  0.0608
10252TIP3   OH252170   3.423   0.587   0.185 -0.0395 -0.4106 -0.0513
10252TIP3    H152171   3.518   0.580   0.183  0.1378  1.2092  0.8045
10252TIP3    H252172   3.401   0.599   0.278 -0.9416  0.4778 -0.3546
10253TIP3   OH252173   6.254   5.270  15.481 -0.4736  0.1828  0.7429
10253TIP3    H152174   6.348   5.260  15.462 -0.2640  1.1809  1.1853
10253TIP3    H252175   6.221   5.180  15.486  0.3384 -0.1667  0.0068
10254TIP3   OH252176   1.990   4.774  15.068  0.5225 -0.2237 -0.4064
10254TIP3    H152177   2.082   4.801  15.067  0.4192  0.9299  3.6374
10254TIP3    H252178   1.941   4.855  15.080 -0.5591 -1.1576  2.2242
10255TIP3   OH252179   2.226   4.679  11.554  0.8279  0.4298  0.3641
10255TIP3    H152180   2.171   4.601  11.558 -1.2037  1.6278 -1.6889
10255TIP3    H252181   2.283   4.665  11.479 -0.5882  1.4604 -0.9677
10256TIP3   OH252182   2.192   0.682  11.291 -0.5071 -0.1609  0.2142
10256TIP3    H152183   2.153   0.752  11.343 -1.2471 -0.3940 -0.0260
10256TIP3    H252184   2.119   0.624  11.269 -0.1812 -0.1660 -0.9333
10257TIP3   OH252185   5.856   0.362  13.928 -0.3480 -0.4685 -0.3684
10257TIP3    H152186   5.790   0.374  13.860 -1.7161  2.9060  1.3180
10257TIP3    H252187   5.940   0.362  13.882 -1.2804  0.8278 -2.1397
10258TIP3   OH252188   4.555   4.635  12.626  0.5123  0.0182 -0.4982
10258TIP3    H152189   4.625   4.592  12.576  1.1777  0.3905  0.0873
10258TIP3    H252190   4.474   4.596  12.592  0.9980 -0.4158 -1.1995
10259TIP3   OH252191   4.212   2.732   0.608  0.2958  0.1911 -0.3462
10259TIP3    H152192   4.220   2.665   0.539  0.5645  1.9762 -2.1542
10259TIP3    H252193   4.122   2.764   0.601  0.1996  0.1109  0.4294
10260TIP3   OH252194   5.701   0.757   2.580 -0.1378 -0.2662 -0.6981
10260TIP3    H152195   5.679   0.711   2.499 -1.9199  0.9842 -0.9751
10260TIP3    H252196   5.760   0.827   2.552 -0.3346 -0.1581 -0.8476
10261TIP3   OH252197   5.107   6.619  14.705  0.4967  0.3929  0.2765
10261TIP3    H152198   5.135   6.661  14.624 -0.0044  1.1708  0.4989
10261TIP3    H252199   5.131   6.681  14.774  1.6062 -0.5932  0.8084
10262TIP3   OH252200   5.594   6.745   6.158 -0.1079 -0.4297  1.1504
10262TIP3    H152201   5.515   6.791   6.189  0.0018  0.8409 -0.3671
10262TIP3    H252202   5.622   6.693   6.234 -0.9047  1.1119  2.5672
10263TIP3   OH252203   2.152   3.650   2.620  0.1883  0.3399 -0.4160
10263TIP3    H152204   2.232   3.636   2.569 -0.3404  0.7191 -1.3639
10263TIP3    H252205   2.092   3.582   2.590 -0.9916  2.0479 -2.1399
10264TIP3   OH252206   5.072   0.117   2.182 -0.1923 -0.7506  0.7799
10264TIP3    H152207   5.050   0.026   2.200 -0.9250 -0.8235 -0.4004
10264TIP3    H252208   5.016   0.167   2.242 -0.0098 -1.0540  1.2136
10265TIP3   OH252209   1.236   0.212  13.134 -0.7945 -0.4489 -0.3394
10265TIP3    H152210   1.319   0.200  13.179 -1.2984 -3.4078  0.0285
10265TIP3    H252211   1.170   0.189  13.200 -1.8873  1.0827 -0.8539
10266TIP3   OH252212   2.950   5.205  16.702 -0.0964  0.2240  0.7973
10266TIP3    H152213   2.975   5.192  16.611 -1.3922  0.8458  0.3175
10266TIP3    H252214   3.016   5.265  16.737 -0.3362  1.0482 -0.1282
10267TIP3   OH252215   6.777   4.307   3.453  0.0586 -0.1387  0.0850
10267TIP3    H152216   6.839   4.313   3.525  0.6989 -1.0213 -0.3681
10267TIP3    H252217   6.713   4.241   3.483 -0.5719  0.6351  0.4759
10268TIP3   OH252218   6.375   4.512   0.031  0.0853 -0.1632 -0.3960
10268TIP3    H152219   6.410   4.436  -0.016 -0.0255  0.1569 -1.0046
10268TIP3    H252220   6.288   4.525  -0.006  0.5346  0.9366 -1.0930
10269TIP3   OH252221   0.931   2.166  14.043 -0.4895  0.8405  0.0355
10269TIP3    H152222   0.976   2.103  13.986 -0.1661  0.5475  0.6031
10269TIP3    H252223   0.838   2.147  14.030 -0.4903  1.6357 -1.3574
10270TIP3   OH252224   5.063   4.119   0.577 -0.0484 -0.3374 -0.0864
10270TIP3    H152225   4.996   4.089   0.515  0.5783  0.7335 -1.3376
10270TIP3    H252226   5.014   4.143   0.656 -0.8432 -1.9497 -0.0425
10271TIP3   OH252227   5.261   5.450  13.823  0.5518  0.2812  0.1474
10271TIP3    H152228   5.170   5.476  13.810  0.2858  0.4568  2.1189
10271TIP3    H252229   5.265   5.360  13.789 -1.5606 -1.4538  3.9021
10272TIP3   OH252230   1.070   0.555   0.352  0.1873 -0.2292  0.5709
10272TIP3    H152231   1.109   0.509   0.278  2.8097  0.6130  1.3431
10272TIP3    H252232   1.002   0.611   0.313  0.1291 -1.2767 -0.9077
10273TIP3   OH252233   0.639   5.389  12.899 -0.7871 -0.7857 -0.3321
10273TIP3    H152234   0.684   5.473  12.909 -0.3209 -1.1486  0.7945
10273TIP3    H252235   0.691   5.342  12.835 -0.3502 -0.6632 -0.0752
10274TIP3   OH252236   1.481   3.964   0.204 -0.0858  0.2798  0.4868
10274TIP3    H152237   1.497   4.050   0.166  0.8409  0.1054  0.4678
10274TIP3    H252238   1.452   3.983   0.293  0.6649  0.6100  0.6733
10275TIP3   OH252239   3.478   6.609  11.653 -0.2631 -0.2640  0.4578
10275TIP3    H152240   3.388   6.619  11.624 -0.2278 -0.1718  0.3808
10275TIP3    H252241   3.501   6.519  11.628 -0.2564 -0.2094  0.2611
10276TIP3   OH252242   5.504   1.552  13.023  0.1633 -0.5373  0.4603
10276TIP3    H152243   5.423   1.529  13.068  0.8476  0.1847  2.1759
10276TIP3    H252244   5.571   1.549  13.092  1.1964  1.0454 -0.3991
10277TIP3   OH252245   6.320   3.047  12.185 -0.3436  0.1497 -0.6814
10277TIP3    H152246   6.404   3.010  12.211 -1.0271  0.2443  2.0554
10277TIP3    H252247   6.332   3.142  12.194 -0.4975  0.2044 -1.0569
10278TIP3   OH252248   5.216   1.743  16.594  0.8184  0.3573 -0.1774
10278TIP3    H152249   5.198   1.663  16.642  0.3327  1.0132  0.7501
10278TIP3    H252250   5.305   1.767  16.621 -0.3031  2.0351  2.3653
10279TIP3   OH252251   1.769   3.408  12.161 -0.0763 -0.6654  0.3865
10279TIP3    H152252   1.681   3.370  12.162 -0.4042  0.0810  0.9394
10279TIP3    H252253   1.796   3.407  12.253  0.5915 -1.1053  0.1911
10280TIP3   OH252254   0.928   3.906   3.314 -0.2107 -0.3703  0.2453
10280TIP3    H152255   0.924   3.992   3.356 -1.6911 -0.0701 -0.4279
10280TIP3    H252256   0.945   3.845   3.385  1.2815  0.4856  0.6839
10281TIP3   OH252257   4.021   6.090  14.844 -0.3424  0.4235  0.4460
10281TIP3    H152258   3.970   6.147  14.901  0.1335  1.6893 -0.3392
10281TIP3    H252259   4.112   6.115  14.861 -0.1581  0.3283 -0.3378
10282TIP3   OH252260   3.963   4.089   5.183  0.0399  0.1918  1.2981
10282TIP3    H152261   3.978   4.181   5.204 -2.4262  1.0757 -0.3242
10282TIP3    H252262   3.881   4.067   5.226 -0.3017 -0.7067  0.2441
10283TIP3   OH252263   4.895   4.395  13.115 -0.4284 -0.2091  0.1397
10283TIP3    H152264   4.958   4.360  13.179  0.0278 -0.6033 -0.5117
10283TIP3    H252265   4.864   4.318  13.067 -1.2631  0.0092  0.3145
10284TIP3   OH252266   3.477   1.367  17.098  0.1973  0.0660 -0.1820
10284TIP3    H152267   3.382   1.367  17.103  0.2557 -0.8693  1.4807
10284TIP3    H252268   3.501   1.460  17.103 -0.5779  0.2242  0.8121
10285TIP3   OH252269   0.357   2.834  12.414  0.3677  0.4342  0.1365
10285TIP3    H152270   0.452   2.822  12.424  0.2410  0.3102  1.4748
10285TIP3    H252271   0.334   2.781  12.338  1.4750  1.0764 -0.6805
10286TIP3   OH252272   1.885   1.456   0.586  0.2990 -0.3775  0.0552
10286TIP3    H152273   1.951   1.464   0.654 -0.2081 -1.8285  0.7582
10286TIP3    H252274   1.932   1.421   0.510  1.0542  2.1195 -0.7005
10287TIP3   OH252275   4.965   3.172  14.587 -0.0523 -0.3856  0.3639
10287TIP3    H152276   5.009   3.225  14.653 -1.4749 -2.4446  3.1869
10287TIP3    H252277   4.879   3.212  14.577 -1.2273 -2.0696  2.6943
10288TIP3   OH252278   4.804   1.720  15.102 -0.0769 -0.3111  0.0880
10288TIP3    H152279   4.874   1.658  15.118 -1.1359 -1.0256  2.3706
10288TIP3    H252280   4.753   1.681  15.030  2.2067  0.6277 -2.1842
10289TIP3   OH252281   6.337   0.181  14.228  0.3466  0.3510  0.0528
10289TIP3    H152282   6.384   0.257  14.262  2.9131 -0.2391 -1.8520
10289TIP3    H252283   6.298   0.140  14.306  1.0533  2.1893  1.4390
10290TIP3   OH252284   3.829   2.144   2.165  0.4918  0.1419 -0.2119
10290TIP3    H152285   3.899   2.155   2.101  1.7641  1.5490  1.3499
10290TIP3    H252286   3.859   2.073   2.222  1.2463  1.4813  1.1336
10291TIP3   OH252287   3.690   0.147  14.965  0.2637 -0.6233  0.3215
10291TIP3    H152288   3.630   0.191  15.026  1.6359  1.1240  0.5191
10291TIP3    H252289   3.633   0.102  14.903 -1.3580  2.2455 -0.4610
10292TIP3   OH252290   4.480   2.767   0.469  0.0320 -0.0865  0.5517
10292TIP3    H152291   4.517   2.754   0.557 -0.5968  0.3109  0.8809
10292TIP3    H252292   4.449   2.857   0.469 -1.1448 -0.4697  0.3703
10293TIP3   OH252293   3.954   2.524   4.957  0.1138 -0.1463 -0.3309
10293TIP3    H152294   4.042   2.537   4.993  0.2500  1.1812 -1.0678
10293TIP3    H252295   3.968   2.509   4.864 -0.3335 -1.9831 -0.1292
10294TIP3   OH252296   1.550   2.070  15.311  0.2308  0.0566  0.3021
10294TIP3    H152297   1.644   2.058  15.319  0.5024 -0.1554 -2.4866
10294TIP3    H252298   1.516   1.982  15.296 -0.0190  0.4177 -1.4959
10295TIP3   OH252299   0.850   2.858  11.890 -0.7441  0.0249  0.1087
10295TIP3    H152300   0.796   2.915  11.835 -0.0384 -0.2699 -0.9061
10295TIP3    H252301   0.838   2.770  11.853  1.0354  0.0584 -0.6594
10296TIP3   OH252302   0.783   4.868   4.620 -0.2092  0.8451 -0.6097
10296TIP3    H152303   0.850   4.850   4.686 -0.3496  0.7083 -0.5029
10296TIP3    H252304   0.713   4.912   4.668 -0.4781  0.4033 -0.5851
10297TIP3   OH252305   4.946   5.483  17.077 -0.4143  0.4387  0.0048
10297TIP3    H152306   4.865   5.447  17.112  0.4989  0.1831  1.9733
10297TIP3    H252307   5.014   5.419  17.100  0.5001  1.0818 -0.7870
10298TIP3   OH252308   0.802   3.597  14.194  0.3641 -0.4030 -0.3658
10298TIP3    H152309   0.895   3.605  14.171 -0.0243  2.5182 -1.4017
10298TIP3    H252310   0.760   3.569  14.113  0.0384  1.1850 -0.7754
10299TIP3   OH252311   4.954   1.364   3.985 -0.2722  0.2299 -0.1169
10299TIP3    H152312   4.905   1.446   3.986  1.0202  1.0789 -1.6420
10299TIP3    H252313   5.039   1.387   4.024 -0.4436 -0.8000  0.9232
10300TIP3   OH252314   2.055   1.635   5.694  0.1638  0.1191  0.0558
10300TIP3    H152315   2.145   1.668   5.690 -0.2239  1.2209  0.1088
10300TIP3    H252316   2.060   1.559   5.752  1.1176 -0.0328 -0.2099
10301TIP3   OH252317   3.934   1.213  16.193  0.2530  0.2081  0.4726
10301TIP3    H152318   4.014   1.252  16.158  0.2220 -0.4683 -0.3977
10301TIP3    H252319   3.957   1.185  16.282  0.8153  0.5282  0.4264
10302TIP3   OH252320   0.705   4.381  12.091 -0.1563  0.1807  0.2599
10302TIP3    H152321   0.734   4.432  12.016 -2.9035  1.9036  0.2130
10302TIP3    H252322   0.698   4.445  12.162  0.0136 -0.9271  1.3054
10303TIP3   OH252323   2.643   3.879  13.810  0.0687 -0.5747 -0.1171
10303TIP3    H152324   2.643   3.869  13.715  0.6493 -1.4354 -0.0403
10303TIP3    H252325   2.714   3.941  13.828 -0.2040 -0.2188 -0.2568
10304TIP3   OH252326   3.407   0.342  15.408 -0.4437 -0.4462  0.2048
10304TIP3    H152327   3.344   0.375  15.344 -2.3382 -0.2324  2.0421
10304TIP3    H252328   3.451   0.420  15.441  1.3113 -0.6428 -1.4919
10305TIP3   OH252329   6.258   3.265  14.590  0.2371 -0.1100 -0.2065
10305TIP3    H152330   6.256   3.336  14.654  0.1681  0.0651 -0.3987
10305TIP3    H252331   6.242   3.186  14.640 -0.4873  0.0958 -0.1078
10306TIP3   OH252332   0.412   4.235  11.353  0.3149 -0.5144 -0.1954
10306TIP3    H152333   0.468   4.162  11.327 -2.1637 -2.6347  0.0944
10306TIP3    H252334   0.367   4.260  11.272 -0.0779 -0.4237  0.0516
10307TIP3   OH252335   5.905   6.121  15.011  0.1698 -0.0327  0.1614
10307TIP3    H152336   5.999   6.126  14.998  0.0215  0.6162 -0.7838
10307TIP3    H252337   5.883   6.029  14.997  0.5758 -0.0738 -0.2182
10308TIP3   OH252338   0.219   1.845  13.790  0.5706  0.2469  0.5966
10308TIP3    H152339   0.285   1.779  13.811 -0.0577 -1.0518 -1.2352
10308TIP3    H252340   0.266   1.913  13.742  0.5587 -0.8618 -1.0412
10309TIP3   OH252341   1.224   0.770   2.009  0.3075 -0.2813  0.6357
10309TIP3    H152342   1.224   0.680   1.976 -0.1436  0.2555 -0.9283
10309TIP3    H252343   1.132   0.789   2.025  0.2056  0.4094 -0.6089
10310TIP3   OH252344   3.663   0.477   3.562  0.3669 -0.0714  0.0124
10310TIP3    H152345   3.678   0.561   3.519 -0.4524  0.6588  1.1042
10310TIP3    H252346   3.568   0.466   3.562  0.4180 -0.5866  0.6297
10311TIP3   OH252347   6.483   1.891  12.623  0.0809 -0.1306  0.0277
10311TIP3    H152348   6.447   1.942  12.696  1.4105  1.1573 -0.1796
10311TIP3    H252349   6.451   1.936  12.545  1.0505  0.2452 -0.1583
10312TIP3   OH252350   3.615   0.679   5.975  0.3408  0.3593  0.4912
10312TIP3    H152351   3.627   0.727   6.057  0.1800  1.5421 -0.1695
10312TIP3    H252352   3.704   0.667   5.941  0.7987 -2.9971  2.3647
10313TIP3   OH252353   2.494   4.317  14.429 -0.4603 -0.1347 -0.3419
10313TIP3    H152354   2.580   4.357  14.416 -1.3179  0.8009 -4.5703
10313TIP3    H252355   2.453   4.370  14.497  1.5408  0.6272  0.3474
10314TIP3   OH252356   4.936   4.109   3.924 -0.2771 -0.1831 -0.4539
10314TIP3    H152357   4.915   4.174   3.857 -0.7453 -0.3433 -0.4631
10314TIP3    H252358   4.981   4.040   3.877  2.0391  1.0031 -0.1502
10315TIP3   OH252359   3.026   5.211   3.890  0.4463  0.3985 -0.0587
10315TIP3    H152360   3.050   5.239   3.801  1.6523  0.4428  0.2626
10315TIP3    H252361   3.021   5.291   3.941 -0.8149  0.4260 -0.1978
10316TIP3   OH252362   2.359   2.898  14.874 -0.1595  0.2354  0.3709
10316TIP3    H152363   2.423   2.969  14.872 -0.3899  0.4782  1.2533
10316TIP3    H252364   2.388   2.838  14.805  1.0314  0.3300  0.7523
10317TIP3   OH252365   2.497   1.481   4.737  0.0651  0.3262  0.4088
10317TIP3    H152366   2.410   1.522   4.735  0.5123  1.3166  0.6319
10317TIP3    H252367   2.494   1.422   4.812 -0.8380 -0.6408 -0.3613
10318TIP3   OH252368   6.762   5.926  12.322 -0.1553 -0.2595  0.4586
10318TIP3    H152369   6.725   6.013  12.306 -1.0768 -0.3090  2.0395
10318TIP3    H252370   6.736   5.906  12.412 -0.1986 -2.2984  0.0358
10319TIP3   OH252371   5.527   0.544   3.438  0.1156  0.1922 -0.5479
10319TIP3    H152372   5.434   0.555   3.422 -0.0125  0.8615  0.5505
10319TIP3    H252373   5.561   0.633   3.447  0.5251 -0.0749  0.7984
10320TIP3   OH252374   0.590   4.376  12.477 -0.3211  0.2657 -0.6325
10320TIP3    H152375   0.569   4.449  12.418  1.2288  1.1119 -0.1785
10320TIP3    H252376   0.579   4.411  12.565  1.1985  0.2219 -0.3981
10321TIP3   OH252377   4.902   0.314   2.621 -0.4231 -0.4489  0.1263
10321TIP3    H152378   4.922   0.244   2.558  1.5136  0.7837 -0.7015
10321TIP3    H252379   4.961   0.385   2.598 -1.8584  1.2351  1.3950
10322TIP3   OH252380   1.570   5.394   0.728  0.0176  0.3194 -0.0051
10322TIP3    H152381   1.617   5.392   0.811 -3.1384 -2.1042  1.9036
10322TIP3    H252382   1.611   5.325   0.676  2.1919  2.0315 -0.7479
10323TIP3   OH252383   2.771   1.527  12.527  0.1169 -0.3643 -1.0737
10323TIP3    H152384   2.827   1.509  12.452  0.7879  0.8117 -0.8789
10323TIP3    H252385   2.689   1.559  12.489  0.3409 -0.0718 -1.3126
10324TIP3   OH252386   5.318   0.933  12.691  0.4219  1.0915 -0.3161
10324TIP3    H152387   5.338   1.015  12.646  0.7586  0.2897 -1.6977
10324TIP3    H252388   5.343   0.865  12.628 -1.2024 -0.0608  0.2220
10325TIP3   OH252389   6.159   3.608   4.374 -0.1462 -0.3981 -0.0025
10325TIP3    H152390   6.101   3.557   4.317 -0.1411 -1.4130  0.8834
10325TIP3    H252391   6.104   3.631   4.449  0.2875 -0.4249  0.3258
10326TIP3   OH252392   4.616   4.626   3.062  0.5345  0.6680  0.0083
10326TIP3    H152393   4.556   4.600   3.132  0.9030 -0.1386  0.0346
10326TIP3    H252394   4.592   4.569   2.988  2.1484 -0.6396  0.4397
10327TIP3   OH252395   2.440   1.883  17.177 -0.6455  0.2438  0.4849
10327TIP3    H152396   2.535   1.868  17.184 -0.4543  1.3764  0.5994
10327TIP3    H252397   2.432   1.979  17.176 -1.8473  0.1707  1.3934
10328TIP3   OH252398   5.307   1.011  14.540  0.2388 -0.5710  0.0479
10328TIP3    H152399   5.275   1.059  14.464  0.7861 -0.2274  0.0315
10328TIP3    H252400   5.315   0.920  14.510  1.0220 -0.3340 -0.4894
10329TIP3   OH252401   1.381   4.616  15.988 -0.6696  0.5660  0.0861
10329TIP3    H152402   1.397   4.691  16.045  2.3075  0.3479 -0.3106
10329TIP3    H252403   1.397   4.540  16.043  1.8055  0.3491 -0.8070
10330TIP3   OH252404   3.279   6.304   1.086 -0.3414  0.2333  0.3639
10330TIP3    H152405   3.360   6.253   1.079 -0.5815 -0.2432  0.9755
10330TIP3    H252406   3.213   6.240   1.113 -0.1751  1.2527  3.6470
10331TIP3   OH252407   5.986   2.177   0.316  0.0843  0.7948  0.3280
10331TIP3    H152408   6.020   2.260   0.283 -1.4169  1.4261  0.3209
10331TIP3    H252409   5.900   2.198   0.352 -0.8954 -0.9497 -0.8033
10332TIP3   OH252410   0.802   1.050  14.656 -0.6818  0.4869  0.2742
10332TIP3    H152411   0.772   0.971  14.610  0.4480  0.9895 -1.4586
10332TIP3    H252412   0.876   1.020  14.709 -0.0422  0.3988 -0.6376
10333TIP3   OH252413   6.687   5.072   2.872 -0.3142 -0.3564  0.5865
10333TIP3    H152414   6.690   5.164   2.848 -1.3847 -0.8241 -1.5570
10333TIP3    H252415   6.594   5.050   2.877 -0.1563 -1.9246 -1.7477
10334TIP3   OH252416   1.419   5.872  14.235  0.2863 -0.1060 -0.2328
10334TIP3    H152417   1.330   5.865  14.198  0.7880 -0.2792 -1.4461
10334TIP3    H252418   1.455   5.952  14.197  0.1620  0.7654  1.3935
10335TIP3   OH252419   6.243   0.339   0.392 -0.3115 -0.2452  0.5393
10335TIP3    H152420   6.181   0.411   0.404  0.3833  0.1281  2.1584
10335TIP3    H252421   6.204   0.285   0.324 -2.0141  0.4210  0.9353
10336TIP3   OH252422   1.850   1.298   3.552  0.2870 -0.0274  0.4566
10336TIP3    H152423   1.867   1.290   3.458  2.7367  0.9553  0.7496
10336TIP3    H252424   1.869   1.211   3.587 -0.6058 -0.3890  0.0758
10337TIP3   OH252425   6.720   1.814  16.974 -0.3230  0.9731  0.6540
10337TIP3    H152426   6.696   1.751  17.041 -0.6376  0.4528  0.0630
10337TIP3    H252427   6.795   1.775  16.929 -0.6577  0.9070  0.1413
10338TIP3   OH252428   1.887   2.935   2.962 -0.1491  0.1093 -0.2256
10338TIP3    H152429   1.846   2.872   3.021  1.1420  1.1030  1.8428
10338TIP3    H252430   1.871   3.021   3.002 -0.5470  0.9961 -2.1527
10339TIP3   OH252431   0.005   2.211  12.207 -0.0155  0.1239 -0.0752
10339TIP3    H152432  -0.052   2.203  12.131 -1.5464 -1.3392  1.1386
10339TIP3    H252433   0.075   2.148  12.191  1.4259  2.0285 -1.6392
10340TIP3   OH252434   5.910   5.963   4.825  0.0591 -0.4336 -0.1894
10340TIP3    H152435   5.879   6.016   4.752 -0.6313  1.1996  1.2070
10340TIP3    H252436   5.839   5.902   4.843  0.6355 -1.5022 -1.4775
10341TIP3   OH252437   6.418   0.388  15.419 -0.3751 -0.6301  0.2709
10341TIP3    H152438   6.484   0.431  15.473  1.2651 -1.1127 -1.2575
10341TIP3    H252439   6.424   0.432  15.334 -2.0641 -0.6696  0.0925
10342TIP3   OH252440   5.596   5.569   5.407  0.0723  0.8988 -0.1013
10342TIP3    H152441   5.516   5.540   5.363  0.3595 -0.2394  0.1062
10342TIP3    H252442   5.569   5.646   5.457 -0.1523  2.5819 -2.6213
10343TIP3   OH252443   1.024   1.962   5.059 -0.0877 -0.2254 -0.5572
10343TIP3    H152444   0.931   1.939   5.049  0.1768 -0.9006 -1.7101
10343TIP3    H252445   1.066   1.924   4.982  1.2984 -0.7175  0.3953
10344TIP3   OH252446   6.417   2.042  12.398  0.4169  0.2240 -0.5870
10344TIP3    H152447   6.493   2.095  12.421 -1.2817  2.0577  1.1869
10344TIP3    H252448   6.355   2.103  12.357 -1.3505 -0.4598  0.9088
10345TIP3   OH252449   0.914   6.532  12.398  0.0421 -0.3292 -0.0759
10345TIP3    H152450   0.956   6.582  12.468  0.5120 -0.6401 -0.1367
10345TIP3    H252451   0.869   6.461  12.443 -2.0749  1.0813  0.1971
10346TIP3   OH252452   0.879   5.799  14.612  0.1647 -0.4418  0.6383
10346TIP3    H152453   0.906   5.729  14.553 -1.3134 -0.9609  0.5502
10346TIP3    H252454   0.954   5.860  14.612  0.6990 -1.0470 -0.7693
10347TIP3   OH252455   2.454   2.527   2.497  0.1255 -0.1248  0.0700
10347TIP3    H152456   2.388   2.478   2.546 -0.4970  2.0112  1.5208
10347TIP3    H252457   2.536   2.480   2.515 -0.6951 -1.7345 -0.2182
10348TIP3   OH252458   1.620   5.715  15.278  0.0715 -0.1156  0.2099
10348TIP3    H152459   1.566   5.644  15.244  0.4207 -0.3813  0.2006
10348TIP3    H252460   1.638   5.770  15.202 -1.6707  0.9851  0.5348
10349TIP3   OH252461   5.325   3.317  17.167 -0.0673 -0.4533  0.1660
10349TIP3    H152462   5.419   3.326  17.188  0.1982 -0.7115 -0.8842
10349TIP3    H252463   5.283   3.385  17.220  0.9533  1.1077 -0.9204
10350TIP3   OH252464   2.101   6.322  10.665  0.3666  0.1380 -0.3585
10350TIP3    H152465   2.061   6.264  10.731  1.2207 -0.1808 -0.1127
10350TIP3    H252466   2.079   6.410  10.694  1.8567  0.0657  1.1286
10351TIP3   OH252467   3.468   6.744  15.242  0.3804 -0.3255 -0.1898
10351TIP3    H152468   3.396   6.681  15.246  1.1111 -1.1767 -0.1836
10351TIP3    H252469   3.448   6.807  15.311  0.4190 -1.4161  0.8543
10352TIP3   OH252470   4.496   6.687   0.392  0.0215  0.2175 -0.1894
10352TIP3    H152471   4.487   6.632   0.315  1.8647 -0.6930  0.1892
10352TIP3    H252472   4.406   6.700   0.423 -0.6885  0.0331 -2.0654
10353TIP3   OH252473   2.071   3.918   6.163 -0.1998  0.2099  0.3376
10353TIP3    H152474   2.037   3.878   6.083  0.2725  0.5142 -0.0153
10353TIP3    H252475   2.035   4.007   6.162  0.1977  0.3692  0.2194
10354TIP3   OH252476   0.944   0.550   3.106  0.4068  0.2107  0.3678
10354TIP3    H152477   1.037   0.565   3.088  0.7401 -0.4811  1.4152
10354TIP3    H252478   0.937   0.456   3.120 -0.5612  0.1831 -0.2248
10355TIP3   OH252479   4.594   6.208   1.513 -0.6412  0.0736 -0.0462
10355TIP3    H152480   4.690   6.216   1.520 -0.7525  2.9461 -0.6037
10355TIP3    H252481   4.562   6.298   1.522 -3.3355 -0.8497  0.3223
10356TIP3   OH252482   5.004   1.919  12.506  0.6138  0.4483  0.5267
10356TIP3    H152483   4.919   1.942  12.544  0.5279 -0.8197  1.1467
10356TIP3    H252484   5.035   2.001  12.467 -0.0545  1.3897  1.8713
10357TIP3   OH252485   4.905   3.475   5.020 -0.3537 -0.4967  0.5483
10357TIP3    H152486   4.916   3.464   5.114  0.0941 -0.4141  0.5089
10357TIP3    H252487   4.993   3.493   4.988 -0.5151 -0.4588  0.1226
10358TIP3   OH252488   3.772   3.142   1.501  0.0386  0.5132 -0.6799
10358TIP3    H152489   3.832   3.203   1.457 -0.8430  1.4537 -0.5968
10358TIP3    H252490   3.802   3.056   1.472  2.4477  0.8289  0.6087
10359TIP3   OH252491   5.542   3.386   1.466  0.2557  0.2795  0.2327
10359TIP3    H152492   5.632   3.356   1.457  0.4446  1.1582 -1.3336
10359TIP3    H252493   5.514   3.404   1.376 -0.7592  2.0418  0.8432
10360TIP3   OH252494   1.397   0.738  16.612 -0.4286  0.1546  0.1001
10360TIP3    H152495   1.455   0.814  16.602 -0.8442  0.4354 -0.1958
10360TIP3    H252496   1.416   0.706  16.700  0.4712 -0.0082 -0.1392
10361TIP3   OH252497   3.992   3.388  15.876 -0.9875  0.1372  0.4798
10361TIP3    H152498   3.900   3.411  15.862 -0.9004  0.1099 -0.1662
10361TIP3    H252499   4.033   3.470  15.902 -0.4107  1.1435 -3.0971
10362TIP3   OH252500   5.834   2.268   0.059 -0.2084  0.2225  0.3341
10362TIP3    H152501   5.813   2.181   0.092 -0.9805 -0.0067 -0.6947
10362TIP3    H252502   5.921   2.287   0.093  0.2137 -1.2005  0.0883
10363TIP3   OH252503   3.020   5.863   3.958  0.4482  0.3194  0.0025
10363TIP3    H152504   2.970   5.942   3.938  0.1543  0.0868 -0.2061
10363TIP3    H252505   3.021   5.858   4.053 -0.4115  0.0293  0.0048
10364TIP3   OH252506   1.694   4.826  11.721  0.1623  0.1105 -0.0221
10364TIP3    H152507   1.693   4.872  11.637  0.3834 -1.0717 -0.6995
10364TIP3    H252508   1.779   4.781  11.722 -0.2450 -0.6594  0.3924
10365TIP3   OH252509   3.308   4.404   5.829 -0.5491  0.8953  0.1500
10365TIP3    H152510   3.391   4.423   5.873  1.2240 -1.2495 -1.9765
10365TIP3    H252511   3.260   4.487   5.832  0.4252  1.5008  3.8140
10366TIP3   OH252512   1.275   3.710  12.911  0.6647  0.0210  0.0952
10366TIP3    H152513   1.219   3.676  12.980 -0.1252  1.1230  0.0268
10366TIP3    H252514   1.341   3.762  12.956  0.9808 -0.3659  0.0940
10367TIP3   OH252515   2.165   5.284  12.787 -0.0163  0.1504 -0.3212
10367TIP3    H152516   2.074   5.267  12.763 -0.7159  0.3655  1.9602
10367TIP3    H252517   2.175   5.244  12.873  1.6268  1.3695  0.1041
10368TIP3   OH252518   0.169   3.800  15.931  0.3984  0.4114 -0.2359
10368TIP3    H152519   0.079   3.824  15.909  0.3302 -0.4541 -0.9826
10368TIP3    H252520   0.223   3.865  15.887  0.1425  1.6917  1.2298
10369TIP3   OH252521   1.409   2.885  12.333  0.1265 -0.0243  0.1573
10369TIP3    H152522   1.500   2.871  12.361  0.6250  1.8956 -0.3314
10369TIP3    H252523   1.356   2.860  12.409  1.1064 -0.2642  0.7800
10370TIP3   OH252524   2.287   6.315  12.042  0.6363  0.4113 -0.4200
10370TIP3    H152525   2.271   6.388  12.103 -0.1049 -0.6319  0.6876
10370TIP3    H252526   2.359   6.266  12.081 -0.9629 -1.2453  0.6117
10371TIP3   OH252527   2.575   1.676   4.145 -0.1241  0.2139  0.3266
10371TIP3    H152528   2.553   1.720   4.063  1.3086  0.2979 -0.0298
10371TIP3    H252529   2.589   1.585   4.120  2.4975  0.6257  0.0330
10372TIP3   OH252530   4.480   6.185  13.341 -0.0979 -0.3140 -0.6235
10372TIP3    H152531   4.488   6.158  13.432  2.6399 -0.5659 -0.8583
10372TIP3    H252532   4.414   6.127  13.304  0.7463 -2.0950  0.5495
10373TIP3   OH252533   1.186   1.949  15.599 -0.0646 -0.2003 -0.0862
10373TIP3    H152534   1.121   1.990  15.656  1.6048  0.8197  1.1639
10373TIP3    H252535   1.177   1.855  15.617  0.8931  0.1081  2.5033
10374TIP3   OH252536   4.567   0.850  16.460  0.4855  0.0102  0.2653
10374TIP3    H152537   4.623   0.815  16.391 -0.2947  0.2769 -0.5356
10374TIP3    H252538   4.497   0.786  16.469 -0.2468  0.7042 -0.2971
10375TIP3   OH252539   1.974   1.759   3.250 -0.4663 -0.7333  0.2240
10375TIP3    H152540   1.884   1.754   3.218  0.0484 -0.2535 -1.3993
10375TIP3    H252541   2.028   1.749   3.171  0.8675  1.7918  0.6827
10376TIP3   OH252542   6.056   2.341  13.409 -0.4241  0.0483 -0.1471
10376TIP3    H152543   6.092   2.429  13.395 -0.5822  0.0210 -0.7769
10376TIP3    H252544   6.128   2.291  13.446  0.4915 -0.2288 -2.1533
10377TIP3   OH252545   0.339   4.899   5.237  0.2462 -0.5079  0.0701
10377TIP3    H152546   0.325   4.954   5.315  0.7488 -1.1798  0.6484
10377TIP3    H252547   0.382   4.957   5.175  0.7162 -0.2174  0.6513
10378TIP3   OH252548   1.112   4.124   3.667 -0.0731 -0.1040  0.5622
10378TIP3    H152549   1.148   4.135   3.580  0.8535  0.4785  1.0092
10378TIP3    H252550   1.177   4.072   3.714  0.4573  1.3472  1.5145
10379TIP3   OH252551   5.105   4.404  11.460 -0.1142 -0.5411  0.0885
10379TIP3    H152552   5.143   4.324  11.497 -0.5186  0.7001  3.5507
10379TIP3    H252553   5.075   4.454  11.536  0.7562  3.2585 -1.8134
10380TIP3   OH252554   4.954   3.898   6.074 -0.1271 -0.8482  0.2507
10380TIP3    H152555   4.926   3.974   6.126 -1.3810 -0.8512 -0.3801
10380TIP3    H252556   4.889   3.830   6.095 -0.6398 -0.8582 -1.2773
10381TIP3   OH252557   3.705   2.280   3.768 -0.1702 -0.1893  0.4743
10381TIP3    H152558   3.657   2.281   3.685  2.2008  1.6477 -1.0370
10381TIP3    H252559   3.673   2.357   3.815 -1.9972 -1.6046  1.6398
10382TIP3   OH252560   6.410   1.471  12.129 -0.3309 -0.2706 -0.5737
10382TIP3    H152561   6.432   1.474  12.222 -2.4526  2.4993 -0.0072
10382TIP3    H252562   6.453   1.548  12.092 -0.6644 -0.5494 -1.5694
10383TIP3   OH252563   3.530   3.037   2.194 -0.2002 -0.2929 -0.6678
10383TIP3    H152564   3.540   2.988   2.112 -0.2855 -1.4153 -0.0280
10383TIP3    H252565   3.474   3.111   2.171 -0.7048 -0.9158 -1.5054
10384TIP3   OH252566   3.294   5.944   3.980  0.0688  0.4341 -0.5746
10384TIP3    H152567   3.328   5.971   4.065 -0.5628  0.8960 -0.4622
10384TIP3    H252568   3.204   5.915   3.998  0.3617 -0.7096 -0.8741
10385TIP3   OH252569   6.095   1.398  15.632 -0.1990  0.2810  0.4632
10385TIP3    H152570   6.142   1.446  15.563  0.4052 -0.3108  0.4575
10385TIP3    H252571   6.093   1.459  15.706 -0.0834  0.5943  0.2107
10386TIP3   OH252572   3.802   5.806   3.592 -0.2015  0.0208 -0.4764
10386TIP3    H152573   3.866   5.796   3.523  2.2549  0.9597  1.5184
10386TIP3    H252574   3.848   5.782   3.672 -2.4904  0.2794  1.0331
10387TIP3   OH252575   0.167   0.509   3.963  0.1910 -0.2749 -0.4936
10387TIP3    H152576   0.258   0.481   3.974  0.0990  0.0493  1.5318
10387TIP3    H252577   0.173   0.592   3.915  0.9381 -0.5071 -0.8006
10388TIP3   OH252578   6.247   4.735   3.628 -0.0573  0.2227  0.0856
10388TIP3    H152579   6.206   4.669   3.683 -0.1002  1.2851  1.3606
10388TIP3    H252580   6.331   4.752   3.670  0.7086 -0.2300 -1.1961
10389TIP3   OH252581   3.837   0.636   5.413  0.0086 -0.1266  0.3595
10389TIP3    H152582   3.817   0.570   5.346 -1.0705  0.5322  0.0029
10389TIP3    H252583   3.927   0.662   5.395  0.0003 -0.5454 -0.3308
10390TIP3   OH252584   0.673   0.210   4.237  0.5479  0.6583  0.3276
10390TIP3    H152585   0.635   0.144   4.295  1.4084  0.3981  0.6095
10390TIP3    H252586   0.611   0.283   4.240 -1.3056 -0.7606 -1.3383
10391TIP3   OH252587   1.379   2.623  14.747 -0.2080  0.9259 -0.1677
10391TIP3    H152588   1.443   2.693  14.764  1.5914 -0.2450 -1.6918
10391TIP3    H252589   1.390   2.562  14.820  2.1621 -0.3933 -1.4968
10392TIP3   OH252590   2.854   4.113   4.904  0.4247 -0.3353  0.3799
10392TIP3    H152591   2.826   4.064   4.981  0.3496 -0.5948  0.1906
10392TIP3    H252592   2.773   4.148   4.867  0.4178 -0.5559  0.1869
10393TIP3   OH252593   2.921   1.291   1.494  0.6144 -0.0382  0.0356
10393TIP3    H152594   2.964   1.353   1.436 -0.1378  0.4245 -0.0407
10393TIP3    H252595   2.947   1.317   1.582 -0.4525  0.9946  0.0649
10394TIP3   OH252596   5.955   2.362   1.907 -0.3604 -0.0566 -0.3289
10394TIP3    H152597   5.868   2.345   1.872 -0.3884 -0.9463  0.1314
10394TIP3    H252598   6.005   2.394   1.832 -1.6113  2.5344 -0.1568
10395TIP3   OH252599   2.037   2.844   5.351  0.3531  0.5636 -0.4910
10395TIP3    H152600   1.978   2.876   5.419  0.5716  0.1436 -0.0923
10395TIP3    H252601   2.049   2.751   5.372  0.7077  0.5139 -0.8929
10396TIP3   OH252602   1.227   6.571  14.599 -0.9045  0.2094  0.0742
10396TIP3    H152603   1.224   6.602  14.508 -0.6768  0.0816  0.0229
10396TIP3    H252604   1.183   6.639  14.649 -0.9604  0.3182 -0.1226
10397TIP3   OH252605   6.341   2.350  10.706 -1.2967  0.0049  0.0401
10397TIP3    H152606   6.246   2.347  10.718 -0.9769 -1.3976  3.4144
10397TIP3    H252607   6.368   2.430  10.751 -0.8088 -0.2135  0.1338
10398TIP3   OH252608   4.025   5.162   4.209  0.1743 -0.2704 -0.0015
10398TIP3    H152609   4.010   5.149   4.302  0.8560 -1.1989 -0.0045
10398TIP3    H252610   4.093   5.228   4.204  0.8202 -0.9041  0.2048
10399TIP3   OH252611   2.122   0.214   5.701  0.9204 -0.3620 -0.1755
10399TIP3    H152612   2.067   0.163   5.760  0.3349  1.4417  0.8995
10399TIP3    H252613   2.207   0.169   5.703  0.8534 -0.4862  1.9055
10400TIP3   OH252614   1.629   4.575   2.060  0.6903  0.0171  0.2006
10400TIP3    H152615   1.694   4.641   2.037  2.1768 -1.2702  0.5421
10400TIP3    H252616   1.546   4.622   2.060  1.8977  2.4251  2.5951
10401TIP3   OH252617   4.979   3.965  17.176 -0.4655 -0.1539  0.6844
10401TIP3    H152618   4.890   3.957  17.209  0.4346 -0.3522  3.3462
10401TIP3    H252619   4.992   4.059  17.163 -0.6992 -0.0006  1.4790
10402TIP3   OH252620   0.585   1.803  15.872  0.3965  0.0066  0.2636
10402TIP3    H152621   0.591   1.820  15.966  0.4594  0.9926  0.0879
10402TIP3    H252622   0.565   1.709  15.866  3.4580 -0.8167  1.1871
10403TIP3   OH252623   1.285   2.260   4.371  0.9341  0.3992 -0.1318
10403TIP3    H152624   1.222   2.188   4.378  0.5234  0.7141 -0.6279
10403TIP3    H252625   1.241   2.335   4.411  0.3082  1.0642 -1.9708
10404TIP3   OH252626   5.647   1.234   4.809  0.1441 -0.5124 -0.5292
10404TIP3    H152627   5.558   1.222   4.843  0.1182  2.4939  0.8453
10404TIP3    H252628   5.643   1.201   4.719 -2.0077 -1.5357 -0.1343
10405TIP3   OH252629   4.922   6.454  14.921  0.1649  0.4531  0.1125
10405TIP3    H152630   4.918   6.431  15.014  1.1676  0.3310  0.1380
10405TIP3    H252631   4.877   6.539  14.915 -2.3570 -0.7847  0.2428
10406TIP3   OH252632   5.431   3.744   1.803  0.0518 -0.5727  0.6183
10406TIP3    H152633   5.354   3.708   1.760  0.3474  0.0030 -0.4339
10406TIP3    H252634   5.505   3.710   1.752  0.4030  0.2017  0.5936
10407TIP3   OH252635   4.041   3.171   0.242 -0.4064 -0.1900 -0.3440
10407TIP3    H152636   4.012   3.080   0.240  0.8317 -0.6153 -0.3509
10407TIP3    H252637   3.964   3.222   0.218 -1.2365 -1.2029  0.0866
10408TIP3   OH252638   4.538   4.772  11.079  0.2420  0.1154 -0.2335
10408TIP3    H152639   4.474   4.734  11.019  0.4385 -0.2301 -0.2279
10408TIP3    H252640   4.620   4.772  11.029  0.5716 -0.8605  0.2853
10409TIP3   OH252641   6.383   3.896  14.551 -0.5934  0.0657 -0.4914
10409TIP3    H152642   6.385   3.803  14.571 -1.6640  0.1009 -0.1232
10409TIP3    H252643   6.472   3.918  14.525 -0.1977 -0.9357 -0.0099
10410TIP3   OH252644   0.598   2.299   2.904  0.1208  0.1136 -0.1878
10410TIP3    H152645   0.540   2.354   2.956 -1.7028 -0.5860 -1.3933
10410TIP3    H252646   0.557   2.212   2.905  2.1576 -0.9097  0.4633
10411TIP3   OH252647   0.735   0.075  14.382  0.6085 -0.4510  0.1243
10411TIP3    H152648   0.797   0.037  14.443  0.4231  0.4106  0.8747
10411TIP3    H252649   0.753   0.031  14.299  0.9841 -1.5122  0.7465
10412TIP3   OH252650   0.524   1.988  11.838  0.0292 -0.1731 -0.7253
10412TIP3    H152651   0.469   2.007  11.914  0.6814  0.8543 -0.5018
10412TIP3    H252652   0.466   2.001  11.763 -0.5911 -1.0924 -0.4337
10413TIP3   OH252653   6.726   6.216  16.702 -0.2035 -0.6401  0.0004
10413TIP3    H152654   6.678   6.150  16.652 -1.0176  0.3134 -0.5286
10413TIP3    H252655   6.758   6.170  16.779 -1.7071 -1.3927  0.2138
10414TIP3   OH252656   5.656   1.313   6.764 -0.1332 -0.2621  0.1496
10414TIP3    H152657   5.562   1.311   6.783  0.0687 -1.7892  1.1616
10414TIP3    H252658   5.662   1.348   6.675 -1.6264  0.2288  0.2181
10415TIP3   OH252659   6.693   3.913  15.921 -0.3508  0.6321 -0.1718
10415TIP3    H152660   6.641   3.848  15.968 -0.3946  2.2267  2.1555
10415TIP3    H252661   6.655   3.914  15.833 -1.3872 -1.2922  0.1926
10416TIP3   OH252662   4.370   6.261  13.033  0.3070 -0.3798 -0.0797
10416TIP3    H152663   4.342   6.344  12.994  1.1909  0.3613  0.7971
10416TIP3    H252664   4.297   6.237  13.091  0.1729 -0.0679 -0.1157
10417TIP3   OH252665   4.753   3.230  15.246  0.6759 -0.5767  0.2403
10417TIP3    H152666   4.798   3.160  15.295 -0.8000 -2.1798 -0.5724
10417TIP3    H252667   4.754   3.200  15.156 -0.1510  0.3992 -0.1052
10418TIP3   OH252668   0.371   4.661   5.445 -0.1068 -0.7201 -0.8488
10418TIP3    H152669   0.316   4.692   5.374 -0.6156  0.6940  0.1159
10418TIP3    H252670   0.324   4.686   5.525  0.4456 -2.2492  0.0013
10419TIP3   OH252671   5.483   1.331  11.737  0.1313  0.0396  0.0492
10419TIP3    H152672   5.405   1.318  11.790 -0.5248 -2.6059 -1.4332
10419TIP3    H252673   5.458   1.306  11.649  2.6843 -1.1341 -0.4429
10420TIP3   OH252674   4.977   2.217   0.090 -0.0063  0.5536 -0.8122
10420TIP3    H152675   5.035   2.281   0.133  1.3717 -2.1786  1.7238
10420TIP3    H252676   5.014   2.206   0.003  2.6440 -0.1521  0.3099
10421TIP3   OH252677   3.943   1.852  13.160  0.3041 -0.2288  0.0286
10421TIP3    H152678   3.857   1.838  13.121  0.2587  1.0667 -0.3819
10421TIP3    H252679   3.934   1.823  13.250 -1.2286  1.9513  0.6358
10422TIP3   OH252680   5.292   3.175   4.692 -0.0157  0.7270 -0.5258
10422TIP3    H152681   5.277   3.240   4.761  0.5826 -1.0124  1.3531
10422TIP3    H252682   5.350   3.219   4.630  3.3431  1.0385  2.4723
10423TIP3   OH252683   4.105   5.297   2.583  0.3938  0.0775 -0.4895
10423TIP3    H152684   4.111   5.381   2.629  1.1826  0.5517 -1.4283
10423TIP3    H252685   4.184   5.293   2.530  0.6524 -1.5400 -0.0365
10424TIP3   OH252686   2.916   6.753   3.763 -0.2387 -0.9720  0.1103
10424TIP3    H152687   3.011   6.743   3.774 -0.0280 -0.2073 -0.8510
10424TIP3    H252688   2.890   6.811   3.835 -0.0409 -1.4837  0.5963
10425TIP3   OH252689   3.467   2.456  14.611 -0.3410 -0.2883  0.3407
10425TIP3    H152690   3.520   2.411  14.677  0.7668 -2.3571 -1.7946
10425TIP3    H252691   3.518   2.534  14.588  0.3546 -0.7446  0.3318
10426TIP3   OH252692   0.696   3.205  16.649 -0.4835 -0.0554  0.8001
10426TIP3    H152693   0.649   3.269  16.702 -4.6851 -2.0715 -0.0719
10426TIP3    H252694   0.656   3.212  16.562  1.6550 -1.2440 -0.3611
10427TIP3   OH252695   0.523   6.459   2.921  0.0884  0.0507  0.2021
10427TIP3    H152696   0.480   6.470   3.006 -0.2507  0.0808  0.0240
10427TIP3    H252697   0.576   6.380   2.932  0.9429  0.6789  0.8148
10428TIP3   OH252698   1.216   5.878  13.749  0.0407 -0.7673 -1.3333
10428TIP3    H152699   1.287   5.847  13.805  0.7184  2.5190 -0.1511
10428TIP3    H252700   1.162   5.800  13.733  0.4312 -2.1725  2.9340
10429TIP3   OH252701   3.739   5.902   4.734 -0.1913  0.0165 -0.2574
10429TIP3    H152702   3.779   5.864   4.656 -0.0124 -1.6265  0.5918
10429TIP3    H252703   3.649   5.870   4.734  0.2113 -1.2275  0.9364
10430TIP3   OH252704   2.416   3.540   1.927  0.2555 -0.0334  0.1926
10430TIP3    H152705   2.481   3.605   1.954 -0.0804  0.8770 -1.1164
10430TIP3    H252706   2.369   3.519   2.008  0.7905  0.8719  0.7629
10431TIP3   OH252707   4.477   6.293  12.423 -0.0769  0.4744 -0.2983
10431TIP3    H152708   4.522   6.348  12.487  2.8252 -2.0235  0.0235
10431TIP3    H252709   4.543   6.274  12.356 -2.2242  0.7549 -2.6600
10432TIP3   OH252710   5.545   5.900  15.453 -0.1613 -0.2025  0.1224
10432TIP3    H152711   5.495   5.823  15.479 -1.5737  0.6835  0.1277
10432TIP3    H252712   5.551   5.952  15.534 -0.0049  0.1155 -0.0927
10433TIP3   OH252713   6.098   5.015  15.078  0.2348 -0.2849 -0.4284
10433TIP3    H152714   6.044   5.062  15.141 -0.2854 -0.9896 -0.3289
10433TIP3    H252715   6.186   5.017  15.116  0.1625  0.3621 -0.2945
10434TIP3   OH252716   4.423   2.056   0.414 -0.3146 -0.1173 -0.2121
10434TIP3    H152717   4.351   2.106   0.377 -0.7128 -0.8945 -0.5093
10434TIP3    H252718   4.453   2.000   0.343  0.0513 -0.3836  0.1425
10435TIP3   OH252719   6.309   2.633   3.944 -0.5693 -0.0331 -0.1537
10435TIP3    H152720   6.309   2.662   3.852  0.5560 -3.2130 -1.3108
10435TIP3    H252721   6.400   2.641   3.971 -0.8330  0.5416  0.5714
10436TIP3   OH252722   4.340   3.373  12.711  0.3540  0.4669  0.4534
10436TIP3    H152723   4.420   3.347  12.665 -1.2992 -1.1569 -1.7538
10436TIP3    H252724   4.336   3.468  12.701  2.4813  0.7134  1.5317
10437TIP3   OH252725   4.258   3.863  14.653 -0.8744  0.5803  0.0230
10437TIP3    H152726   4.213   3.943  14.627 -2.1528 -0.5880 -1.5518
10437TIP3    H252727   4.241   3.855  14.747  0.3345  2.7526  0.5044
10438TIP3   OH252728   2.686   4.817  15.874 -0.4573  0.0118  0.3735
10438TIP3    H152729   2.649   4.788  15.791 -0.7007 -0.3586  0.6086
10438TIP3    H252730   2.778   4.833  15.855 -0.1301 -1.6653  0.4019
10439TIP3   OH252731   2.812   4.616  13.206  0.0314  0.0656  0.0789
10439TIP3    H152732   2.801   4.611  13.111 -0.1610 -3.5290  0.1699
10439TIP3    H252733   2.723   4.609  13.241  0.1689  0.6228  0.5643
10440TIP3   OH252734   0.899   4.747  13.962  0.0091 -0.1959 -0.0904
10440TIP3    H152735   0.897   4.678  13.896  0.6642 -0.4322  0.1217
10440TIP3    H252736   0.983   4.790  13.948  0.0197 -0.0581  0.3938
10441TIP3   OH252737   2.601   2.993  15.984 -0.5539 -0.5281  0.0028
10441TIP3    H152738   2.637   3.059  15.924  0.7333  1.7875  3.0934
10441TIP3    H252739   2.649   2.914  15.963  0.8072  0.5490 -1.1479
10442TIP3   OH252740   1.813   5.914   0.517 -0.1977 -0.1365 -0.2795
10442TIP3    H152741   1.752   5.975   0.557 -0.3393  0.6765 -1.6819
10442TIP3    H252742   1.770   5.886   0.436  0.8480 -0.3119 -0.7930
10443TIP3   OH252743   0.059   0.254   5.041 -0.1106 -0.5673 -0.4844
10443TIP3    H152744   0.116   0.183   5.070 -0.0615 -0.1509  0.4841
10443TIP3    H252745   0.100   0.287   4.961  0.0330 -1.4175 -0.7669
10444TIP3   OH252746   1.288   3.628  12.038 -0.1544  0.1848  0.2070
10444TIP3    H152747   1.353   3.684  11.997  0.3341  0.4426  1.2872
10444TIP3    H252748   1.271   3.559  11.974 -0.6809  1.4670 -1.0985
10445TIP3   OH252749   3.912   4.340  16.760  0.3931 -0.7068 -0.1554
10445TIP3    H152750   3.942   4.431  16.759 -0.1610 -0.5235 -0.9901
10445TIP3    H252751   3.968   4.296  16.697  0.2883 -0.8163 -0.1719
10446TIP3   OH252752   5.670   1.795  13.256 -0.0321 -0.2614  0.6908
10446TIP3    H152753   5.687   1.810  13.349 -0.5971  0.2967  0.7165
10446TIP3    H252754   5.575   1.783  13.251  0.0457 -0.7204  0.2432
10447TIP3   OH252755   0.544   1.084  13.414  0.4919 -0.1499  0.2735
10447TIP3    H152756   0.516   1.176  13.408 -0.3243 -0.4257 -0.3852
10447TIP3    H252757   0.519   1.057  13.502 -0.6173 -0.1426 -0.0154
10448TIP3   OH252758   4.117   4.136  14.626  0.3795  0.2438  0.3234
10448TIP3    H152759   4.133   4.229  14.644 -3.3588  1.0736  0.2066
10448TIP3    H252760   4.076   4.135  14.540  0.3101 -1.5326  0.3452
10449TIP3   OH252761   1.217   2.580   4.208  0.0264  0.4083 -0.3051
10449TIP3    H152762   1.142   2.628   4.244  1.1755  1.2215  1.1294
10449TIP3    H252763   1.255   2.639   4.143 -1.0471 -0.3614 -1.6785
10450TIP3   OH252764   5.987   0.883  13.800 -0.3724 -0.0747  0.1465
10450TIP3    H152765   5.961   0.798  13.765  1.6476 -0.6259 -0.1459
10450TIP3    H252766   5.908   0.916  13.844 -0.9091 -2.5940  1.2630
10451TIP3   OH252767   6.700   6.694   3.802  0.1504 -0.1517  0.1865
10451TIP3    H152768   6.689   6.639   3.725  0.3334  0.2400 -0.1241
10451TIP3    H252769   6.788   6.732   3.793 -0.1606  0.5749  0.1390
10452TIP3   OH252770   4.313   3.531   6.008  0.4673 -0.4202  0.4992
10452TIP3    H152771   4.223   3.510   5.985 -0.9803  1.2823  4.0113
10452TIP3    H252772   4.355   3.446   6.023 -1.1864 -1.1787  1.0018
10453TIP3   OH252773   6.045   4.080   5.232 -0.0817 -0.2493 -0.3157
10453TIP3    H152774   6.055   4.088   5.137  2.5337 -1.7294 -0.2360
10453TIP3    H252775   6.071   4.166   5.266 -2.6019  0.8472 -0.9327
10454TIP3   OH252776   4.692   5.725  13.890  0.1753  0.0920  0.3951
10454TIP3    H152777   4.669   5.762  13.975 -0.7956  0.2163  0.0926
10454TIP3    H252778   4.776   5.766  13.868 -0.4410  1.4372  0.4819
10455TIP3   OH252779   1.972   6.357  14.715  0.1409  0.6034  0.0907
10455TIP3    H152780   1.973   6.379  14.622 -0.6231 -0.6829 -0.2390
10455TIP3    H252781   2.065   6.354  14.739  0.3592  0.6231 -0.7122
10456TIP3   OH252782   6.632   0.088  13.247 -0.0290 -0.1381 -0.3491
10456TIP3    H152783   6.715   0.064  13.207  0.3087  1.6938 -0.8055
10456TIP3    H252784   6.584   0.134  13.178 -0.7295  0.3284  0.4255
10457TIP3   OH252785   5.200   5.861  15.582 -0.2288  0.2863  0.0360
10457TIP3    H152786   5.225   5.889  15.670 -0.1481 -0.8415  0.3947
10457TIP3    H252787   5.264   5.793  15.559 -0.8446 -0.1366 -0.4829
10458TIP3   OH252788   2.442   6.290   4.118 -0.1422  0.6174 -0.2650
10458TIP3    H152789   2.434   6.196   4.132  0.3410  0.5157 -0.6415
10458TIP3    H252790   2.460   6.299   4.024 -0.9927  1.1344 -0.3862
10459TIP3   OH252791   6.555   5.669  14.796  0.2272  0.3735 -0.4853
10459TIP3    H152792   6.487   5.603  14.788 -0.6221  0.9974  1.1348
10459TIP3    H252793   6.590   5.658  14.884  0.6260  1.5405 -0.4730
10460TIP3   OH252794   3.825   6.046   5.644 -0.6779 -0.0489 -0.5169
10460TIP3    H152795   3.856   6.082   5.561 -0.6598 -0.0614 -0.5156
10460TIP3    H252796   3.895   6.064   5.706 -0.1452 -1.1337 -0.7772
10461TIP3   OH252797   5.914   6.648  14.847  0.1293 -0.4288  0.8663
10461TIP3    H152798   5.819   6.652  14.839  0.0201 -0.5004  1.8885
10461TIP3    H252799   5.929   6.607  14.933  1.0859 -3.9580 -0.7970
10462TIP3   OH252800   0.349   1.050   0.493  0.4267 -0.0733 -0.4733
10462TIP3    H152801   0.439   1.062   0.522  1.0684 -1.2958 -1.8456
10462TIP3    H252802   0.321   0.969   0.534 -0.5099  0.9083  0.9226
10463TIP3   OH252803   1.029   3.100  12.999  0.1521 -0.0527  0.0580
10463TIP3    H152804   1.120   3.072  13.011 -0.1083 -0.8525  0.2444
10463TIP3    H252805   0.977   3.021  13.015 -0.4591 -0.2352 -2.4229
10464TIP3   OH252806   1.868   4.624  10.951  0.4151 -0.3111  0.1763
10464TIP3    H152807   1.851   4.547  10.898  0.5787 -0.6011  0.5395
10464TIP3    H252808   1.922   4.592  11.023 -1.4086 -0.3413  1.6095
10465TIP3   OH252809   6.104   3.558   3.514  0.2027 -0.0103  0.3075
10465TIP3    H152810   6.083   3.465   3.527 -0.3900  0.1223  0.3463
10465TIP3    H252811   6.068   3.601   3.592  0.1080  0.2991  0.0940
10466TIP3   OH252812   1.004   2.004   1.439  0.0371  0.0407  0.0812
10466TIP3    H152813   0.925   2.054   1.461  0.5923  1.1678 -0.3756
10466TIP3    H252814   1.063   2.069   1.402  1.3763 -0.6893  0.8612
10467TIP3   OH252815   3.481   6.566  14.491  0.0803 -0.3814  0.0107
10467TIP3    H152816   3.475   6.512  14.413  0.9512  0.0072 -0.3347
10467TIP3    H252817   3.574   6.568  14.512 -0.3022 -2.0899  2.2129
10468TIP3   OH252818   4.753   5.813   5.597 -0.2795 -0.0221 -0.1707
10468TIP3    H152819   4.775   5.735   5.547  0.7884 -0.2909  0.6548
10468TIP3    H252820   4.790   5.796   5.684 -2.9188 -0.0059  1.0347
10469TIP3   OH252821   0.798   2.848   0.789  0.2720 -0.2569 -0.3064
10469TIP3    H152822   0.805   2.930   0.741 -1.4057  0.3771  0.4317
10469TIP3    H252823   0.725   2.802   0.748 -1.6626  0.6125  1.9580
10470TIP3   OH252824   5.593   1.578  11.678  0.0262  0.2615 -0.3314
10470TIP3    H152825   5.597   1.590  11.583  3.0200 -1.1873 -0.5080
10470TIP3    H252826   5.573   1.485  11.689  0.2120  0.3113  0.4234
10471TIP3   OH252827   1.712   2.670   1.695  0.2004  0.4942 -0.4229
10471TIP3    H152828   1.647   2.659   1.764 -0.3820  1.9082 -0.6944
10471TIP3    H252829   1.662   2.659   1.614  0.7728 -0.6370 -0.6390
10472TIP3   OH252830   0.223   0.449   2.324 -0.0739 -0.3834 -0.1050
10472TIP3    H152831   0.239   0.401   2.243 -0.7330 -0.5235 -0.1589
10472TIP3    H252832   0.184   0.531   2.295 -0.8069 -0.6557  0.0950
10473TIP3   OH252833   4.626   1.048   4.415 -0.0615 -0.0540 -0.5277
10473TIP3    H152834   4.693   1.020   4.477  0.1996  0.5915 -0.5147
10473TIP3    H252835   4.641   0.995   4.337  0.0851 -0.3296 -0.3150
10474TIP3   OH252836   5.095   3.191  13.909  0.3368 -0.2631 -0.2595
10474TIP3    H152837   5.053   3.122  13.960  1.3652 -0.3026  0.5557
10474TIP3    H252838   5.162   3.227  13.967  2.0455 -0.8095 -1.7958
10475TIP3   OH252839   0.063   1.371   3.353  0.3710 -0.3191 -0.6472
10475TIP3    H152840   0.062   1.343   3.262  1.3925  1.6188 -1.3276
10475TIP3    H252841   0.121   1.310   3.397  2.2515  0.4034 -1.9820
10476TIP3   OH252842   2.195   2.985   0.476 -0.2062  0.1284  0.0825
10476TIP3    H152843   2.231   3.013   0.561  0.3433 -1.2722  0.3456
10476TIP3    H252844   2.268   2.995   0.415  0.3736 -1.7158  0.4070
10477TIP3   OH252845   0.414   5.048  13.168 -0.1052 -0.1277 -0.2633
10477TIP3    H152846   0.333   5.093  13.141  0.2233  0.4193 -0.3598
10477TIP3    H252847   0.481   5.116  13.164  0.4223 -0.6557 -0.4745
10478TIP3   OH252848   5.947   5.125   4.383 -0.0082  0.2794 -0.1377
10478TIP3    H152849   5.976   5.162   4.300  2.7507  1.5214  1.2313
10478TIP3    H252850   5.949   5.199   4.444 -0.2270 -0.9230  1.3952
10479TIP3   OH252851   2.301   6.045  11.450 -0.5914 -0.4073  0.0815
10479TIP3    H152852   2.381   6.096  11.439 -1.0885  0.2110 -0.9354
10479TIP3    H252853   2.331   5.955  11.463  0.3037  0.1098  1.8911
10480TIP3   OH252854   2.858   4.808   3.936 -0.2106 -0.3115  0.2621
10480TIP3    H152855   2.908   4.833   4.015 -1.4445  0.6126  0.7847
10480TIP3    H252856   2.849   4.713   3.942  1.8796 -0.5899 -0.1102
10481TIP3   OH252857   0.060   0.568  17.008 -0.7873  0.3146 -0.6541
10481TIP3    H152858   0.071   0.657  16.975  1.3154  0.6708  0.7999
10481TIP3    H252859   0.140   0.522  16.982  0.3327  0.2266  2.4617
10482TIP3   OH252860   3.536   2.674   4.850  0.0028  0.5542  0.7813
10482TIP3    H152861   3.551   2.725   4.770 -1.1081 -0.6568 -0.2553
10482TIP3    H252862   3.446   2.694   4.875 -0.6024 -1.1141  0.1208
10483TIP3   OH252863   3.034   4.936   4.941  0.8640 -0.8106 -0.0052
10483TIP3    H152864   2.974   4.934   4.866  0.9890  0.5749 -0.1702
10483TIP3    H252865   3.055   5.029   4.952  1.7493 -1.1179  1.0359
10484TIP3   OH252866   6.508   5.709  15.853 -0.2649  0.3049 -0.0752
10484TIP3    H152867   6.603   5.705  15.840 -0.4316 -0.1180 -1.2109
10484TIP3    H252868   6.479   5.618  15.844 -0.9217  0.5858 -0.9317
10485TIP3   OH252869   3.424   5.215   5.169  0.1446  0.5963 -0.3698
10485TIP3    H152870   3.455   5.261   5.247 -0.3838 -1.7090  1.3066
10485TIP3    H252871   3.500   5.213   5.111  1.8051 -0.8786  1.6832
10486TIP3   OH252872   4.403   3.709   2.267 -0.0056 -0.1658  0.0074
10486TIP3    H152873   4.388   3.730   2.175  0.3054 -0.2446 -0.0606
10486TIP3    H252874   4.326   3.656   2.291 -0.4826  0.5200  0.0172
10487TIP3   OH252875   3.346   5.707   5.076 -0.0409 -0.2474 -0.1975
10487TIP3    H152876   3.324   5.650   5.002 -0.9061  0.3169 -0.3884
10487TIP3    H252877   3.285   5.683   5.145 -0.6962  0.7088 -0.4208
10488TIP3   OH252878   0.711   1.247  15.408  0.0238  0.0269 -0.0794
10488TIP3    H152879   0.734   1.232  15.316  1.1052  1.2496 -0.0427
10488TIP3    H252880   0.718   1.342  15.419  0.7019 -0.1707  1.4588
10489TIP3   OH252881   4.503   3.726  17.021 -0.1511  0.1574  0.8923
10489TIP3    H152882   4.582   3.698  17.068 -1.0429 -0.7750  1.8969
10489TIP3    H252883   4.442   3.750  17.091 -0.4309  1.8329  0.1097
10490TIP3   OH252884   5.871   4.194  13.193  0.0450  0.0730  0.0078
10490TIP3    H152885   5.913   4.201  13.107  0.2562  4.0226  0.2893
10490TIP3    H252886   5.833   4.106  13.193  4.0521 -1.9271 -2.1804
10491TIP3   OH252887   2.704   3.368   3.362 -0.4042 -0.2574  0.1902
10491TIP3    H152888   2.617   3.407   3.362 -0.1121  0.6365  2.8904
10491TIP3    H252889   2.763   3.441   3.343 -0.0584  0.0482  2.1907
10492TIP3   OH252890   3.945   1.976   0.505 -0.2519 -0.5237 -0.5229
10492TIP3    H152891   3.878   1.914   0.534 -0.6680 -0.5696 -1.5438
10492TIP3    H252892   3.975   2.018   0.586 -3.3342  1.3585 -0.2252
10493TIP3   OH252893   3.129   1.605   2.344 -0.0642  0.7405 -0.0940
10493TIP3    H152894   3.168   1.518   2.334 -0.6569  0.5024 -0.3315
10493TIP3    H252895   3.118   1.637   2.255 -0.2270  0.8872 -0.0221
10494TIP3   OH252896   4.276   6.082  13.824  0.7569  0.5251  0.3321
10494TIP3    H152897   4.196   6.044  13.788  0.5722  0.0734  1.1966
10494TIP3    H252898   4.271   6.064  13.917  1.1447  1.8200  0.6260
10495TIP3   OH252899   5.286   5.218  14.199  0.1071  0.0955  0.2642
10495TIP3    H152900   5.330   5.255  14.276 -0.5462  1.0448  0.2066
10495TIP3    H252901   5.349   5.157  14.161  0.7453  0.2284  1.0895
10496TIP3   OH252902   3.743   5.169  15.748  0.5573 -0.1529 -0.1758
10496TIP3    H152903   3.721   5.233  15.680  0.6518 -1.0136 -1.0411
10496TIP3    H252904   3.818   5.207  15.794 -0.2525  0.9913  0.2380
10497TIP3   OH252905   0.024   4.826   3.966  0.4289  0.1354 -1.0601
10497TIP3    H152906   0.000   4.820   3.873 -0.8437 -2.3861 -0.6737
10497TIP3    H252907   0.086   4.754   3.979 -1.0792 -1.0060  0.4080
10498TIP3   OH252908   4.734   6.735   2.192 -0.2769 -0.0878  0.5315
10498TIP3    H152909   4.689   6.819   2.186  2.5440  1.6983  2.0793
10498TIP3    H252910   4.679   6.682   2.250 -0.6971  1.7796  1.9258
10499TIP3   OH252911   5.649   2.126   3.233 -0.7424 -0.0771  0.0411
10499TIP3    H152912   5.687   2.213   3.250 -1.1569  0.0635  0.2677
10499TIP3    H252913   5.625   2.093   3.320 -0.5382 -0.4471 -0.0399
10500TIP3   OH252914   4.366   4.949   2.699 -0.4463 -0.2598 -0.3939
10500TIP3    H152915   4.414   4.931   2.780 -0.3134  1.0802 -0.1539
10500TIP3    H252916   4.377   5.043   2.685  2.2871 -0.8669 -3.6758
10501TIP3   OH252917   3.851   1.116   4.055  0.0475 -0.7781 -0.0083
10501TIP3    H152918   3.801   1.060   4.114  0.7684 -1.6356 -0.1934
10501TIP3    H252919   3.789   1.184   4.028 -0.1371  0.0825  2.2889
10502TIP3   OH252920   4.197   0.751   0.555  0.5812 -0.4405  0.5447
10502TIP3    H152921   4.141   0.716   0.485 -1.5559 -0.0015  1.9299
10502TIP3    H252922   4.260   0.681   0.573 -1.9146 -2.6278  1.4570
10503TIP3   OH252923   1.768   2.214   1.851 -0.3522  0.4901 -0.3380
10503TIP3    H152924   1.794   2.222   1.759  0.0263 -0.2678 -0.3089
10503TIP3    H252925   1.846   2.177   1.894 -1.0252 -0.5915 -0.0000
10504TIP3   OH252926   5.768   3.717  17.222 -0.0702  0.0856  0.2768
10504TIP3    H152927   5.713   3.675  17.287 -0.6304 -0.7239 -0.6938
10504TIP3    H252928   5.707   3.762  17.164  0.2439 -0.8524 -0.8275
10505TIP3   OH252929   5.646   0.736  12.556  0.3543  0.2355  0.0812
10505TIP3    H152930   5.733   0.701  12.534  0.2589  0.3453 -0.4664
10505TIP3    H252931   5.620   0.687  12.634  1.3803  0.9575  0.9140
10506TIP3   OH252932   0.666   1.339   2.685 -0.5361 -0.5484 -0.2680
10506TIP3    H152933   0.696   1.381   2.766  0.6897 -1.5743 -0.1705
10506TIP3    H252934   0.615   1.407   2.641  0.8710  0.8538  0.1810
10507TIP3   OH252935   4.430   6.046   1.097  0.1408 -0.5754  0.4170
10507TIP3    H152936   4.488   6.119   1.120  0.3749 -0.5872 -0.0995
10507TIP3    H252937   4.411   6.003   1.180 -1.6055  1.2164  1.0382
10508TIP3   OH252938   5.646   5.201   4.288 -0.2821 -0.4535  0.4678
10508TIP3    H152939   5.659   5.183   4.381 -0.9354 -1.0186  0.4528
10508TIP3    H252940   5.553   5.186   4.273 -0.3401  0.3943 -0.1163
10509TIP3   OH252941   0.531   4.269   5.425  0.4075  0.0238 -0.3866
10509TIP3    H152942   0.493   4.225   5.501  1.4717  0.6534  0.5447
10509TIP3    H252943   0.618   4.231   5.417  0.6025  0.5536 -0.7983
10510TIP3   OH252944   4.526   0.285  11.847  0.2794 -0.0372  0.2051
10510TIP3    H152945   4.473   0.239  11.911 -2.3185  0.2477 -1.5711
10510TIP3    H252946   4.550   0.367  11.890 -0.0763 -0.5020  1.3305
10511TIP3   OH252947   6.307   1.365   1.400 -0.0303 -0.0524  0.2798
10511TIP3    H152948   6.345   1.283   1.368 -0.0574  0.0825 -0.1125
10511TIP3    H252949   6.380   1.410   1.442 -0.2012 -0.6357  1.2386
10512TIP3   OH252950   1.995   6.081  13.742  0.7894  0.2987  0.2995
10512TIP3    H152951   1.948   6.066  13.824  0.8253  0.8165  0.4213
10512TIP3    H252952   1.944   6.150  13.698  0.7946  0.0545 -0.0915
10513TIP3   OH252953   5.484   6.385   5.065  0.2560 -0.0458 -0.3485
10513TIP3    H152954   5.463   6.326   4.992 -0.3427 -1.0145  0.5754
10513TIP3    H252955   5.576   6.409   5.050  0.6137 -1.4646 -0.6056
10514TIP3   OH252956   2.837   6.012   2.661  0.1833  0.0072  0.1380
10514TIP3    H152957   2.800   5.951   2.597 -0.8485 -1.2388  1.8133
10514TIP3    H252958   2.780   6.088   2.657 -0.6612 -0.5874  0.4128
10515TIP3   OH252959   0.001   2.408  11.960  0.2351  0.3626 -0.2098
10515TIP3    H152960   0.006   2.485  11.903  0.1303 -0.2337 -1.0416
10515TIP3    H252961  -0.092   2.389  11.967  0.2830  0.1060 -0.2816
10516TIP3   OH252962   5.050   5.477  13.078  0.1522  0.2709  0.1008
10516TIP3    H152963   5.138   5.496  13.047 -0.0004  1.4601  0.3292
10516TIP3    H252964   5.004   5.561  13.073 -1.9025 -0.8425 -2.8591
10517TIP3   OH252965   3.288   1.346  12.919 -0.1086  0.5659 -0.2400
10517TIP3    H152966   3.279   1.381  13.007  2.1981  1.3725 -0.2555
10517TIP3    H252967   3.362   1.286  12.924  0.9766  1.6663 -1.8780
10518TIP3   OH252968   2.435   1.165  12.125  0.5692 -0.7420  0.4248
10518TIP3    H152969   2.495   1.104  12.168  1.4339  0.3348  0.7961
10518TIP3    H252970   2.414   1.229  12.192  0.2623 -0.2157 -0.1636
10519TIP3   OH252971   2.067   0.873  15.361 -0.0189  0.6138 -0.8288
10519TIP3    H152972   2.088   0.827  15.281  1.9461  3.1383 -1.9190
10519TIP3    H252973   2.065   0.966  15.336 -2.4820  1.3145  1.4427
10520TIP3   OH252974   0.128   5.451  16.614  0.5562 -0.2126  0.1237
10520TIP3    H152975   0.197   5.457  16.680  0.0943 -0.0498  0.5966
10520TIP3    H252976   0.137   5.532  16.563  0.2641  0.1452  0.6330
10521TIP3   OH252977   0.441   0.710  12.668  0.3209 -0.0424 -0.5611
10521TIP3    H152978   0.474   0.630  12.628  0.3319  0.4550 -1.5657
10521TIP3    H252979   0.359   0.727  12.622  1.5441  1.8953 -2.1685
10522TIP3   OH252980   0.399   4.786   1.398 -0.0192  1.0949  0.2209
10522TIP3    H152981   0.371   4.803   1.308 -1.8841 -0.3244  0.4607
10522TIP3    H252982   0.439   4.699   1.394  2.5804  2.2122  0.2946
10523TIP3   OH252983   0.293   4.179   5.258  0.5698 -0.3033  0.2920
10523TIP3    H152984   0.223   4.236   5.226 -1.8758 -1.6827  2.7775
10523TIP3    H252985   0.370   4.236   5.262 -0.5904  1.5479 -1.6026
10524TIP3   OH252986   2.612   5.288   2.472 -1.0697 -0.7493  0.5395
10524TIP3    H152987   2.654   5.290   2.558  1.1293 -2.3722 -0.4088
10524TIP3    H252988   2.523   5.258   2.491 -0.8059 -0.5826  2.2860
10525TIP3   OH252989   4.548   3.215   0.450  0.7815 -0.2496  0.0062
10525TIP3    H152990   4.575   3.156   0.379  0.4982  1.1851 -1.3586
10525TIP3    H252991   4.458   3.189   0.469  0.6337 -0.2327 -0.6319
10526TIP3   OH252992   0.297   5.336   1.100 -0.0396  0.2213 -0.2667
10526TIP3    H152993   0.206   5.343   1.128 -0.4452 -0.3218 -1.3760
10526TIP3    H252994   0.348   5.377   1.170 -1.1431  0.6100  0.3186
10527TIP3   OH252995   4.006   4.590   5.415  0.0005  0.1144  0.3707
10527TIP3    H152996   3.945   4.655   5.380  0.8369  1.0322  0.5467
10527TIP3    H252997   4.010   4.609   5.508 -0.4641 -0.8222  0.5933
10528TIP3   OH252998   6.148   6.242   6.588 -0.0536 -0.4615 -0.5600
10528TIP3    H152999   6.112   6.282   6.509 -0.2035  1.2803  0.3421
10528TIP3    H253000   6.074   6.233   6.647  0.6056  1.5267  0.6577
10529TIP3   OH253001   4.105   1.915   5.972 -0.2690 -0.6760 -0.0070
10529TIP3    H153002   4.173   1.899   6.037 -0.3289 -0.5593  0.0852
10529TIP3    H253003   4.025   1.924   6.023 -0.2891 -0.4122 -0.0835
10530TIP3   OH253004   2.152   4.298  15.838  0.2960  0.2182 -0.5930
10530TIP3    H153005   2.150   4.381  15.791 -0.2142 -0.2046 -1.3215
10530TIP3    H253006   2.243   4.268  15.829  0.6589  1.0005  0.2412
10531TIP3   OH253007   2.659   2.147  14.654  0.7426  0.2229 -0.4090
10531TIP3    H153008   2.644   2.128  14.562 -1.3272 -0.8062  0.0837
10531TIP3    H253009   2.645   2.241  14.662 -3.4324 -0.2109 -0.5188
10532TIP3   OH253010   5.243   6.238   5.620  0.4906  0.3081  0.5649
10532TIP3    H153011   5.330   6.225   5.658 -0.2833  0.9713  2.7489
10532TIP3    H253012   5.202   6.152   5.625  0.7393  0.1760  0.3261
10533TIP3   OH253013   2.212   1.006  14.059 -0.5130  0.3238  0.2278
10533TIP3    H153014   2.250   1.080  14.011 -0.6701  0.8043  0.8320
10533TIP3    H253015   2.176   1.045  14.139  0.2833 -0.5345  1.0395
10534TIP3   OH253016   4.031   5.651   4.870  0.7218  0.2197 -0.2209
10534TIP3    H153017   3.991   5.634   4.785  1.6228  2.1366 -1.0886
10534TIP3    H253018   4.024   5.568   4.917  0.7738 -1.0797 -2.3855
10535TIP3   OH253019   2.308   6.617  12.951  0.5407 -0.7197  0.5069
10535TIP3    H153020   2.390   6.595  12.995  1.2885  1.1678  0.1434
10535TIP3    H253021   2.287   6.705  12.983 -0.7297 -0.7021 -0.3085
10536TIP3   OH253022   6.759   2.547   3.778  0.6163  0.2626  0.1737
10536TIP3    H153023   6.685   2.516   3.725  0.3801 -1.7844  1.5675
10536TIP3    H253024   6.725   2.552   3.867  1.6232  1.3000  0.5227
10537TIP3   OH253025   4.219   2.101   0.850 -0.1788 -0.3809  0.6307
10537TIP3    H153026   4.310   2.083   0.829 -0.3381 -0.1997 -0.2914
10537TIP3    H253027   4.212   2.196   0.849 -0.1519 -0.3525  1.7817
10538TIP3   OH253028   1.190   0.566   2.250 -0.8332 -0.1403 -0.0482
10538TIP3    H153029   1.179   0.661   2.242 -0.8978  0.0031  1.4465
10538TIP3    H253030   1.262   0.555   2.311 -0.9269 -1.0594 -0.0807
10539TIP3   OH253031   4.422   3.469  16.351 -0.1471 -0.0994 -0.1656
10539TIP3    H153032   4.508   3.459  16.391 -0.3917 -1.1155  0.1407
10539TIP3    H253033   4.360   3.452  16.421 -0.5782 -1.1811 -0.7717
10540TIP3   OH253034   4.423   4.037  17.071  0.4816  0.2207 -0.4622
10540TIP3    H153035   4.381   3.960  17.110 -1.4317 -0.2509 -3.1544
10540TIP3    H253036   4.377   4.111  17.111  0.4811 -0.1067  0.1683
10541TIP3   OH253037   4.562   4.150  12.324  0.3598  0.6584 -0.4455
10541TIP3    H153038   4.479   4.157  12.371  0.4545  2.1913 -0.4602
10541TIP3    H253039   4.539   4.164  12.232  0.4895  0.0061 -0.5773
10542TIP3   OH253040   1.696   5.227   6.153  0.4971 -0.1110  0.6296
10542TIP3    H153041   1.767   5.183   6.199  0.5528 -0.3055  0.3619
10542TIP3    H253042   1.715   5.212   6.060 -0.2962 -0.8136  0.5702
10543TIP3   OH253043   5.595   5.069   0.175 -0.6716  0.0514  0.3850
10543TIP3    H153044   5.689   5.081   0.189 -0.3271  0.9272 -2.1192
10543TIP3    H253045   5.581   4.975   0.182  0.6273 -0.2216 -0.3711
10544TIP3   OH253046   0.725   5.191  16.983  0.2587 -0.4905 -0.2686
10544TIP3    H153047   0.756   5.274  16.948 -1.0371 -0.0288 -0.3728
10544TIP3    H253048   0.738   5.198  17.078 -0.1439 -0.0394 -0.2455
10545TIP3   OH253049   6.006   2.597  13.147 -0.4031  0.2086 -0.2029
10545TIP3    H153050   5.975   2.584  13.237  0.8008 -0.7476  0.0977
10545TIP3    H253051   5.935   2.644  13.104 -1.3967 -0.1511  0.9875
10546TIP3   OH253052   3.665   4.417   6.435 -0.3340  0.3113 -0.0702
10546TIP3    H153053   3.690   4.338   6.483 -2.8017 -0.4350  0.1684
10546TIP3    H253054   3.606   4.463   6.495  0.9811  2.3487 -0.2466
10547TIP3   OH253055   4.310   0.015  11.064 -0.0474 -0.3419 -0.6007
10547TIP3    H153056   4.316   0.007  11.159  0.8258  0.9632 -0.5190
10547TIP3    H253057   4.372  -0.049  11.030  0.8339  0.2844 -0.2246
10548TIP3   OH253058   5.265   1.771   1.664  0.6580 -0.0048  0.2799
10548TIP3    H153059   5.228   1.684   1.647  1.4790 -0.5041  0.9783
10548TIP3    H253060   5.280   1.773   1.758  1.5014  0.5480  0.1452
10549TIP3   OH253061   4.782   3.451   3.239  0.3142 -0.1815 -0.4114
10549TIP3    H153062   4.731   3.412   3.310  1.3169  0.1723  0.5415
10549TIP3    H253063   4.843   3.510   3.284  0.1776  0.9577 -1.6592
10550TIP3   OH253064   0.177   0.565   2.874  0.1237  0.2177  0.0204
10550TIP3    H153065   0.196   0.473   2.888 -2.5060 -0.2752  0.9891
10550TIP3    H253066   0.179   0.576   2.779  1.2605 -0.6085 -0.0727
10551TIP3   OH253067   5.755   0.947   4.999  0.0346  0.4267 -0.5993
10551TIP3    H153068   5.776   1.040   5.003 -0.9891  0.7010 -1.0670
10551TIP3    H253069   5.694   0.933   5.071 -1.4117  0.5967 -1.7376
10552TIP3   OH253070   0.965   3.555  11.201  0.6012  0.3469  0.4348
10552TIP3    H153071   0.898   3.608  11.244 -0.9970 -0.6114 -0.7527
10552TIP3    H253072   0.940   3.465  11.221  1.0377 -0.0425 -0.7088
10553TIP3   OH253073   5.128   2.391  14.995 -0.1679 -0.0626 -0.0372
10553TIP3    H153074   5.197   2.426  15.051 -1.5673  1.0978  1.0350
10553TIP3    H253075   5.049   2.392  15.050 -1.3787  0.1138 -1.6966
10554TIP3   OH253076   0.157   5.734   5.104 -0.1308  0.3097 -0.5953
10554TIP3    H153077   0.114   5.699   5.026 -0.2240 -0.7869 -0.0623
10554TIP3    H253078   0.126   5.679   5.176  0.6857  0.7068  0.0813
10555TIP3   OH253079   0.742   6.745  16.396 -0.2438  0.2095  0.2688
10555TIP3    H153080   0.775   6.834  16.412  0.4909  0.4630 -2.1380
10555TIP3    H253081   0.648   6.756  16.382  0.0273  0.8501 -1.2331
10556TIP3   OH253082   3.176   2.335  11.967 -0.3868  0.3231 -0.2813
10556TIP3    H153083   3.260   2.380  11.980  0.0245 -0.3073 -0.7161
10556TIP3    H253084   3.111   2.396  12.002  0.3030  0.5470  0.6485
10557TIP3   OH253085   0.989   2.632  11.769  0.6094  0.0519 -0.6777
10557TIP3    H153086   1.023   2.658  11.683 -0.3405 -1.2735 -1.4999
10557TIP3    H253087   0.967   2.539  11.758  2.1171 -0.6291  1.5374
10558TIP3   OH253088   2.967   6.025   1.912 -0.1640 -0.4236 -0.1709
10558TIP3    H153089   2.890   6.050   1.963 -0.3838 -0.8713 -0.2766
10558TIP3    H253090   2.940   6.035   1.821 -0.8110 -2.5326 -0.2708
10559TIP3   OH253091   3.613   1.220   3.379  0.5469  0.0414  0.5720
10559TIP3    H153092   3.607   1.212   3.474  1.3663  0.2624  0.6515
10559TIP3    H253093   3.707   1.223   3.362  0.3916  1.4233 -0.1328
10560TIP3   OH253094   3.365   3.130   3.579 -0.0162 -0.0078  0.1601
10560TIP3    H153095   3.406   3.112   3.663  2.0106  1.6819 -0.3870
10560TIP3    H253096   3.284   3.177   3.601 -1.3279 -2.6039  1.2269
10561TIP3   OH253097   4.526   0.110  15.219  0.5662  0.0541  0.4321
10561TIP3    H153098   4.528   0.095  15.124  0.3510  1.0405  0.2655
10561TIP3    H253099   4.515   0.022  15.257 -1.1096 -0.1854 -0.5143
10562TIP3   OH253100   3.881   4.321   1.104 -0.0316  0.4359  0.1758
10562TIP3    H153101   3.949   4.305   1.170  0.3367 -1.3872 -0.5860
10562TIP3    H253102   3.928   4.355   1.028  0.1179 -1.1802 -0.4828
10563TIP3   OH253103   5.934   5.741   4.124 -0.5575 -0.2036 -0.9323
10563TIP3    H153104   5.895   5.751   4.211 -0.8577 -0.7627 -0.9902
10563TIP3    H253105   5.979   5.824   4.107  0.2504 -0.4051  0.1200
10564TIP3   OH253106   3.829   4.808  16.491 -0.2047 -0.4103 -0.0260
10564TIP3    H153107   3.806   4.737  16.551  0.3973  0.4311  1.2492
10564TIP3    H253108   3.923   4.795  16.475  0.3412  1.0651  1.6383
10565TIP3   OH253109   0.084   6.185   5.547  0.2733  0.2261 -0.2720
10565TIP3    H153110   0.128   6.100   5.554  0.4123  0.3867  1.1415
10565TIP3    H253111   0.053   6.204   5.636 -0.8235  1.0977 -0.8123
10566TIP3   OH253112   1.317   3.781  13.638  0.6273 -0.0643 -0.5073
10566TIP3    H153113   1.411   3.792  13.626  0.4272  0.0022 -2.5134
10566TIP3    H253114   1.278   3.856  13.593 -0.3914 -0.8587 -1.0117
10567TIP3   OH253115   6.089   3.634  13.194 -0.2471 -0.5653  0.3641
10567TIP3    H153116   6.064   3.676  13.111 -0.4582 -2.0765 -0.3829
10567TIP3    H253117   6.049   3.689  13.261 -1.2707 -0.0674 -0.6026
10568TIP3   OH253118   0.252   1.793  15.506 -0.7345  0.1143  0.4607
10568TIP3    H153119   0.277   1.725  15.443  1.3952  0.5298  0.7979
10568TIP3    H253120   0.262   1.875  15.457 -1.2380  0.3180  0.6930
10569TIP3   OH253121   4.317   3.063  11.165  0.2077 -0.2222  0.0943
10569TIP3    H153122   4.367   3.017  11.098 -1.1144 -1.2334 -0.2381
10569TIP3    H253123   4.263   2.995  11.205 -1.4403  0.9304 -0.0714
10570TIP3   OH253124   3.433   3.485   3.373 -0.7218  0.1883 -0.1481
10570TIP3    H153125   3.521   3.513   3.401 -0.8620  1.2292 -0.6957
10570TIP3    H253126   3.374   3.552   3.407 -1.3160 -0.4918  0.1898
10571TIP3   OH253127   1.762   1.264   4.340 -0.1548 -0.5344  0.1421
10571TIP3    H153128   1.689   1.238   4.283 -0.6932 -1.5592  1.2631
10571TIP3    H253129   1.835   1.279   4.280 -0.8592 -1.0286 -0.8699
10572TIP3   OH253130   4.731   3.442   3.513 -0.4256 -0.0065  0.1943
10572TIP3    H153131   4.801   3.393   3.554 -0.0981  1.3895  1.3785
10572TIP3    H253132   4.654   3.425   3.567 -0.2666  0.9094  0.7223
10573TIP3   OH253133   0.006   5.855   0.656  0.7564 -0.1274  0.0429
10573TIP3    H153134   0.060   5.911   0.712 -1.3432  2.5997 -0.4362
10573TIP3    H253135   0.066   5.824   0.589  2.8886 -1.8490  2.5395
10574TIP3   OH253136   6.755   4.749  15.281  0.2400  0.3426  0.5320
10574TIP3    H153137   6.795   4.671  15.319  0.1105  0.1050  0.1727
10574TIP3    H253138   6.817   4.819  15.302 -0.0973  0.3224  1.6889
10575TIP3   OH253139   6.452   0.042  12.572  1.0485  0.0192  0.1766
10575TIP3    H153140   6.471   0.085  12.489 -0.7112 -0.2681 -0.4202
10575TIP3    H253141   6.390  -0.028  12.549 -1.1037  1.2240  1.9491
10576TIP3   OH253142   5.134   1.326   4.916  0.9463 -0.2177  0.2809
10576TIP3    H153143   5.094   1.244   4.888  0.1888  0.1123  0.3877
10576TIP3    H253144   5.102   1.391   4.854  3.5288 -0.3937 -1.4007
10577TIP3   OH253145   1.849   0.973   5.170 -0.2419  0.0903 -0.1163
10577TIP3    H153146   1.934   0.955   5.209 -0.1280 -0.2245 -0.5046
10577TIP3    H253147   1.786   0.958   5.241 -0.0573 -0.6968 -0.1069
10578TIP3   OH253148   1.923   6.747   0.612  0.6519  0.2703  0.2774
10578TIP3    H153149   1.953   6.793   0.534  1.4106  0.0534  0.4296
10578TIP3    H253150   1.916   6.655   0.585 -1.3094  0.4943 -0.1571
10579TIP3   OH253151   4.763   1.926  17.161 -0.4939 -0.0452 -0.2749
10579TIP3    H153152   4.756   1.999  17.223  1.8464  0.0011  0.0108
10579TIP3    H253153   4.843   1.880  17.187  0.2672 -0.3403 -2.9220
10580TIP3   OH253154   0.823   5.043  15.865  0.3982  0.6875  0.4608
10580TIP3    H153155   0.780   5.114  15.816 -0.3115  0.2449  0.4248
10580TIP3    H253156   0.836   5.080  15.952 -1.9016  0.2103  1.0902
10581TIP3   OH253157   2.329   2.481  14.200 -0.3160 -0.3295 -0.2647
10581TIP3    H153158   2.309   2.389  14.182  0.1124 -0.4311 -0.2155
10581TIP3    H253159   2.250   2.514  14.244  0.6646 -1.4810  2.5524
10582TIP3   OH253160   0.127   4.370   3.751  0.3095 -0.6447 -0.4353
10582TIP3    H153161   0.141   4.464   3.739 -1.0986 -0.5214 -1.3282
10582TIP3    H253162   0.209   4.329   3.723  0.9858  0.3073  0.1070
10583TIP3   OH253163   5.377   3.163  10.644  0.4053  0.4763 -0.0151
10583TIP3    H153164   5.413   3.192  10.560  0.4139  0.3206 -0.0671
10583TIP3    H253165   5.297   3.213  10.654  0.9329  1.2540  0.3780
10584TIP3   OH253166   1.842   3.528  10.886  0.0157  0.2513  0.0222
10584TIP3    H153167   1.934   3.502  10.898  0.0775 -0.5628 -1.7923
10584TIP3    H253168   1.792   3.455  10.924  0.1301  0.3089  0.2852
10585TIP3   OH253169   3.243   4.762  15.169  0.1879 -0.4751 -0.1336
10585TIP3    H153170   3.247   4.815  15.248 -0.1845 -1.1343  0.3418
10585TIP3    H253171   3.185   4.689  15.192  1.8529 -1.9101 -0.2391
10586TIP3   OH253172   6.773   6.362  17.125 -0.3233 -0.1333  0.2472
10586TIP3    H153173   6.728   6.279  17.141 -3.2612  1.3318  0.3076
10586TIP3    H253174   6.760   6.379  17.032  1.2508 -0.2294 -0.0151
10587TIP3   OH253175   2.057   6.325  16.722  0.1046 -0.4574  0.3089
10587TIP3    H153176   1.971   6.310  16.761  0.5906 -0.6699  1.3376
10587TIP3    H253177   2.092   6.237  16.707  0.2846 -0.3707  0.2186
10588TIP3   OH253178   3.304   5.109   0.390 -0.0290 -0.4985  0.2616
10588TIP3    H153179   3.299   5.130   0.483 -0.7582  0.9668 -0.0746
10588TIP3    H253180   3.359   5.030   0.386  1.3659  0.3389  1.7779
10589TIP3   OH253181   3.506   0.577  16.986 -0.3463  0.1397 -0.3168
10589TIP3    H153182   3.545   0.643  17.043  0.1867  0.5018 -1.0746
10589TIP3    H253183   3.577   0.554  16.925 -0.9129 -0.1980 -0.8575
10590TIP3   OH253184   0.468   1.349   3.724  0.2760 -0.0901  0.1093
10590TIP3    H153185   0.413   1.417   3.762  0.1756 -0.3387  0.4165
10590TIP3    H253186   0.407   1.288   3.682  0.3513 -0.1038  0.0182
10591TIP3   OH253187   3.154   1.596  11.198  0.2406 -0.2066 -0.5303
10591TIP3    H153188   3.198   1.661  11.143 -0.1279  0.5008 -0.0061
10591TIP3    H253189   3.162   1.514  11.149  0.0410  0.3757 -1.5671
10592TIP3   OH253190   1.871   3.350   1.897  0.0128  0.5186  0.6874
10592TIP3    H153191   1.935   3.371   1.828  0.9077  0.9600  1.6334
10592TIP3    H253192   1.889   3.413   1.966  0.4923 -1.1730  2.1711
10593TIP3   OH253193   1.293   3.022  15.439  0.5306  0.5570 -0.1079
10593TIP3    H153194   1.224   3.088  15.447  2.1588  2.3909 -0.3550
10593TIP3    H253195   1.372   3.066  15.469  1.3861 -1.9508  1.6355
10594TIP3   OH253196   6.478   5.990  10.752  0.0843 -0.1133  0.2871
10594TIP3    H153197   6.452   6.007  10.661  1.4724 -3.4753 -0.9040
10594TIP3    H253198   6.443   6.064  10.801 -1.7919  1.2422 -2.7822
10595TIP3   OH253199   5.365   2.120  11.688  0.5365 -0.4036  0.3672
10595TIP3    H153200   5.389   2.137  11.779  2.1152  0.8046 -0.2077
10595TIP3    H253201   5.359   2.025  11.682 -1.4089 -0.4637  2.1134
10596TIP3   OH253202   3.694   1.329  13.969 -0.3962  0.0886 -0.5118
10596TIP3    H153203   3.645   1.364  13.895 -1.7798 -1.4446 -0.3731
10596TIP3    H253204   3.655   1.243  13.985  1.1499 -0.4107  0.7862
10597TIP3   OH253205   0.443   0.692   1.011  0.0094  0.2987  0.4406
10597TIP3    H153206   0.452   0.611   1.061 -2.6766 -0.6032 -0.3760
10597TIP3    H253207   0.468   0.668   0.921 -1.0856  0.2582  0.1329
10598TIP3   OH253208   2.611   3.357   4.684  0.1750 -0.0540 -0.2350
10598TIP3    H153209   2.605   3.320   4.772 -1.6812 -1.7433 -0.9859
10598TIP3    H253210   2.556   3.435   4.687  0.0456 -0.1531  0.0889
10599TIP3   OH253211   6.464   3.086   4.365  0.2650 -0.1657  0.5380
10599TIP3    H153212   6.410   3.054   4.293 -2.0877  0.0765  2.1039
10599TIP3    H253213   6.488   3.007   4.414 -0.0004 -0.1251  0.7323
10600TIP3   OH253214   3.195   4.451   1.785  0.5852 -0.2796 -1.0549
10600TIP3    H153215   3.290   4.460   1.791  0.3825  2.4738 -0.9418
10600TIP3    H253216   3.162   4.540   1.777 -2.0715 -1.0642 -0.1347
10601TIP3   OH253217   4.152   0.459  13.406 -0.5185 -0.3619 -0.2244
10601TIP3    H153218   4.161   0.529  13.470 -1.3745 -2.1025  1.9000
10601TIP3    H253219   4.087   0.492  13.344 -0.7028  0.8263  0.5616
10602TIP3   OH253220   4.779   4.189   3.382  1.0187 -0.0426 -0.0271
10602TIP3    H153221   4.694   4.234   3.387  0.8079 -0.3972 -0.3678
10602TIP3    H253222   4.773   4.118   3.446  0.4558 -1.0487 -1.1633
10603TIP3   OH253223   1.173   6.044   0.171  0.8471  0.6517  0.1231
10603TIP3    H153224   1.253   5.993   0.187  1.1614  1.2688  0.5544
10603TIP3    H253225   1.204   6.133   0.153  0.2486  0.9645  0.5924
10604TIP3   OH253226   2.327   2.544   3.378 -0.8176 -0.3739 -0.4737
10604TIP3    H153227   2.405   2.505   3.338 -1.9233 -1.1987 -1.9240
10604TIP3    H253228   2.356   2.629   3.410  1.3905 -1.7707  1.6622
10605TIP3   OH253229   1.536   2.277  12.573 -0.6561  0.2737 -0.3707
10605TIP3    H153230   1.597   2.283  12.647 -0.2506  1.7229 -0.8041
10605TIP3    H253231   1.578   2.215  12.514 -0.2440  0.2598 -0.0697
10606TIP3   OH253232   4.151   5.452   3.910  0.5616  0.1133  0.4587
10606TIP3    H153233   4.119   5.363   3.896 -1.0869  0.1164  3.4444
10606TIP3    H253234   4.239   5.439   3.946  0.2915 -0.3504  0.9817
10607TIP3   OH253235   6.648   0.632  16.029  0.4971  0.0472 -0.0052
10607TIP3    H153236   6.657   0.695  15.958 -0.7476 -0.1516 -0.3603
10607TIP3    H253237   6.626   0.684  16.106  0.8398  0.1709  0.0083
10608TIP3   OH253238   2.959   4.664   1.780  0.4602 -0.3244  0.2442
10608TIP3    H153239   2.993   4.691   1.865 -1.0058  0.8373  0.5027
10608TIP3    H253240   2.877   4.619   1.799 -0.0070  0.1596 -0.5493
10609TIP3   OH253241   6.147   6.642  10.902  0.1850  0.1369 -0.1368
10609TIP3    H153242   6.153   6.547  10.891  2.2074  0.2754 -0.6787
10609TIP3    H253243   6.217   6.663  10.965 -0.0914  1.2806 -0.1898
10610TIP3   OH253244   4.306   5.558   5.429  0.1008  0.0650  0.3860
10610TIP3    H153245   4.364   5.563   5.506 -1.7530  0.6490  1.8148
10610TIP3    H253246   4.318   5.643   5.385  2.6046 -0.9765 -1.1580
10611TIP3   OH253247   3.336   3.786  14.042 -0.0468  0.5736 -0.1106
10611TIP3    H153248   3.344   3.763  13.950 -0.0785  3.4026 -0.9082
10611TIP3    H253249   3.276   3.721  14.078  0.3861 -0.9078 -1.9343
10612TIP3   OH253250   1.556   5.953  16.763 -0.3296  0.2201  0.1913
10612TIP3    H153251   1.588   6.018  16.826  1.8089  0.0447 -0.6267
10612TIP3    H253252   1.578   5.869  16.803 -1.1056  0.0347  0.2482
10613TIP3   OH253253   2.788   6.109   5.288 -0.6417  0.2987  0.2693
10613TIP3    H153254   2.724   6.128   5.219 -1.0230 -1.0248  0.2340
10613TIP3    H253255   2.783   6.014   5.300  1.8956  0.0346 -0.2866
10614TIP3   OH253256   6.462   3.792   2.955 -0.2948 -0.0274 -0.1481
10614TIP3    H153257   6.501   3.778   2.869 -0.6828  1.3320 -0.5772
10614TIP3    H253258   6.383   3.738   2.955 -1.7173  1.8826 -1.7091
10615TIP3   OH253259   3.023   3.681   0.511  0.1331 -0.1793  0.2013
10615TIP3    H153260   3.015   3.775   0.492 -0.2766 -0.0376  1.0144
10615TIP3    H253261   3.004   3.674   0.605 -1.2457 -1.2448 -0.1263
10616TIP3   OH253262   2.085   4.045  16.569 -0.1969 -0.6884 -0.3522
10616TIP3    H153263   1.996   4.074  16.551  0.4388  0.0060 -2.7548
10616TIP3    H253264   2.123   4.114  16.622 -0.9116 -0.7522  0.2645
10617TIP3   OH253265   1.166   2.066   2.473  0.8589 -0.2054  0.2827
10617TIP3    H153266   1.240   2.053   2.532 -0.8068 -0.7128  2.4087
10617TIP3    H253267   1.091   2.080   2.531 -1.1380 -1.9904 -1.6364
10618TIP3   OH253268   5.319   2.369   2.308  0.1691 -0.0022 -0.1433
10618TIP3    H153269   5.261   2.446   2.306  0.4133  0.1768 -0.4929
10618TIP3    H253270   5.260   2.295   2.296 -0.2507  0.0040  1.5670
10619TIP3   OH253271   2.615   5.603   0.587  0.0481  0.1029 -0.6592
10619TIP3    H153272   2.679   5.606   0.658 -2.1920  0.8005  1.4816
10619TIP3    H253273   2.570   5.520   0.599 -1.1715  0.7707 -0.4581
10620TIP3   OH253274   6.708   5.033  16.485 -0.1832 -0.1438  0.2310
10620TIP3    H153275   6.657   4.964  16.527 -0.3571  0.3412  0.8315
10620TIP3    H253276   6.709   5.009  16.392  0.2312 -1.2438  0.5118
10621TIP3   OH253277   5.504   2.568   1.796  0.2134  0.1096 -0.4872
10621TIP3    H153278   5.507   2.576   1.891 -0.5253 -0.0592 -0.4445
10621TIP3    H253279   5.575   2.624   1.765 -0.3207  1.1474  0.1115
10622TIP3   OH253280   1.410   5.117   3.273 -0.4865  0.3754  0.9474
10622TIP3    H153281   1.497   5.106   3.310 -0.0710 -0.8021 -0.2671
10622TIP3    H253282   1.405   5.051   3.203 -2.8417 -0.5522  1.8513
10623TIP3   OH253283   1.423   6.486  14.776  0.1286 -0.3271  0.4453
10623TIP3    H153284   1.368   6.518  14.705  2.0712  1.3352 -0.4256
10623TIP3    H253285   1.499   6.448  14.731  0.2606 -1.4944  1.6121
10624TIP3   OH253286   4.416   5.059   1.901  0.1083  0.1322 -0.2742
10624TIP3    H153287   4.451   5.094   1.820  0.2965 -0.8112 -0.6118
10624TIP3    H253288   4.324   5.040   1.882 -0.2894  1.4054  0.2297
10625TIP3   OH253289   6.122   2.090   4.608 -0.9500 -0.1083 -0.2047
10625TIP3    H153290   6.175   2.052   4.537 -1.5383  1.1790 -1.3691
10625TIP3    H253291   6.185   2.139   4.660 -0.9478  1.4161 -1.5865
10626TIP3   OH253292   3.612   2.831   0.310 -0.0054  0.4996  1.0316
10626TIP3    H153293   3.603   2.807   0.402 -0.4052 -0.4102  0.7612
10626TIP3    H253294   3.589   2.752   0.262  2.7805  0.0866  0.1818
10627TIP3   OH253295   0.967   4.854   3.969 -0.1587  0.8094 -0.8601
10627TIP3    H153296   0.972   4.916   4.042 -0.3782  0.7185 -0.7648
10627TIP3    H253297   1.056   4.848   3.936  0.5814 -1.3253  1.2316
10628TIP3   OH253298   0.129   2.269   0.637  0.6036  0.0696  0.3862
10628TIP3    H153299   0.208   2.322   0.649 -1.2914  2.6300  2.9478
10628TIP3    H253300   0.092   2.300   0.554  2.0974 -1.0690 -0.7764
10629TIP3   OH253301   1.142   0.992  14.442 -0.5322 -0.5705 -0.3531
10629TIP3    H153302   1.106   0.916  14.398 -0.4574 -0.4515 -0.6207
10629TIP3    H253303   1.172   0.959  14.527  0.3589 -1.0227 -0.8336
10630TIP3   OH253304   1.464   4.672   5.481  0.6496 -0.3160 -0.3600
10630TIP3    H153305   1.477   4.647   5.573 -0.3941 -0.3045 -0.1957
10630TIP3    H253306   1.403   4.607   5.447  1.1950 -0.4440 -1.1147
10631TIP3   OH253307   0.909   6.539   5.547 -0.7301 -0.1296 -0.3103
10631TIP3    H153308   1.004   6.530   5.560 -1.0793 -2.2322  1.2515
10631TIP3    H253309   0.884   6.613   5.603 -0.0959  0.0497 -0.2598
10632TIP3   OH253310   1.357   1.510  16.794  0.7958 -0.0699  0.0040
10632TIP3    H153311   1.398   1.424  16.804  1.9978 -0.3091 -4.5088
10632TIP3    H253312   1.272   1.492  16.753  0.9086  0.8402 -0.6659
10633TIP3   OH253313   0.407   0.997  13.042 -0.3149 -0.3995  0.2057
10633TIP3    H153314   0.499   0.972  13.034  0.1122  0.4612  1.8206
10633TIP3    H253315   0.386   0.982  13.135 -2.0454 -1.2934 -0.2813
10634TIP3   OH253316   3.546   4.736  13.237  0.0104 -0.1628  0.3500
10634TIP3    H153317   3.472   4.774  13.283 -0.5408 -1.5460  0.6685
10634TIP3    H253318   3.553   4.787  13.156 -2.3316 -0.9736 -0.4590
10635TIP3   OH253319   5.786   0.592   0.340 -0.4925  0.2436 -0.3720
10635TIP3    H153320   5.831   0.642   0.408  1.1349 -0.9336 -0.5114
10635TIP3    H253321   5.810   0.635   0.258  0.8491 -0.6526 -0.4859
10636TIP3   OH253322   0.721   0.720   3.698 -0.3881  0.0494  0.0869
10636TIP3    H153323   0.751   0.717   3.607 -0.9953 -3.0048 -0.1140
10636TIP3    H253324   0.795   0.686   3.748 -0.9287 -0.6391  0.4243
10637TIP3   OH253325   3.642   6.115   4.428  0.3707  0.5086 -0.0863
10637TIP3    H153326   3.561   6.090   4.472  0.8085  1.1363  1.1275
10637TIP3    H253327   3.709   6.111   4.497  1.2265  0.7604 -0.8771
10638TIP3   OH253328   3.152   0.124   0.437 -0.2426  0.4906  0.0359
10638TIP3    H153329   3.200   0.042   0.448  0.3839  1.0151  1.3286
10638TIP3    H253330   3.091   0.127   0.511 -1.1425  0.6206 -0.6814
10639TIP3   OH253331   4.487   3.313  14.129 -0.5205 -0.1422  0.1788
10639TIP3    H153332   4.496   3.321  14.034  0.4608 -2.3860  0.0100
10639TIP3    H253333   4.438   3.390  14.155 -3.0855 -0.6772 -2.4890
10640TIP3   OH253334   5.983   0.683  11.511 -0.4425  0.3442 -0.2459
10640TIP3    H153335   5.933   0.735  11.448 -0.3821  0.7353  0.0265
10640TIP3    H253336   6.060   0.736  11.530 -1.0821  0.8091  1.1248
10641TIP3   OH253337   5.057   4.924   1.350  0.1508 -0.0232 -0.1889
10641TIP3    H153338   5.082   4.860   1.283 -1.3001 -0.2868 -0.5116
10641TIP3    H253339   5.112   5.000   1.331  0.8123 -0.6258 -0.7528
10642TIP3   OH253340   1.240   0.602   4.404  0.3102 -0.0225 -0.1298
10642TIP3    H153341   1.282   0.536   4.461 -1.7015 -0.0014  1.4861
10642TIP3    H253342   1.166   0.634   4.455 -0.9606  0.8290 -2.3717
10643TIP3   OH253343   6.443   5.904  12.393  0.1329 -0.4955  0.6085
10643TIP3    H153344   6.496   5.880  12.469 -0.2254 -0.8854  0.7368
10643TIP3    H253345   6.475   5.991  12.368  0.7921 -0.7053  0.7148
10644TIP3   OH253346   4.943   1.434   2.993 -0.3866 -0.2365 -0.1990
10644TIP3    H153347   4.917   1.357   2.942 -1.9183  0.5102 -0.5874
10644TIP3    H253348   4.868   1.493   2.988  0.4137  0.9182  0.8417
10645TIP3   OH253349   1.385   6.760   0.188 -0.4264  0.0039  0.2070
10645TIP3    H153350   1.474   6.743   0.158 -0.2385 -0.6156  1.0646
10645TIP3    H253351   1.396   6.808   0.270 -0.8113 -1.5460  1.2156
10646TIP3   OH253352   6.346   3.470  17.168 -0.4118  0.3842 -0.4387
10646TIP3    H153353   6.359   3.557  17.206  0.0392 -0.2466  0.9046
10646TIP3    H253354   6.275   3.482  17.105 -0.5192  1.6746 -0.1023
10647TIP3   OH253355   2.580   4.666  12.917  0.2579  0.2888 -0.6331
10647TIP3    H153356   2.646   4.694  12.855  0.2658  1.4211 -0.1351
10647TIP3    H253357   2.611   4.582  12.950  1.0402  0.4407 -0.9801
10648TIP3   OH253358   5.821   4.687  12.486  0.5033 -0.3807 -0.6854
10648TIP3    H153359   5.826   4.731  12.571 -1.2788  0.2424 -0.8737
10648TIP3    H253360   5.820   4.759  12.423 -1.3315 -0.6966 -1.0542
10649TIP3   OH253361   4.462   5.096  15.751 -0.5673 -0.3770  0.2781
10649TIP3    H153362   4.407   5.113  15.827 -0.2290  0.9195  0.2426
10649TIP3    H253363   4.551   5.116  15.780 -0.0880 -2.2706  0.2752
10650TIP3   OH253364   2.733   3.878  12.433  0.4791 -0.1361 -0.3442
10650TIP3    H153365   2.662   3.933  12.400  0.2184  0.6640  1.4391
10650TIP3    H253366   2.724   3.796  12.384 -1.7663 -0.1116 -0.0710
10651TIP3   OH253367   2.386   3.851  12.561 -0.0337 -0.0851 -0.4900
10651TIP3    H153368   2.344   3.932  12.533 -1.0470  0.6692  2.7335
10651TIP3    H253369   2.473   3.879  12.592  0.1928 -0.4995 -0.7440
10652TIP3   OH253370   2.269   2.786   3.883 -0.2845  0.3432  0.2226
10652TIP3    H153371   2.310   2.704   3.856 -0.8597  0.5764 -1.5008
10652TIP3    H253372   2.266   2.781   3.978 -0.6085 -1.7930  0.1533
10653TIP3   OH253373   3.995   5.249  16.933 -0.1115  0.5402  0.4463
10653TIP3    H153374   4.059   5.305  16.976  1.0412 -0.1304 -0.3320
10653TIP3    H253375   3.948   5.307  16.873 -0.1760  1.0115  0.9398
10654TIP3   OH253376   2.529   2.463   2.847 -0.0759 -0.3756 -0.1189
10654TIP3    H153377   2.565   2.433   2.930  0.2936  1.3850  0.4029
10654TIP3    H253378   2.592   2.434   2.781  1.4380  1.1007  0.6002
10655TIP3   OH253379   4.886   0.180  15.990  0.1975 -0.3541  0.2199
10655TIP3    H153380   4.951   0.127  15.944  1.0669 -0.0699  1.0819
10655TIP3    H253381   4.861   0.128  16.066 -0.2112 -0.2422  0.1650
10656TIP3   OH253382   0.851   0.991  13.758  0.1194 -0.6331  0.1326
10656TIP3    H153383   0.883   1.017  13.845  0.3471 -0.3057 -0.0463
10656TIP3    H253384   0.817   1.072  13.721  0.7436 -0.6131 -0.3985
10657TIP3   OH253385   5.109   0.212   4.155  0.0876 -0.0779 -0.3966
10657TIP3    H153386   5.114   0.306   4.144  0.1781  0.1600  1.3617
10657TIP3    H253387   5.198   0.181   4.136 -0.0257  0.1274 -1.3132
10658TIP3   OH253388   2.451   1.701   3.053  0.1737  1.1142  0.9018
10658TIP3    H153389   2.521   1.725   2.992 -0.8527  1.8689 -0.0373
10658TIP3    H253390   2.371   1.724   3.006 -0.9003 -2.7153  0.5710
10659TIP3   OH253391   3.326   2.919  11.255 -0.4342  0.3226  0.0227
10659TIP3    H153392   3.342   2.933  11.161 -0.7135  1.9569  0.1947
10659TIP3    H253393   3.242   2.961  11.271 -0.0575  0.6713  1.1424
10660TIP3   OH253394   0.790   5.812   6.678  0.1085  0.0229  0.3244
10660TIP3    H153395   0.751   5.776   6.598 -1.2335 -1.8990  1.7511
10660TIP3    H253396   0.742   5.893   6.694 -0.1138  0.0458 -0.4240
10661TIP3   OH253397   6.150   3.112   3.175  0.1177 -0.1206 -0.5203
10661TIP3    H153398   6.168   3.128   3.267  0.3785  0.3088 -0.6419
10661TIP3    H253399   6.060   3.142   3.162 -0.5617 -1.8342 -0.0169
10662TIP3   OH253400   4.034   3.280   2.822 -0.3524  0.9422 -0.0251
10662TIP3    H153401   4.100   3.299   2.889 -0.1905  1.1038 -0.2338
10662TIP3    H253402   4.077   3.299   2.739  0.8952 -3.0331 -0.5002
10663TIP3   OH253403   6.509   6.668  13.361  0.6534  0.2760  0.1426
10663TIP3    H153404   6.551   6.694  13.443  0.7094  0.2073  0.1354
10663TIP3    H253405   6.563   6.708  13.292  0.9591 -0.1654  0.1178
10664TIP3   OH253406   0.438   5.653   1.949  0.6148  0.2211 -0.6101
10664TIP3    H153407   0.487   5.609   1.880  0.5140 -4.1024  1.7265
10664TIP3    H253408   0.505   5.689   2.007  0.7380  1.5880 -1.5581
10665TIP3   OH253409   1.175   2.335  17.056 -0.1875 -0.0248 -0.1384
10665TIP3    H153410   1.242   2.296  17.000 -1.0946  0.2625 -1.4718
10665TIP3    H253411   1.104   2.270  17.057 -0.0418 -0.2055  1.0353
10666TIP3   OH253412   5.732   4.354  14.097  0.0779 -0.6451 -0.4444
10666TIP3    H153413   5.673   4.279  14.090 -1.8337  0.7828 -0.4862
10666TIP3    H253414   5.742   4.386  14.007  0.6278 -0.6491 -0.3893
10667TIP3   OH253415   5.291   3.145  14.560  0.6958  0.8493 -0.0215
10667TIP3    H153416   5.221   3.090  14.526  0.4426  1.3133 -0.2615
10667TIP3    H253417   5.297   3.123  14.653  2.2365 -1.3555 -0.5598
10668TIP3   OH253418   3.310   5.861  16.285 -0.1689 -0.0371 -0.4299
10668TIP3    H153419   3.370   5.788  16.274 -0.4252 -0.3082 -0.0331
10668TIP3    H253420   3.356   5.936  16.246  0.1638 -0.3696 -0.6792
10669TIP3   OH253421   4.031   2.529   0.496 -0.3094 -0.1929  0.0103
10669TIP3    H153422   3.987   2.445   0.482  0.5123 -0.2577 -2.7722
10669TIP3    H253423   4.041   2.565   0.408  1.3738  1.7926  0.9524
10670TIP3   OH253424   5.695   4.360   1.534 -0.1047 -0.5071 -0.3750
10670TIP3    H153425   5.737   4.429   1.586 -0.3519 -1.3551  0.9914
10670TIP3    H253426   5.611   4.345   1.577 -0.5465 -0.8982 -1.3314
10671TIP3   OH253427   3.746   0.200  13.255 -0.2686  0.4103 -0.0015
10671TIP3    H153428   3.708   0.112  13.250  0.6640  0.0201 -0.2733
10671TIP3    H253429   3.778   0.218  13.167  1.2180  0.2563  0.4871
10672TIP3   OH253430   0.482   4.462  16.247 -0.6258  0.4944 -0.1006
10672TIP3    H153431   0.446   4.469  16.335 -1.4702  1.2412 -0.4851
10672TIP3    H253432   0.505   4.370  16.237 -0.4595  0.4163  0.9166
10673TIP3   OH253433   0.206   2.496   5.398  0.0896  0.1601  0.5837
10673TIP3    H153434   0.142   2.560   5.367  0.1707 -0.1085 -0.1547
10673TIP3    H253435   0.236   2.531   5.482 -0.9510  0.3379  0.8968
10674TIP3   OH253436   2.627   0.711  14.890 -0.3238  0.0164 -0.1136
10674TIP3    H153437   2.577   0.637  14.925 -0.2350 -0.1713 -0.3773
10674TIP3    H253438   2.710   0.672  14.861  0.5623  0.5367  1.5760
10675TIP3   OH253439   5.987   4.469  11.806  0.6104  0.5725 -0.1353
10675TIP3    H153440   6.006   4.541  11.866  2.6335 -0.6943  0.8320
10675TIP3    H253441   5.979   4.392  11.861  1.1676 -0.4109 -1.3697
10676TIP3   OH253442   2.325   1.261  11.237  0.9494 -0.3264  0.3681
10676TIP3    H153443   2.418   1.274  11.219  0.7597 -0.0515 -0.4552
10676TIP3    H253444   2.313   1.166  11.230  0.8616 -0.2303 -1.1839
10677TIP3   OH253445   6.132   1.485   3.395  0.3790 -0.3802  0.8662
10677TIP3    H153446   6.079   1.545   3.343  1.5050  0.2878  0.4470
10677TIP3    H253447   6.089   1.482   3.480 -1.1419 -1.0060  0.1213
10678TIP3   OH253448   2.836   6.206  12.649  0.0886 -0.3102  0.3247
10678TIP3    H153449   2.770   6.255  12.699  0.3178  0.1317  0.1966
10678TIP3    H253450   2.808   6.114  12.657 -1.5170 -0.0045 -1.1218
10679TIP3   OH253451   4.222   4.932  12.619 -0.1035  0.2755  0.2435
10679TIP3    H153452   4.317   4.932  12.615  0.0629  1.7295  2.5859
10679TIP3    H253453   4.201   4.930  12.712 -2.3162  2.1525 -0.1055
10680TIP3   OH253454   3.677   5.678  12.109  0.0091  0.2459  0.9339
10680TIP3    H153455   3.593   5.633  12.121  0.7682 -1.7068 -0.5339
10680TIP3    H253456   3.666   5.728  12.028 -0.0186  0.6782  1.2053
10681TIP3   OH253457   4.073   6.618   3.268  0.1141  0.1388 -0.1533
10681TIP3    H153458   3.988   6.611   3.310  1.7266 -0.0090  3.4931
10681TIP3    H253459   4.087   6.532   3.228 -0.5658 -0.6038  1.1394
10682TIP3   OH253460   4.795   3.723  16.702 -0.0561  0.0504 -0.8926
10682TIP3    H153461   4.827   3.704  16.790 -2.5966  1.9612  0.5781
10682TIP3    H253462   4.850   3.795  16.672  2.0841 -1.8123 -1.8055
10683TIP3   OH253463   6.657   4.802  16.644  0.1074  0.5706 -0.6167
10683TIP3    H153464   6.637   4.759  16.727 -0.5766 -0.0476 -1.0860
10683TIP3    H253465   6.642   4.735  16.577  0.2302  1.1763 -1.2739
10684TIP3   OH253466   2.509   4.771  13.818  0.1372 -0.1784  0.5288
10684TIP3    H153467   2.534   4.683  13.789  0.8430  0.4769 -0.9187
10684TIP3    H253468   2.526   4.770  13.912 -2.6920 -2.5330  1.1906
10685TIP3   OH253469   0.463   3.539  11.194  0.2346  0.4027  0.1834
10685TIP3    H153470   0.399   3.492  11.141  0.6786 -0.8323  0.6958
10685TIP3    H253471   0.544   3.533  11.143  0.2671  0.7426  0.1926
10686TIP3   OH253472   3.250   2.122  14.519  0.2826  0.6498  0.4046
10686TIP3    H153473   3.164   2.083  14.538  1.0397 -2.0946 -1.1163
10686TIP3    H253474   3.291   2.133  14.604 -0.2915 -1.3915  0.9977
10687TIP3   OH253475   3.406   0.525  14.470  0.1852 -0.1084 -0.1462
10687TIP3    H153476   3.469   0.597  14.464 -0.4249  0.3622 -1.1378
10687TIP3    H253477   3.458   0.446  14.457  0.6866  0.2180 -0.1490
10688TIP3   OH253478   3.844   0.140   2.316  0.1228 -0.2553  0.4190
10688TIP3    H153479   3.874   0.226   2.289  0.9879 -0.9505 -0.9581
10688TIP3    H253480   3.866   0.083   2.243 -3.6962 -1.0395 -0.3596
10689TIP3   OH253481   4.115   6.482   4.547  0.5063  0.2636  0.6451
10689TIP3    H153482   4.184   6.516   4.489  1.5352 -0.8634  1.1500
10689TIP3    H253483   4.087   6.401   4.504 -0.3070  0.5670  0.6011
10690TIP3   OH253484   5.296   1.503  14.694  0.0416 -0.1210  0.2856
10690TIP3    H153485   5.214   1.462  14.666 -0.9208  0.6411  1.8843
10690TIP3    H253486   5.339   1.528  14.612 -0.7806 -1.5215 -0.6199
10691TIP3   OH253487   4.148   2.570  11.207  0.0466  0.6281  0.4715
10691TIP3    H153488   4.198   2.570  11.125  1.7577  0.6332  1.4669
10691TIP3    H253489   4.183   2.644  11.256 -1.0180  0.6695  1.2006
10692TIP3   OH253490   1.750   1.682   0.662  0.5634  0.0523  0.2566
10692TIP3    H153491   1.747   1.740   0.585  2.8404  1.0344  0.8187
10692TIP3    H253492   1.777   1.597   0.627  0.5165  0.2105 -0.1736
10693TIP3   OH253493   2.599   0.704   1.429 -0.2488 -0.3946  0.0760
10693TIP3    H153494   2.618   0.641   1.360 -2.9386 -1.4695  0.2088
10693TIP3    H253495   2.578   0.785   1.382 -1.4811 -0.9526 -0.3674
10694TIP3   OH253496   6.345   6.521  16.638  0.3134  0.2517  0.2712
10694TIP3    H153497   6.267   6.540  16.587  0.3212 -1.3937 -0.4058
10694TIP3    H253498   6.411   6.582  16.606 -0.7996  2.0296  1.2254
10695TIP3   OH253499   3.630   1.046   2.279  0.3021 -0.5088 -0.0384
10695TIP3    H153500   3.603   0.976   2.220 -0.0180 -0.3604 -0.0694
10695TIP3    H253501   3.655   1.119   2.222  1.6562 -0.9485 -0.0432
10696TIP3   OH253502   5.352   5.737  16.886 -0.0263  0.5968 -0.3102
10696TIP3    H153503   5.390   5.654  16.915  0.8927  0.5329 -1.6041
10696TIP3    H253504   5.263   5.736  16.921  0.1640 -0.6772  0.1808
10697TIP3   OH253505   3.168   1.540   1.593 -0.0836  0.0931  0.0965
10697TIP3    H153506   3.186   1.490   1.513 -0.7339  1.4501 -0.9313
10697TIP3    H253507   3.236   1.608   1.595  2.4725 -2.1927  2.8685
10698TIP3   OH253508   2.819   4.422   0.741 -0.1135  0.0958 -0.8843
10698TIP3    H153509   2.739   4.447   0.695 -1.1665 -0.5943  0.4831
10698TIP3    H253510   2.823   4.326   0.731  0.8121  0.1733 -1.3456
10699TIP3   OH253511   1.759   4.264   4.119 -0.0398  0.3316 -0.3211
10699TIP3    H153512   1.734   4.178   4.152  0.0750  0.7443  0.8649
10699TIP3    H253513   1.853   4.256   4.102 -0.5551 -0.7762 -3.4276
10700TIP3   OH253514   5.240   5.396   5.033 -0.2876 -0.5146  0.2019
10700TIP3    H153515   5.238   5.310   5.075 -2.1996 -0.7697 -0.3169
10700TIP3    H253516   5.155   5.435   5.056  0.4227  1.1207  0.1670
10701TIP3   OH253517   4.618   0.938  16.702 -0.2811 -0.3888 -0.0468
10701TIP3    H153518   4.612   0.917  16.609 -0.3606 -0.4058 -0.0373
10701TIP3    H253519   4.529   0.929  16.735 -0.1909 -0.7187  0.1058
10702TIP3   OH253520   1.025   4.655  16.111 -0.6714  0.2463 -0.2621
10702TIP3    H153521   1.076   4.610  16.178  0.6893  1.3510 -0.5167
10702TIP3    H253522   0.934   4.635  16.132 -0.2002 -0.6269  1.0295
10703TIP3   OH253523   6.381   4.425   5.450  0.4392  0.3412 -0.1760
10703TIP3    H153524   6.434   4.472   5.386  0.4381  0.6952  0.0781
10703TIP3    H253525   6.374   4.485   5.524  0.1613  0.0691  0.0223
10704TIP3   OH253526   3.756   4.245  17.123  0.4088  0.3577  0.6416
10704TIP3    H153527   3.718   4.159  17.139  0.0316  0.7182  1.8052
10704TIP3    H253528   3.705   4.304  17.178  3.0030  0.7764  2.8477
10705TIP3   OH253529   2.978   3.366   5.937 -0.1724 -0.6866 -0.4016
10705TIP3    H153530   2.992   3.344   5.845 -0.7804  0.7456 -0.8799
10705TIP3    H253531   2.947   3.457   5.935  1.1814 -0.1296  1.3192
10706TIP3   OH253532   0.721   0.216   5.503  0.2722  0.6882 -0.0614
10706TIP3    H153533   0.639   0.264   5.500  1.1939  2.2865 -1.5010
10706TIP3    H253534   0.696   0.125   5.488 -1.3452  0.9353  0.9649
10707TIP3   OH253535   0.372   3.463  16.257  0.4800 -0.1414 -0.4058
10707TIP3    H153536   0.430   3.401  16.212  0.4745 -0.0777 -0.4994
10707TIP3    H253537   0.412   3.474  16.344  0.9970  0.4339 -0.7043
10708TIP3   OH253538   3.516   3.371  15.896  0.2415 -0.4294  0.3682
10708TIP3    H153539   3.602   3.352  15.933  0.1361 -1.4957  0.1174
10708TIP3    H253540   3.458   3.379  15.972  0.1414 -2.0042  0.4876
10709TIP3   OH253541   4.651   1.554  15.537 -0.0812  0.7109 -0.1224
10709TIP3    H153542   4.678   1.609  15.610 -0.1784 -0.5757  0.9243
10709TIP3    H253543   4.689   1.596  15.459  0.1280  2.0305  0.6726
10710TIP3   OH253544   4.446   5.397  12.435 -0.2140  0.4390 -0.5845
10710TIP3    H153545   4.354   5.397  12.462 -1.0650  0.2705 -3.2323
10710TIP3    H253546   4.484   5.323  12.481 -1.5505  0.1209  0.0658
10711TIP3   OH253547   5.035   5.235   0.557  0.3770  0.0142  0.2054
10711TIP3    H153548   5.104   5.186   0.513  1.0750  3.3504 -2.9305
10711TIP3    H253549   4.956   5.217   0.506  0.0286  0.0588  0.7176
10712TIP3   OH253550   3.785   6.316  12.210  0.5121 -0.1542  0.4086
10712TIP3    H153551   3.855   6.280  12.265 -0.9401 -2.2156  1.0688
10712TIP3    H253552   3.704   6.292  12.257 -0.6824  0.8648 -1.0443
10713TIP3   OH253553   0.934   4.163   3.413  0.5366 -0.0399 -0.7775
10713TIP3    H153554   1.001   4.190   3.351  0.6215  1.4858 -0.0623
10713TIP3    H253555   0.922   4.239   3.471  1.0861 -1.6605  1.6363
10714TIP3   OH253556   6.783   0.828   0.553  0.3702 -0.3912 -0.0988
10714TIP3    H153557   6.857   0.825   0.615 -1.8853 -0.9841  2.7758
10714TIP3    H253558   6.783   0.918   0.521  1.2984  0.1206  1.2332
10715TIP3   OH253559   3.710   5.086   2.021 -0.4997 -0.3582  0.1012
10715TIP3    H153560   3.676   4.996   2.017  0.3107 -0.6549 -0.3695
10715TIP3    H253561   3.767   5.093   1.945  0.3506  0.1866  0.7784
10716TIP3   OH253562   6.113   2.283   0.063  0.5412  0.2137  0.2603
10716TIP3    H153563   6.197   2.236   0.070  0.2279 -0.7752 -1.8141
10716TIP3    H253564   6.125   2.343  -0.011 -0.4307  0.3681  0.2164
10717TIP3   OH253565   2.872   4.546  17.139 -0.5024 -0.5823  0.2120
10717TIP3    H153566   2.825   4.610  17.085 -0.1194 -1.9447 -1.8462
10717TIP3    H253567   2.949   4.524  17.088  1.4122  0.1031  2.6114
10718TIP3   OH253568   5.281   5.747   0.561 -0.4165  0.3299 -0.2721
10718TIP3    H153569   5.374   5.725   0.559 -0.3564  0.5107 -2.6980
10718TIP3    H253570   5.241   5.678   0.614  1.1690  0.7543  1.5885
10719TIP3   OH253571   4.255   3.045  17.214 -0.1292  0.3507 -0.0565
10719TIP3    H153572   4.290   2.986  17.281 -0.7375 -0.4459 -0.4215
10719TIP3    H253573   4.304   3.126  17.225  1.5799 -0.6133 -0.3340
10720TIP3   OH253574   0.716   0.022   0.331  0.8909  0.0926 -0.0382
10720TIP3    H153575   0.678  -0.033   0.399  2.1849 -2.1785 -1.0448
10720TIP3    H253576   0.775  -0.036   0.283  4.1324  2.8508  0.2237
10721TIP3   OH253577   2.466   5.223   4.839  0.7127  0.4263 -0.1055
10721TIP3    H153578   2.534   5.254   4.898  1.7485  1.2582 -1.6703
10721TIP3    H253579   2.504   5.147   4.795 -0.1384 -0.3368  0.4317
10722TIP3   OH253580   1.416   2.909   2.406 -0.1433 -0.5038 -0.0862
10722TIP3    H153581   1.337   2.921   2.354  0.9785 -1.3167 -2.1276
10722TIP3    H253582   1.471   2.852   2.352  1.4141 -0.8181  1.7227
10723TIP3   OH253583   2.624   0.081   6.177  0.6854 -0.4895 -0.4082
10723TIP3    H153584   2.632   0.139   6.102  0.2756 -2.5712 -2.1784
10723TIP3    H253585   2.530   0.072   6.191  0.7546  0.9006  1.2653
10724TIP3   OH253586   1.648   5.745  13.509 -0.5748 -0.6741 -0.6034
10724TIP3    H153587   1.560   5.779  13.493 -0.0517  1.2394  0.2503
10724TIP3    H253588   1.703   5.823  13.519  0.5652 -1.6845  2.3716
10725TIP3   OH253589   2.286   4.615   6.263  0.4686 -0.1816  0.1010
10725TIP3    H153590   2.215   4.634   6.324  0.2158 -1.5424  0.2544
10725TIP3    H253591   2.356   4.675   6.289 -0.6491  1.2885 -0.1540
10726TIP3   OH253592   3.181   4.306   0.763  0.1074 -0.5553  0.1017
10726TIP3    H153593   3.143   4.219   0.749 -0.1641 -0.4512  0.1706
10726TIP3    H253594   3.270   4.290   0.793 -0.1062 -0.8212  0.6042
10727TIP3   OH253595   4.886   2.493  14.063  0.0602  0.1221 -0.4296
10727TIP3    H153596   4.902   2.537  13.980 -1.0158  2.5792  0.5612
10727TIP3    H253597   4.965   2.509  14.114  0.6465 -1.2308 -0.8656
10728TIP3   OH253598   5.834   0.723   2.836 -0.4459  0.3165 -0.1446
10728TIP3    H153599   5.781   0.744   2.759 -0.0286  1.7064 -0.0750
10728TIP3    H253600   5.924   0.744   2.810 -0.1727 -0.1293  0.4131
10729TIP3   OH253601   0.249   2.530  10.945 -0.1160  0.2226  0.4216
10729TIP3    H153602   0.239   2.507  11.037 -0.4726  0.1972  0.3784
10729TIP3    H253603   0.190   2.605  10.933 -0.4550 -0.0943  0.0949
10730TIP3   OH253604   6.072   4.457  15.107 -0.0180 -0.2569  0.1659
10730TIP3    H153605   5.991   4.460  15.158  1.3164 -1.0827  2.4473
10730TIP3    H253606   6.119   4.536  15.132  0.9807 -1.0443  0.8547
10731TIP3   OH253607   1.657   5.955   5.175 -0.3092  0.0947  0.6667
10731TIP3    H153608   1.689   6.043   5.196  2.7369 -0.7904  0.1940
10731TIP3    H253609   1.651   5.910   5.259  1.5416 -0.2389  0.6591
10732TIP3   OH253610   0.902   0.408   1.211 -0.4503  0.3943  0.0270
10732TIP3    H153611   0.935   0.480   1.158 -0.5224 -0.2906 -0.9793
10732TIP3    H253612   0.979   0.354   1.230 -0.3245  0.9364  1.1271
10733TIP3   OH253613   2.700   4.299  10.666  0.2567 -0.1356  0.0655
10733TIP3    H153614   2.708   4.216  10.713 -1.3895 -0.5317 -0.2909
10733TIP3    H253615   2.659   4.276  10.582 -2.1853  1.2203  0.7743
10734TIP3   OH253616   2.184   3.029   0.761 -0.2368  0.2655 -0.5747
10734TIP3    H153617   2.265   3.037   0.812  0.2177  0.6062 -1.3320
10734TIP3    H253618   2.146   3.117   0.762 -0.3841  0.2013 -0.5623
10735TIP3   OH253619   1.255   6.357  16.097  0.5728 -0.9474 -0.3110
10735TIP3    H153620   1.215   6.422  16.155  0.0600 -2.0507  0.6091
10735TIP3    H253621   1.239   6.391  16.009  1.8602  1.0564  0.1549
10736TIP3   OH253622   6.089   6.260  15.403  0.0929  0.0560 -0.1173
10736TIP3    H153623   5.998   6.279  15.382 -0.4192  0.5972  2.3249
10736TIP3    H253624   6.095   6.164  15.401  0.4388  0.0276 -3.6879
10737TIP3   OH253625   2.433   1.483  16.612  0.4017  0.3754 -0.4801
10737TIP3    H153626   2.351   1.506  16.657  0.7620  1.6172 -0.4064
10737TIP3    H253627   2.502   1.509  16.674  0.8732  0.5538 -1.0698
10738TIP3   OH253628   1.918   5.934  14.827 -0.1255 -0.0263 -0.1388
10738TIP3    H153629   1.866   5.941  14.746  0.4125  0.3999 -0.4596
10738TIP3    H253630   1.857   5.900  14.892 -0.0975 -2.1601 -1.1656
10739TIP3   OH253631   1.234   2.966   5.195  0.2205  0.1216 -0.1026
10739TIP3    H153632   1.187   2.943   5.275 -0.0730 -0.2540 -0.3814
10739TIP3    H253633   1.175   2.942   5.124 -0.7197  2.9424 -0.4254
10740TIP3   OH253634   4.171   2.444   0.970  0.5961  0.8253  0.2955
10740TIP3    H153635   4.201   2.433   0.880 -0.7773 -1.7608  0.0479
10740TIP3    H253636   4.237   2.399   1.023  1.1709  1.9597  0.5718
10741TIP3   OH253637   1.784   4.742   4.738 -0.0818  0.7054  0.4347
10741TIP3    H153638   1.767   4.737   4.644 -0.9840 -0.6894  0.6314
10741TIP3    H253639   1.827   4.826   4.751  0.5143  0.7011 -1.2924
10742TIP3   OH253640   0.711   3.607  12.701  0.1141 -0.4796 -0.1987
10742TIP3    H153641   0.713   3.551  12.623 -2.2090 -0.5524 -0.2747
10742TIP3    H253642   0.726   3.547  12.774  4.1385 -0.1642 -0.5519
10743TIP3   OH253643   5.772   0.972   6.054 -0.0049 -0.3070 -0.1970
10743TIP3    H153644   5.833   1.035   6.093 -1.5635  1.1980 -0.0938
10743TIP3    H253645   5.710   0.951   6.124  0.4310 -1.9375 -0.2509
10744TIP3   OH253646   3.270   5.276   1.495 -0.5327 -0.0856 -0.0430
10744TIP3    H153647   3.267   5.188   1.532 -1.1710  0.8394  2.2639
10744TIP3    H253648   3.361   5.303   1.504 -0.3428 -0.4770 -0.7251
10745TIP3   OH253649   1.214   2.752  15.388  0.1575 -0.5683  0.5763
10745TIP3    H153650   1.196   2.751  15.294 -0.8736 -1.4322  0.7619
10745TIP3    H253651   1.260   2.834  15.402  3.9439 -2.0889 -1.2872
10746TIP3   OH253652   5.073   3.618  15.306 -0.5180 -0.2883  0.3420
10746TIP3    H153653   5.137   3.678  15.344  2.5537 -1.7749 -2.0545
10746TIP3    H253654   5.076   3.540  15.363  0.4710 -0.6560 -0.1854
10747TIP3   OH253655   4.644   6.398   4.403  0.0364  0.2370  0.0130
10747TIP3    H153656   4.571   6.460   4.398  0.8950  1.3448  0.7686
10747TIP3    H253657   4.648   6.359   4.316 -1.0311  0.6491 -0.2367
10748TIP3   OH253658   0.444   5.089  16.156  0.5520  0.0233 -0.4619
10748TIP3    H153659   0.490   5.173  16.163 -0.0355  0.1907  2.1235
10748TIP3    H253660   0.503   5.026  16.196  0.3025 -0.5247 -0.9500
10749TIP3   OH253661   2.739   2.557  14.857 -0.1296 -0.2472 -0.1915
10749TIP3    H153662   2.714   2.490  14.921 -1.1411  0.9651  0.7396
10749TIP3    H253663   2.830   2.577  14.877 -0.3901  0.0027  0.7836
10750TIP3   OH253664   4.821   4.117  12.566  0.0767  0.2617  0.2346
10750TIP3    H153665   4.876   4.068  12.627 -0.8897 -1.5630 -0.2718
10750TIP3    H253666   4.877   4.129  12.489  1.3093  2.5966  1.3746
10751TIP3   OH253667   0.719   1.565  16.587 -0.1127 -0.0232  0.4118
10751TIP3    H153668   0.737   1.657  16.607 -0.2964  0.2875 -0.8035
10751TIP3    H253669   0.711   1.523  16.673 -0.1188  1.1120  0.9787
10752TIP3   OH253670   4.955   5.968  15.773  0.4457 -0.2035 -0.0098
10752TIP3    H153671   4.979   5.891  15.721 -0.7167 -0.5352 -0.0988
10752TIP3    H253672   4.980   5.945  15.863  0.4235 -0.5494 -0.0905
10753TIP3   OH253673   0.148   5.781  11.501 -0.3155  0.5164 -0.2725
10753TIP3    H153674   0.065   5.765  11.456 -0.6922  0.3127  0.4860
10753TIP3    H253675   0.149   5.718  11.573  0.6509  0.2860 -0.4657
10754TIP3   OH253676   5.581   4.549   0.348 -0.6247 -0.0007  0.3612
10754TIP3    H153677   5.508   4.528   0.406 -1.1423 -0.8882 -0.5739
10754TIP3    H253678   5.644   4.478   0.361  0.6143  1.3092  1.9590
10755TIP3   OH253679   2.671   3.695   4.874 -0.1208  0.0161  0.2799
10755TIP3    H153680   2.756   3.695   4.829  0.1818 -2.0973  0.7433
10755TIP3    H253681   2.692   3.721   4.964  0.1834 -1.1693  0.5711
10756TIP3   OH253682   4.261   0.131  12.691 -0.1555  0.4315 -0.3424
10756TIP3    H153683   4.351   0.138  12.661 -0.0629  0.5195 -0.0461
10756TIP3    H253684   4.252   0.041  12.721 -0.1562  0.4337 -0.3360
10757TIP3   OH253685   0.500   0.581  15.455  0.0125  0.2939 -0.4146
10757TIP3    H153686   0.527   0.515  15.391 -1.0181 -0.8724  0.3076
10757TIP3    H253687   0.556   0.657  15.436  2.2032 -1.2067 -0.4124
10758TIP3   OH253688   1.466   0.385  12.059  0.0977 -0.3559  0.2628
10758TIP3    H153689   1.510   0.437  11.992 -1.1182 -1.1973 -1.2536
10758TIP3    H253690   1.529   0.381  12.132  1.9394 -0.3574 -1.2636
10759TIP3   OH253691   4.817   6.402  16.000  0.1413  0.3811  0.3836
10759TIP3    H153692   4.887   6.426  15.939 -0.4223  1.1161  0.0185
10759TIP3    H253693   4.792   6.485  16.041 -0.9633  0.2305  0.0369
10760TIP3   OH253694   0.210   1.449  11.147 -0.0503  0.4993 -0.1936
10760TIP3    H153695   0.152   1.465  11.073  0.9097  0.6078 -0.9465
10760TIP3    H253696   0.176   1.505  11.217 -0.6754  0.7784 -0.7084
10761TIP3   OH253697   5.682   2.512   3.561  0.3383 -0.5840  0.4971
10761TIP3    H153698   5.683   2.603   3.590  0.8384 -0.0374 -1.1386
10761TIP3    H253699   5.657   2.516   3.469  0.1252 -2.1293  0.4554
10762TIP3   OH253700   0.660   0.161   2.240 -0.3190  0.3555  0.4464
10762TIP3    H153701   0.674   0.073   2.204 -2.8244  0.0142  0.1317
10762TIP3    H253702   0.584   0.194   2.193 -0.7031  1.8663  2.0391
10763TIP3   OH253703   0.892   0.053  15.538 -0.4630  0.5481  0.0776
10763TIP3    H153704   0.851   0.138  15.554 -0.0342  0.9508 -0.8882
10763TIP3    H253705   0.830  -0.011  15.573 -1.7605  1.1626 -1.0311
10764TIP3   OH253706   3.407   5.283  16.768 -0.4909  0.2802  0.6025
10764TIP3    H153707   3.417   5.298  16.862  0.0890 -0.4493  0.6762
10764TIP3    H253708   3.361   5.199  16.763  0.1755 -0.0698  0.2440
10765TIP3   OH253709   2.653   5.826  16.733  0.1758  0.5130  0.0124
10765TIP3    H153710   2.637   5.900  16.674 -0.2687 -0.9289 -1.7893
10765TIP3    H253711   2.741   5.796  16.710 -0.1311 -0.2706 -0.1792
10766TIP3   OH253712   1.562   2.982  13.785 -0.6687  0.5880 -0.3199
10766TIP3    H153713   1.644   3.015  13.747  0.9266 -0.5482  1.8947
10766TIP3    H253714   1.556   2.892  13.754 -0.5353  0.3595  0.3098
10767TIP3   OH253715   4.996   5.451  13.704 -0.1551  0.6098 -0.8354
10767TIP3    H153716   4.932   5.381  13.721  0.5338 -0.1924 -1.4551
10767TIP3    H253717   5.025   5.435  13.614  1.6474  0.3469 -0.2467
10768TIP3   OH253718   6.263   0.691   0.286 -0.0981 -0.1187  0.4982
10768TIP3    H153719   6.327   0.628   0.251 -0.3932  0.1064 -0.4872
10768TIP3    H253720   6.287   0.701   0.378  0.7771 -0.6663  0.3434
10769TIP3   OH253721   5.593   6.267   1.206 -0.2001 -0.0394 -0.0807
10769TIP3    H153722   5.534   6.194   1.189  0.0981 -0.3611  0.2513
10769TIP3    H253723   5.678   6.226   1.220 -0.3711  0.2167  1.9682
10770TIP3   OH253724   5.877   5.020   1.756 -0.6894 -0.0435  0.3307
10770TIP3    H153725   5.893   5.114   1.748 -0.7370  0.1016  1.6567
10770TIP3    H253726   5.888   5.002   1.849  2.3841 -1.9158 -0.2280
10771TIP3   OH253727   0.127   5.554  14.070 -0.0165  0.2013 -0.5545
10771TIP3    H153728   0.201   5.614  14.079 -0.1728  0.1940  0.9271
10771TIP3    H253729   0.160   5.484  14.013  1.2799 -0.0348  0.4321
10772TIP3   OH253730   4.076   4.740   5.162 -0.1681 -0.2754 -0.0654
10772TIP3    H153731   4.012   4.780   5.221 -0.3529  2.3978 -1.8703
10772TIP3    H253732   4.022   4.702   5.092  0.1175 -1.4979  0.3634
10773TIP3   OH253733   1.561   2.767  13.631 -0.5223  0.2772  0.3699
10773TIP3    H153734   1.529   2.696  13.575  0.0649 -0.8610  1.4231
10773TIP3    H253735   1.656   2.758  13.630 -0.4421  1.0408  0.5286
10774TIP3   OH253736   4.681   4.135  11.411 -0.6281  0.7521  0.2609
10774TIP3    H153737   4.724   4.208  11.458  1.3954 -0.4987  0.4846
10774TIP3    H253738   4.747   4.105  11.349 -1.6690 -0.4920 -0.2826
10775TIP3   OH253739   5.240   3.813  12.099 -0.3558 -0.5140  0.1745
10775TIP3    H153740   5.314   3.873  12.110 -0.1297 -1.0105  1.5108
10775TIP3    H253741   5.172   3.866  12.057 -0.0277  0.5750  0.9824
10776TIP3   OH253742   6.043   6.028   2.020  0.1546  0.2793  0.6140
10776TIP3    H153743   6.093   6.081   1.958 -0.9506  0.5121 -0.1211
10776TIP3    H253744   5.952   6.057   2.008  0.0352  1.2305  3.2614
10777TIP3   OH253745   3.268   4.517  16.831  0.2586  0.5120  0.0993
10777TIP3    H153746   3.350   4.551  16.794  0.2265  0.5732  0.0844
10777TIP3    H253747   3.204   4.527  16.760  0.2886  0.2612  0.0365
10778TIP3   OH253748   1.732   2.552   2.879 -0.1911  0.2380 -0.9333
10778TIP3    H153749   1.759   2.571   2.969 -0.9326 -0.3974 -0.5624
10778TIP3    H253750   1.813   2.529   2.834  0.0121 -0.8402 -0.0649
10779TIP3   OH253751   0.775   0.771   5.392 -0.4787 -0.0156 -1.1973
10779TIP3    H153752   0.811   0.779   5.481  1.2229 -0.6379 -1.7836
10779TIP3    H253753   0.685   0.743   5.405  0.3791 -2.3481  0.3311
10780TIP3   OH253754   4.321   1.580   0.006 -1.0774  0.4742  0.6643
10780TIP3    H153755   4.346   1.524   0.079 -0.0879 -0.3409 -0.2668
10780TIP3    H253756   4.271   1.651   0.046 -2.0633 -0.8678  1.9254
10781TIP3   OH253757   6.075   0.809   4.673  0.1431  0.1390 -0.1441
10781TIP3    H153758   6.107   0.784   4.586  1.5061  1.5305 -0.0709
10781TIP3    H253759   6.153   0.805   4.729 -0.4844  0.4219  0.7614
10782TIP3   OH253760   0.282   2.364  16.351  0.1290  0.3841  0.2010
10782TIP3    H153761   0.210   2.409  16.395  0.8909 -0.0926  2.0068
10782TIP3    H253762   0.274   2.273  16.379  1.0695  0.2066 -0.0767
10783TIP3   OH253763   4.863   4.717  13.395 -0.1439  0.3631  0.0286
10783TIP3    H153764   4.863   4.721  13.300  0.7863 -0.7944 -0.0407
10783TIP3    H253765   4.955   4.706  13.419 -0.2321  1.6368  1.1328
10784TIP3   OH253766   3.424   6.547  13.112  0.5324  0.2410 -0.3332
10784TIP3    H153767   3.478   6.556  13.033 -0.7670  0.4951 -1.2332
10784TIP3    H253768   3.472   6.486  13.168  2.3333  1.3933 -0.5476
10785TIP3   OH253769   4.329   3.073   1.932  0.4516 -1.0282 -0.1914
10785TIP3    H153770   4.395   3.031   1.988  0.4157 -0.9453 -0.0880
10785TIP3    H253771   4.356   3.049   1.843  0.5505 -1.0992 -0.1435
10786TIP3   OH253772   3.838   6.122  17.116  0.4973 -0.4685 -0.2809
10786TIP3    H153773   3.862   6.030  17.110 -0.3420 -0.5981 -2.6289
10786TIP3    H253774   3.876   6.163  17.038 -1.1119  0.6585 -0.5401
10787TIP3   OH253775   4.712   6.443   1.333 -0.2424  0.3941 -0.3344
10787TIP3    H153776   4.635   6.462   1.387 -1.8029 -0.7188 -2.0603
10787TIP3    H253777   4.708   6.508   1.263  0.9195  0.8800  0.0330
10788TIP3   OH253778   3.513   3.838   1.091 -0.1537  0.0621 -0.3897
10788TIP3    H153779   3.490   3.746   1.076 -0.1197  0.2126 -1.4128
10788TIP3    H253780   3.586   3.855   1.031  1.4121  0.1326  1.4139
10789TIP3   OH253781   3.838   1.594  13.813 -0.0681 -0.2670 -0.1117
10789TIP3    H153782   3.745   1.615  13.830 -0.6742 -0.7335 -2.5411
10789TIP3    H253783   3.842   1.499  13.817  0.0116 -0.3206 -1.2984
10790TIP3   OH253784   6.349   2.433  15.744  0.4489 -0.7255  0.2749
10790TIP3    H153785   6.275   2.373  15.734  0.5438 -0.7677 -0.1776
10790TIP3    H253786   6.413   2.403  15.680  0.0129  0.6163 -0.8446
10791TIP3   OH253787   3.970   0.121   1.880 -0.6703 -0.3478  0.2628
10791TIP3    H153788   3.959   0.051   1.816  0.0121 -0.6316  0.4460
10791TIP3    H253789   3.915   0.192   1.847  0.6452 -0.0155 -1.3569
10792TIP3   OH253790   0.664   3.388  11.350  0.1011 -0.1080 -0.4822
10792TIP3    H153791   0.720   3.432  11.413 -0.9978 -1.0657  1.2742
10792TIP3    H253792   0.613   3.458  11.309  0.4420  0.4907  0.1122
10793TIP3   OH253793   5.142   4.706   6.562 -0.1469 -0.4026  0.4027
10793TIP3    H153794   5.235   4.726   6.571  0.7087 -3.4311 -0.4124
10793TIP3    H253795   5.118   4.666   6.646 -0.5314 -0.2480  0.3691
10794TIP3   OH253796   2.971   5.655  10.810  0.3288  0.4860  0.1545
10794TIP3    H153797   2.995   5.663  10.902  1.0039  3.5932 -0.2043
10794TIP3    H253798   3.037   5.596  10.773 -1.3039 -2.7539  2.0040
10795TIP3   OH253799   6.005   0.355  14.372  0.0890 -0.3230  0.2427
10795TIP3    H153800   6.069   0.391  14.311  1.8751 -2.8034  0.4920
10795TIP3    H253801   5.958   0.288  14.322  0.3166 -1.1187  1.0542
10796TIP3   OH253802   4.310   5.439   0.738  0.1525  0.2216  0.0695
10796TIP3    H153803   4.223   5.428   0.699  0.3335  2.3475 -1.1429
10796TIP3    H253804   4.361   5.485   0.670  1.4625  1.2485  1.6522
10797TIP3   OH253805   3.388   5.718   0.020 -0.1098 -0.1614 -0.2123
10797TIP3    H153806   3.364   5.804   0.054  2.8516  0.4291  0.7275
10797TIP3    H253807   3.392   5.729  -0.075  0.6872  0.9016 -0.0669
10798TIP3   OH253808   6.528   2.920   4.781  0.2147  0.3479 -0.8066
10798TIP3    H153809   6.539   2.836   4.737 -1.4854  0.0627 -0.7553
10798TIP3    H253810   6.609   2.932   4.830 -0.9021 -3.2955  2.4779
10799TIP3   OH253811   2.888   2.003  13.452  0.3865  0.3200  0.0826
10799TIP3    H153812   2.838   2.078  13.418 -1.4593 -0.3833  1.1219
10799TIP3    H253813   2.872   1.933  13.389  1.0181  0.4126 -0.1839
10800TIP3   OH253814   6.455   6.628   2.611  0.4741 -0.4078  0.1750
10800TIP3    H153815   6.448   6.663   2.523  1.6667 -0.2463  0.1251
10800TIP3    H253816   6.370   6.589   2.629 -0.1825  0.6473 -0.5727
10801TIP3   OH253817   1.367   6.548   5.392 -0.0150 -0.1860 -0.3348
10801TIP3    H153818   1.281   6.535   5.352  0.2252 -2.8882 -0.1271
10801TIP3    H253819   1.427   6.496   5.339  1.2736  0.5421  0.3403
10802TIP3   OH253820   4.883   0.617  12.147 -0.0202  0.0971 -0.0632
10802TIP3    H153821   4.877   0.524  12.170  1.4092 -0.1235 -0.4582
10802TIP3    H253822   4.894   0.618  12.052 -1.7381  0.7897 -0.2904
10803TIP3   OH253823   1.838   5.191   1.112 -0.0698 -0.0426 -0.3107
10803TIP3    H153824   1.883   5.269   1.143 -0.6781  0.0386  0.4253
10803TIP3    H253825   1.747   5.203   1.142 -0.2112 -0.9310 -0.3575
10804TIP3   OH253826   0.256   5.889  14.967  0.2553  0.6187 -0.3478
10804TIP3    H153827   0.295   5.937  15.041  0.5115 -1.1674  0.7457
10804TIP3    H253828   0.179   5.846  15.004  1.7647 -2.3621 -0.3716
10805TIP3   OH253829   2.181   3.176   4.309  0.2525 -0.4281 -0.1502
10805TIP3    H153830   2.134   3.259   4.316  0.6491 -0.2956  1.0413
10805TIP3    H253831   2.252   3.194   4.247  1.0740  0.4916  1.0224
10806TIP3   OH253832   6.312   1.606  14.508 -0.3525 -0.4778 -0.4291
10806TIP3    H153833   6.250   1.559  14.564  0.3416  0.2126  0.9624
10806TIP3    H253834   6.324   1.549  14.432 -1.4677 -1.3499  0.0238
10807TIP3   OH253835   3.400   4.037  13.199 -0.0541 -0.4794 -0.3900
10807TIP3    H153836   3.391   4.111  13.259 -2.2800 -0.5704 -0.5621
10807TIP3    H253837   3.334   3.974  13.227  0.4574 -1.5538 -1.4981
10808TIP3   OH253838   1.171   1.943   1.661  0.2928 -0.0878  0.0019
10808TIP3    H153839   1.105   1.999   1.620  0.1495  0.2304  0.6521
10808TIP3    H253840   1.253   1.969   1.620 -0.0822 -1.1623 -1.5302
10809TIP3   OH253841   4.574   0.016   5.652 -0.7855  0.2006  0.1194
10809TIP3    H153842   4.614   0.021   5.738  1.0507  1.1970 -0.7376
10809TIP3    H253843   4.537   0.103   5.637 -0.8379  0.1228 -0.2154
10810TIP3   OH253844   3.501   0.156   4.848  0.2905  0.1541 -0.0541
10810TIP3    H153845   3.546   0.170   4.931  0.9502  1.6305 -0.6187
10810TIP3    H253846   3.485   0.245   4.815 -0.6886 -0.3984 -1.1144
10811TIP3   OH253847   0.616   4.880  16.949  0.3964  0.3663  0.1324
10811TIP3    H153848   0.676   4.811  16.977 -0.1616  0.4247  1.6037
10811TIP3    H253849   0.660   4.962  16.974 -0.8884  0.3811  2.7575
10812TIP3   OH253850   2.027   1.655  11.737  0.0742  0.2797 -0.6867
10812TIP3    H153851   2.048   1.600  11.662  0.0093 -0.5271 -0.1274
10812TIP3    H253852   1.950   1.615  11.776 -0.8524  1.6079 -1.0921
10813TIP3   OH253853   5.074   0.849   6.800  0.3447 -0.0528 -0.2678
10813TIP3    H153854   5.031   0.806   6.874  1.0661  0.4430  0.4480
10813TIP3    H253855   5.096   0.778   6.740  0.8927 -0.6084  0.5750
10814TIP3   OH253856   4.875   6.524   3.566  0.1893  0.0478  0.2597
10814TIP3    H153857   4.886   6.619   3.557  1.9814 -0.2288 -0.7667
10814TIP3    H253858   4.812   6.501   3.498 -1.9606  0.7256  1.8776
10815TIP3   OH253859   1.403   0.106  14.018  0.3387 -0.0558 -0.1324
10815TIP3    H153860   1.410   0.152  13.934  0.7404  0.9910  0.4499
10815TIP3    H253861   1.341   0.035  14.002 -0.1322  0.5578 -1.1390
10816TIP3   OH253862   2.899   1.792   3.075  0.0133 -0.1810 -0.4494
10816TIP3    H153863   2.817   1.744   3.067  0.6664 -1.6807  1.3392
10816TIP3    H253864   2.886   1.851   3.149 -0.2081  1.2912 -1.6092
10817TIP3   OH253865   0.696   4.882   1.279 -0.5431  0.3070  0.5260
10817TIP3    H153866   0.661   4.856   1.194  1.7828 -0.5035 -0.2502
10817TIP3    H253867   0.667   4.973   1.289 -2.2809 -0.1048 -0.2977
10818TIP3   OH253868   2.652   3.313   0.700  0.4714  0.0069  0.4629
10818TIP3    H153869   2.642   3.219   0.684  1.1591 -0.1463  0.8774
10818TIP3    H253870   2.563   3.346   0.705  0.2233 -0.5898  0.1183
10819TIP3   OH253871   3.538   4.119   4.748  0.3403 -0.7699  0.2008
10819TIP3    H153872   3.448   4.153   4.750  0.6172 -0.0138  0.0602
10819TIP3    H253873   3.531   4.038   4.697 -0.7133 -2.1384  2.3811
10820TIP3   OH253874   3.742   4.646  11.729  0.3367  0.3674 -0.1855
10820TIP3    H153875   3.713   4.732  11.760 -0.9635  0.3487 -1.2726
10820TIP3    H253876   3.753   4.657  11.634 -2.6159 -1.3201 -0.8461
10821TIP3   OH253877   0.183   0.187   3.299 -0.6906  0.4042 -0.4176
10821TIP3    H153878   0.189   0.093   3.315  1.3193  0.6995  0.8904
10821TIP3    H253879   0.109   0.216   3.352  0.3649 -0.0667  1.3996
10822TIP3   OH253880   5.876   2.031  14.490 -0.0038 -0.7317  0.4015
10822TIP3    H153881   5.790   2.074  14.490 -0.3019 -1.2925  1.8127
10822TIP3    H253882   5.900   2.028  14.397 -1.8041 -1.1434 -0.1047
10823TIP3   OH253883   3.612   0.191   5.092  0.6147  0.1670 -0.0066
10823TIP3    H153884   3.573   0.106   5.112 -1.3570  0.7023 -1.2694
10823TIP3    H253885   3.704   0.172   5.078  0.1245 -1.9052 -0.8900
10824TIP3   OH253886   2.620   1.752   1.428 -0.0065  0.0549 -0.6963
10824TIP3    H153887   2.663   1.837   1.422  1.1563 -0.5221 -0.8451
10824TIP3    H253888   2.598   1.730   1.338  1.6994 -0.7794 -0.9364
10825TIP3   OH253889   0.279   5.158   0.447 -0.5638 -0.2137  0.0141
10825TIP3    H153890   0.326   5.170   0.529 -1.8113 -0.5931  0.8240
10825TIP3    H253891   0.200   5.211   0.457  0.2964  1.5525 -1.8812
10826TIP3   OH253892   5.644   6.074  11.941 -0.2337  0.0045 -0.8224
10826TIP3    H153893   5.611   6.093  11.853 -2.3829 -0.7009 -0.2350
10826TIP3    H253894   5.578   6.016  11.980  1.3731 -0.8780  0.7651
10827TIP3   OH253895   3.782   0.775   0.887  0.1300  0.2494 -0.2645
10827TIP3    H153896   3.778   0.713   0.815  2.8833  0.0279 -0.3433
10827TIP3    H253897   3.746   0.856   0.852  0.5272 -0.1254 -1.5840
10828TIP3   OH253898   0.868   1.599  13.791  0.0548 -0.1494  0.1436
10828TIP3    H153899   0.908   1.681  13.819  2.6297 -0.9983 -0.7028
10828TIP3    H253900   0.925   1.568  13.721 -2.2674 -1.4484 -1.2855
10829TIP3   OH253901   4.986   5.004  16.011 -0.7135  0.6518  0.1006
10829TIP3    H153902   4.983   5.058  16.091  0.4741 -1.3781  1.6008
10829TIP3    H253903   5.075   5.014  15.979 -0.5216 -0.3324  0.3250
10830TIP3   OH253904   4.514   5.299  16.302  0.0142  0.2231 -0.3580
10830TIP3    H153905   4.552   5.329  16.384 -1.6317 -0.2576  0.6143
10830TIP3    H253906   4.583   5.246  16.262  0.9999  0.8414  0.4714
10831TIP3   OH253907   0.759   1.912   3.447 -0.6494  0.2870 -0.1325
10831TIP3    H153908   0.837   1.932   3.396 -0.6901  1.2566  0.1564
10831TIP3    H253909   0.750   1.817   3.441  1.0731  0.0372  0.5842
10832TIP3   OH253910   3.497   4.806  15.052  0.5382  0.0207  0.2356
10832TIP3    H153911   3.497   4.901  15.052 -0.8497  0.0495  1.3724
10832TIP3    H253912   3.413   4.781  15.091  1.3978 -1.6653  1.1381
10833TIP3   OH253913   6.001   5.042  16.781 -0.3105  0.2219  0.1728
10833TIP3    H153914   6.045   5.030  16.697 -0.0716 -1.3668  0.4874
10833TIP3    H253915   6.058   4.997  16.844 -1.5165 -0.4062  0.8487
10834TIP3   OH253916   6.365   1.362   3.872 -0.1527 -0.0068  0.9195
10834TIP3    H153917   6.447   1.325   3.906 -0.0256  1.2919  2.1285
10834TIP3    H253918   6.339   1.427   3.937 -1.6487  0.2970  0.0760
10835TIP3   OH253919   2.726   5.049  13.668  0.0865  0.6743  0.1403
10835TIP3    H153920   2.714   5.137  13.702 -1.1106  0.6583 -0.2048
10835TIP3    H253921   2.661   5.041  13.598 -1.0442 -1.0713  1.3180
10836TIP3   OH253922   1.517   1.614  13.476 -0.6341  0.3939  0.2642
10836TIP3    H153923   1.531   1.612  13.382 -1.4267  0.3784  0.1426
10836TIP3    H253924   1.454   1.685  13.490  0.5766  1.3827  0.9378
10837TIP3   OH253925   1.431   1.089   5.019  0.0844  0.9326 -0.5025
10837TIP3    H153926   1.336   1.076   5.010  0.3537 -0.2536 -2.0474
10837TIP3    H253927   1.448   1.169   4.969 -0.0307  0.8229 -0.7224
10838TIP3   OH253928   1.082   6.446  16.882  0.4210 -0.2408  0.6472
10838TIP3    H153929   1.095   6.492  16.799  0.5594  0.3027  0.9643
10838TIP3    H253930   1.030   6.369  16.859  0.2141  0.0575  0.0960
10839TIP3   OH253931   2.051   1.535  16.477  0.5531 -0.1252  0.1623
10839TIP3    H153932   2.085   1.624  16.472 -0.8893  0.4168 -0.6952
10839TIP3    H253933   2.106   1.492  16.542  1.1735  1.4324  0.7230
10840TIP3   OH253934   4.004   4.684  15.790 -0.6369  0.0309 -0.4006
10840TIP3    H153935   3.945   4.629  15.842  0.0848  0.7836  1.3017
10840TIP3    H253936   3.951   4.761  15.769 -0.9673 -0.3223 -0.8755
10841TIP3   OH253937   4.074   4.464  11.793  0.5369 -0.6887 -0.2701
10841TIP3    H153938   4.145   4.399  11.792  0.8491 -0.3606  0.3724
10841TIP3    H253939   3.994   4.412  11.782  0.7706 -1.2027  0.4425
10842TIP3   OH253940   4.323   5.006  15.139 -0.2712  0.4991  0.0428
10842TIP3    H153941   4.229   5.018  15.150 -0.1071  2.5210 -0.3461
10842TIP3    H253942   4.337   4.912  15.151 -2.4411  0.0191 -0.7632
10843TIP3   OH253943   2.337   0.323  12.478  0.1205  0.2134  0.4732
10843TIP3    H153944   2.312   0.236  12.445  1.2732  1.0358 -2.9530
10843TIP3    H253945   2.309   0.383  12.409  2.4440  2.1647  1.1064
10844TIP3   OH253946   3.602   1.181  15.564 -0.4507 -0.4077  0.0445
10844TIP3    H153947   3.661   1.179  15.640 -0.3220 -0.0276 -0.0454
10844TIP3    H253948   3.591   1.089  15.540 -1.3961 -0.6129  1.2199
10845TIP3   OH253949   5.222   2.671  16.133 -0.0125  0.0507 -0.0560
10845TIP3    H153950   5.297   2.728  16.118  0.3035 -0.0392  1.0812
10845TIP3    H253951   5.147   2.722  16.103  0.5730 -0.2973 -2.2739
10846TIP3   OH253952   4.977   1.707   4.561 -0.4245 -0.2687 -0.1744
10846TIP3    H153953   5.006   1.795   4.536 -0.5046 -0.1397  0.1856
10846TIP3    H253954   4.954   1.665   4.478 -0.3749  0.0464 -0.3488
10847TIP3   OH253955   6.365   3.039  13.317 -0.1612  0.2689 -0.5959
10847TIP3    H153956   6.311   3.006  13.246 -2.4631  1.3558  0.5409
10847TIP3    H253957   6.441   3.078  13.274 -0.3884 -1.0350 -2.2857
10848TIP3   OH253958   4.417   2.177   0.668  0.1390 -0.2225 -0.6064
10848TIP3    H153959   4.496   2.226   0.687 -0.1766  0.4389 -0.9407
10848TIP3    H253960   4.428   2.148   0.577 -0.7853  1.4786 -1.3126
10849TIP3   OH253961   6.349   6.096  11.829 -0.2435 -0.0607 -0.4218
10849TIP3    H153962   6.399   6.055  11.758 -0.6007  0.7608 -1.1654
10849TIP3    H253963   6.259   6.065  11.817 -0.2072 -0.3601  0.0244
10850TIP3   OH253964   5.682   3.979  11.251 -0.1258 -0.4056  0.4281
10850TIP3    H153965   5.697   3.901  11.305 -1.7737  0.2134  1.8683
10850TIP3    H253966   5.588   3.979  11.234  0.3174 -0.5610 -2.5198
10851TIP3   OH253967   6.666   2.898  12.840  0.1385 -0.3040  0.4244
10851TIP3    H153968   6.609   2.974  12.850  0.7840  0.1608  0.6079
10851TIP3    H253969   6.606   2.825  12.829 -0.5025  0.3573 -0.7257
10852TIP3   OH253970   3.138   6.110  10.743 -0.0207 -0.2676 -0.4671
10852TIP3    H153971   3.229   6.131  10.721  0.3681 -1.6698 -0.3374
10852TIP3    H253972   3.119   6.030  10.693  0.2400 -2.4387  2.5723
10853TIP3   OH253973   2.295   4.019  10.329 -0.3472 -0.2593  0.1021
10853TIP3    H153974   2.206   3.984  10.322  0.8753 -3.4935 -0.7486
10853TIP3    H253975   2.313   4.055  10.242 -0.9335  0.8014  0.4030
10854TIP3   OH253976   2.703   3.926   0.550  0.6296 -0.0952 -0.1578
10854TIP3    H153977   2.688   3.998   0.488  0.2660 -0.2945 -0.3049
10854TIP3    H253978   2.789   3.892   0.527  1.2786  0.9848  0.6109
10855TIP3   OH253979   5.249   0.226  13.390  0.1035 -0.0326  0.3370
10855TIP3    H153980   5.209   0.313  13.395  1.0887  0.4778 -0.4292
10855TIP3    H253981   5.188   0.175  13.338  0.3304  0.6844 -0.6586
10856TIP3   OH253982   5.502   4.168  15.642 -0.3737 -0.3789 -0.3501
10856TIP3    H153983   5.568   4.136  15.581  0.3775 -0.4017  0.4546
10856TIP3    H253984   5.419   4.151  15.599 -0.0158 -3.1791 -0.1071
10857TIP3   OH253985   4.027   4.212   0.711  0.7382 -0.6776 -0.2100
10857TIP3    H153986   4.093   4.267   0.670 -0.8348  2.5057  1.1699
10857TIP3    H253987   3.968   4.187   0.639  0.3240  1.3190 -0.6219
10858TIP3   OH253988   4.638   2.824   0.978  0.0315 -0.3989  0.0790
10858TIP3    H153989   4.733   2.818   0.980  0.0837 -1.5081 -2.1410
10858TIP3    H253990   4.609   2.759   1.043  0.8059 -1.3853 -0.5315
10859TIP3   OH253991   4.552   0.722   4.517  0.0677  0.2487 -0.5428
10859TIP3    H153992   4.599   0.660   4.574  0.0195 -0.0319 -0.8048
10859TIP3    H253993   4.613   0.795   4.506 -0.5572  1.0917  1.2246
10860TIP3   OH253994   4.134   2.913  14.739 -0.2500  0.0964 -0.1783
10860TIP3    H153995   4.076   2.948  14.671  0.0964  1.6225  0.2681
10860TIP3    H253996   4.075   2.875  14.804 -0.6874  0.5380 -0.3131
10861TIP3   OH253997   5.124   4.933   3.752 -0.2569 -0.1143 -0.0984
10861TIP3    H153998   5.137   4.922   3.847  1.1672  2.0385  0.0336
10861TIP3    H253999   5.047   4.989   3.745  0.8507  1.5062 -0.0381
10862TIP3   OH254000   3.111   4.351   4.257  0.1502  0.2519 -0.9438
10862TIP3    H154001   3.164   4.272   4.265 -1.1219 -0.4173  2.5965
10862TIP3    H254002   3.025   4.320   4.230 -0.6763  0.1266  1.5456
10863TIP3   OH254003   6.789   1.904   4.374 -0.6294  0.6502 -0.3335
10863TIP3    H154004   6.838   1.922   4.454 -0.1803 -0.7752 -0.2617
10863TIP3    H254005   6.724   1.838   4.400 -0.7235  0.4484 -1.0480
10864TIP3   OH254006   6.455   4.816  13.693 -0.8908  0.4016 -0.2829
10864TIP3    H154007   6.452   4.729  13.655 -0.6963  0.9396 -1.5846
10864TIP3    H254008   6.463   4.875  13.618  0.5405  1.4508  0.6248
10865TIP3   OH254009   2.895   2.900  12.409  0.1584 -0.0825  0.4356
10865TIP3    H154010   2.919   2.850  12.486  1.2242  1.1483  0.9345
10865TIP3    H254011   2.810   2.864  12.382 -0.4984 -0.1810  2.5015
10866TIP3   OH254012   0.208   4.216  11.738  0.2823  0.5102  0.1050
10866TIP3    H154013   0.292   4.170  11.742 -0.0569 -0.0630  0.9643
10866TIP3    H254014   0.232   4.309  11.738  0.9077  0.3634  1.1501
10867TIP3   OH254015   6.112   1.034   5.135 -0.2044 -0.1743 -0.5226
10867TIP3    H154016   6.070   1.038   5.048  0.6401 -0.0176 -0.9289
10867TIP3    H254017   6.194   1.081   5.124 -0.6359  0.9372  0.6911
10868TIP3   OH254018   0.724   5.976   1.180  0.6108  0.0004  0.3262
10868TIP3    H154019   0.637   5.958   1.144  0.9820 -0.2577 -0.4596
10868TIP3    H254020   0.741   5.903   1.240 -0.3771  0.8852  1.7582
10869TIP3   OH254021   1.336   0.293   0.652  0.6432  0.1703  0.0468
10869TIP3    H154022   1.306   0.215   0.698  1.2722  0.9883  1.9708
10869TIP3    H254023   1.256   0.334   0.618  0.1103 -0.2897  0.7283
10870TIP3   OH254024   5.579   2.308  15.004 -0.6494 -0.1504  0.1284
10870TIP3    H154025   5.623   2.382  15.046  1.2009 -1.1778  0.0964
10870TIP3    H254026   5.499   2.297  15.055 -1.9563  2.9901 -0.9949
10871TIP3   OH254027   1.287   3.442   1.286  0.4167 -0.1000  0.0797
10871TIP3    H154028   1.291   3.477   1.197 -1.6805 -4.3056 -1.9700
10871TIP3    H254029   1.343   3.364   1.284 -1.5100 -1.6380  1.5862
10872TIP3   OH254030   2.868   3.844  11.288  0.3878 -0.8940 -0.0287
10872TIP3    H154031   2.773   3.855  11.281  0.4124 -0.9070 -0.4035
10872TIP3    H254032   2.891   3.887  11.370  0.1553 -0.2788 -0.2824
10873TIP3   OH254033   5.179   1.791   6.072  0.1118  0.1836  0.3128
10873TIP3    H154034   5.262   1.810   6.027 -0.1750  0.7157  0.0003
10873TIP3    H254035   5.189   1.701   6.104  0.9281  0.3506  0.5445
10874TIP3   OH254036   5.524   0.060   3.902  0.1202  0.4493  0.1157
10874TIP3    H154037   5.479   0.141   3.928 -1.4890  0.0016 -1.1450
10874TIP3    H254038   5.521   0.060   3.807  1.1823 -0.5301  0.0609
10875TIP3   OH254039   1.529   3.528  11.447 -0.1062 -0.7669  0.3295
10875TIP3    H154040   1.542   3.578  11.367  0.8586 -2.3670 -0.5634
10875TIP3    H254041   1.469   3.581  11.499 -0.1061  0.6952 -1.0859
10876TIP3   OH254042   5.047   4.959  14.150 -0.3177 -0.1065  0.4011
10876TIP3    H154043   5.095   4.987  14.228 -0.5465  1.4622 -0.0001
10876TIP3    H254044   5.021   5.040  14.107 -0.2290 -0.9404 -1.3037
10877TIP3   OH254045   0.548   3.870  13.997 -0.0409  0.7045 -0.5608
10877TIP3    H154046   0.587   3.793  13.955  1.1630  1.5753 -1.1034
10877TIP3    H254047   0.613   3.939  13.986 -0.4197  1.4111  1.2974
10878TIP3   OH254048   3.344   6.174  14.755  0.0215  0.5040  0.3137
10878TIP3    H154049   3.263   6.130  14.782  1.0147 -1.4862  0.2569
10878TIP3    H254050   3.365   6.135  14.670  1.6705  0.0137  0.8943
10879TIP3   OH254051   1.408   2.306   1.022  0.0294 -0.1429 -0.7210
10879TIP3    H154052   1.403   2.226   0.970  0.7445 -0.6721 -0.0011
10879TIP3    H254053   1.473   2.360   0.978 -1.6198  0.7760 -2.1433
10880TIP3   OH254054   6.613   0.878   2.324  0.0069 -0.2493  0.2525
10880TIP3    H154055   6.523   0.904   2.305  0.0959 -0.0883  0.0460
10880TIP3    H254056   6.655   0.873   2.238 -0.1591 -1.6456  0.2238
10881TIP3   OH254057   0.955   0.216   4.152 -0.0634  0.1045 -0.2058
10881TIP3    H154058   0.869   0.183   4.178  0.1464 -0.3929 -0.1412
10881TIP3    H254059   1.017   0.150   4.183  0.2754  0.0131 -1.0435
10882TIP3   OH254060   5.583   1.569   6.952  0.6499 -0.1131 -0.0141
10882TIP3    H154061   5.640   1.581   6.876  1.6201  1.3905  0.8894
10882TIP3    H254062   5.507   1.624   6.934 -1.4450 -3.3665 -1.9682
10883TIP3   OH254063   5.107   4.597   1.656 -0.0246  0.0936  0.1972
10883TIP3    H154064   5.142   4.531   1.716  0.0955 -0.8928 -0.9349
10883TIP3    H254065   5.028   4.630   1.701 -1.4508 -2.5208 -0.2103
10884TIP3   OH254066   2.249   6.030  15.437  0.9719  0.4021  1.1464
10884TIP3    H154067   2.304   6.099  15.473 -0.7388  2.1314  0.6039
10884TIP3    H254068   2.161   6.068  15.434  0.2464 -1.2451 -0.6480
10885TIP3   OH254069   4.153   0.546   0.779  0.3136 -0.4997 -0.0264
10885TIP3    H154070   4.084   0.584   0.724  0.4815 -0.6388 -0.3342
10885TIP3    H254071   4.107   0.517   0.857 -0.0423 -0.9152 -0.3804
10886TIP3   OH254072   2.501   3.293  16.582 -0.8935 -0.2831  0.4718
10886TIP3    H154073   2.579   3.250  16.617 -0.0340  0.1770 -0.8011
10886TIP3    H254074   2.428   3.241  16.614  0.0109 -1.4921  0.6306
10887TIP3   OH254075   0.613   0.088  15.388  0.2012  0.5706  0.5096
10887TIP3    H154076   0.556   0.123  15.456 -0.4188 -0.0583  0.3186
10887TIP3    H254077   0.668   0.163  15.362 -1.4920  1.5842 -0.3284
10888TIP3   OH254078   2.060   2.814   0.239 -0.1678  0.1726 -0.8959
10888TIP3    H154079   2.016   2.897   0.222 -0.2579  0.4261  0.4797
10888TIP3    H254080   2.136   2.815   0.180  1.1719  2.3371  0.6909
10889TIP3   OH254081   2.138   2.265  12.756  0.0494  0.2938 -0.4555
10889TIP3    H154082   2.175   2.354  12.758  0.6296  0.0896 -1.3039
10889TIP3    H254083   2.183   2.223  12.683 -1.1778 -0.2827 -0.8990
10890TIP3   OH254084   4.038   6.349  15.884  0.0687 -0.2570 -0.0803
10890TIP3    H154085   4.053   6.305  15.968  1.6674  0.4476  0.0449
10890TIP3    H254086   4.116   6.329  15.832 -0.2942  0.4135 -0.9066
10891TIP3   OH254087   5.321   1.563  13.501  0.5528  0.2418  0.2119
10891TIP3    H154088   5.306   1.472  13.524 -2.6422  0.3223 -1.0465
10891TIP3    H254089   5.403   1.586  13.544  1.5225 -3.2227  0.4605
10892TIP3   OH254090   6.600   4.082   2.584  0.3282  0.4355  0.2432
10892TIP3    H154091   6.666   4.139   2.625 -0.4241  1.3443  0.2308
10892TIP3    H254092   6.517   4.125   2.604 -0.1153  0.4939 -1.6064
10893TIP3   OH254093   4.054   5.633   3.738 -0.3164 -0.0043 -0.1569
10893TIP3    H154094   4.007   5.578   3.676  2.1196 -1.6899 -0.6076
10893TIP3    H254095   4.075   5.575   3.811  0.4403  0.8870  0.3629
10894TIP3   OH254096   0.722   2.328  17.212 -0.0815 -0.3947 -0.3464
10894TIP3    H154097   0.710   2.241  17.174 -0.1952 -0.2730 -0.5916
10894TIP3    H254098   0.816   2.335  17.228 -0.3322 -1.5643  2.0615
10895TIP3   OH254099   4.084   4.676   6.374  0.8982 -0.6180 -0.9147
10895TIP3    H154100   4.139   4.598   6.366 -0.2561 -1.3560 -1.9029
10895TIP3    H254101   4.002   4.644   6.410  1.0810  0.4904  0.6136
10896TIP3   OH254102   1.491   4.213  10.971  0.9435 -0.4239 -0.1597
10896TIP3    H154103   1.563   4.259  10.929  1.5801 -2.3725 -1.2840
10896TIP3    H254104   1.447   4.166  10.901 -0.3769 -0.6719  0.7796
10897TIP3   OH254105   5.193   5.007  14.401 -0.1445 -0.6894 -0.5759
10897TIP3    H154106   5.234   5.087  14.367 -1.1295 -0.6419 -1.7263
10897TIP3    H254107   5.266   4.951  14.426  0.5680  0.5748  0.2805
10898TIP3   OH254108   0.872   6.649   5.292  0.1996 -0.4292 -0.0784
10898TIP3    H154109   0.803   6.715   5.284 -1.7073 -1.9180  2.5426
10898TIP3    H254110   0.855   6.606   5.376  1.8094 -3.7221 -1.2371
10899TIP3   OH254111   4.059   3.675   4.095  0.0365 -0.2348  0.0940
10899TIP3    H154112   4.005   3.665   4.173  0.9821  0.6770  0.8768
10899TIP3    H254113   4.074   3.585   4.065 -0.7428 -0.5672  0.6664
10900TIP3   OH254114   4.149   0.354   0.462 -0.8658  0.7875 -0.4976
10900TIP3    H154115   4.165   0.292   0.391 -0.5133  0.4046 -0.0857
10900TIP3    H254116   4.231   0.402   0.472 -1.3986  1.9468 -1.3992
10901TIP3   OH254117   0.839   3.404  12.107 -0.8378  0.6845 -0.2525
10901TIP3    H154118   0.850   3.309  12.107  1.5730  0.9095 -0.7066
10901TIP3    H254119   0.776   3.420  12.037 -1.6460 -0.5824  0.1392
10902TIP3   OH254120   5.366   1.758   6.875 -0.2115 -0.3934  0.2573
10902TIP3    H154121   5.307   1.834   6.881  2.4522  1.9162 -0.3053
10902TIP3    H254122   5.409   1.769   6.790  0.2706 -2.5709  0.1784
10903TIP3   OH254123   5.411   2.060  14.721 -0.6056  0.3041 -0.3395
10903TIP3    H154124   5.365   2.060  14.805 -0.8317 -2.0837 -0.3942
10903TIP3    H254125   5.345   2.089  14.658 -1.3880 -0.8630 -0.0871
10904TIP3   OH254126   3.306   2.964  15.538 -0.4310 -1.0937 -0.0134
10904TIP3    H154127   3.323   2.961  15.444  0.2498  0.3719  0.0377
10904TIP3    H254128   3.391   2.949  15.578 -0.1276  1.1502  0.3036
10905TIP3   OH254129   1.045   4.998  15.449  0.0947 -0.5518 -0.0739
10905TIP3    H154130   1.010   4.953  15.372 -0.7930  0.5042 -0.3080
10905TIP3    H254131   1.062   4.928  15.512 -1.6042 -1.2068 -0.2891
10906TIP3   OH254132   1.042   1.838   5.914  0.1695  0.3529  0.1144
10906TIP3    H154133   0.982   1.836   5.989 -0.3713 -0.2812 -0.3279
10906TIP3    H254134   1.076   1.927   5.914 -0.0476  0.4521  0.9385
10907TIP3   OH254135   0.922   4.311   3.135  0.7375  0.5872 -0.3389
10907TIP3    H154136   0.870   4.348   3.064  2.0042  0.7794 -1.1972
10907TIP3    H254137   0.998   4.369   3.143  1.8546 -0.7983 -0.5062
10908TIP3   OH254138   2.202   5.777   3.462  0.9657 -0.0990  0.0471
10908TIP3    H154139   2.167   5.694   3.432 -0.5259  0.2971  0.5986
10908TIP3    H254140   2.235   5.820   3.383  0.1947 -0.4981 -0.4995
10909TIP3   OH254141   6.298   5.507   5.637 -0.6424 -0.1020 -0.6800
10909TIP3    H154142   6.345   5.424   5.639  2.3606  1.4685 -0.3944
10909TIP3    H254143   6.269   5.521   5.728 -0.7836 -0.6515 -0.6426
10910TIP3   OH254144   5.233   5.002  15.907 -0.2058 -0.1310 -0.6666
10910TIP3    H154145   5.322   4.995  15.873 -1.0401 -1.1365 -2.7969
10910TIP3    H254146   5.216   4.917  15.946 -0.3564 -0.0431 -0.5402
10911TIP3   OH254147   5.515   2.892   5.395 -0.4711  0.5943  0.0009
10911TIP3    H154148   5.497   2.968   5.450  0.5941  0.3012  0.8066
10911TIP3    H254149   5.555   2.828   5.455 -0.8334 -0.3892 -0.7683
10912TIP3   OH254150   1.691   0.323   6.028  0.4567 -0.1919  0.0092
10912TIP3    H154151   1.670   0.403   6.077  0.6019  0.2379 -0.6272
10912TIP3    H254152   1.652   0.253   6.081  1.0459  0.2088  1.0073
10913TIP3   OH254153   0.317   3.992  14.661  0.4167  0.0683  0.0139
10913TIP3    H154154   0.330   3.897  14.663 -1.6068 -0.3384 -1.7830
10913TIP3    H254155   0.229   4.004  14.697  0.7700  1.3110  0.4841
10914TIP3   OH254156   5.771   0.099   5.282  0.3189  0.4211 -0.2355
10914TIP3    H154157   5.847   0.046   5.259 -0.9063 -1.3197 -0.4454
10914TIP3    H254158   5.775   0.106   5.377  0.8639  0.5833 -0.2627
10915TIP3   OH254159   4.191   2.981   3.894 -0.5404 -0.2007  0.2479
10915TIP3    H154160   4.119   3.041   3.914  0.3779  0.6103  1.2950
10915TIP3    H254161   4.176   2.905   3.950 -2.1003 -1.3190 -1.6032
10916TIP3   OH254162   2.226   1.735   3.697 -0.3819  0.4549  0.4402
10916TIP3    H154163   2.171   1.714   3.621  0.8014  0.7778 -0.5432
10916TIP3    H254164   2.240   1.830   3.690  1.2493  0.2148 -0.0350
10917TIP3   OH254165   3.315   1.053   0.729  0.1275 -0.0274  0.3078
10917TIP3    H154166   3.379   1.062   0.658 -0.9901 -0.3733 -0.7946
10917TIP3    H254167   3.305   0.959   0.741 -1.4862 -0.0527 -0.8331
10918TIP3   OH254168   0.505   3.617   3.850 -0.0726  0.3071  0.2915
10918TIP3    H154169   0.456   3.538   3.825  1.1371 -0.4220  0.1497
10918TIP3    H254170   0.450   3.690   3.820 -1.5802 -0.4425  1.0964
10919TIP3   OH254171   3.230   2.179  16.070  1.1444  0.1651  0.6312
10919TIP3    H154172   3.175   2.116  16.117  1.4030 -0.2177  0.4295
10919TIP3    H254173   3.174   2.211  15.999  1.3964 -0.7479 -0.0012
10920TIP3   OH254174   5.485   1.750  15.417 -0.1038 -0.0379  0.9648
10920TIP3    H154175   5.577   1.763  15.397 -0.0743  0.3264  1.3212
10920TIP3    H254176   5.479   1.763  15.512 -0.7711  1.4082  0.7447
10921TIP3   OH254177   1.701   0.611   4.219 -0.3123  0.5087 -0.0865
10921TIP3    H154178   1.659   0.562   4.290  0.1649 -3.9240 -2.4975
10921TIP3    H254179   1.632   0.621   4.153  0.4128  0.1685 -0.9163
10922TIP3   OH254180   5.705   5.483  11.964  0.2399  0.2998 -0.3951
10922TIP3    H154181   5.699   5.578  11.968 -0.1911  0.2533  0.2570
10922TIP3    H254182   5.663   5.458  11.882  0.1844  0.6566 -0.4735
10923TIP3   OH254183   0.528   2.883   6.112  0.0939  0.4605 -0.3490
10923TIP3    H154184   0.493   2.794   6.113 -0.1209  0.5354 -0.8512
10923TIP3    H254185   0.622   2.871   6.125  0.4211 -0.0355 -2.7115
10924TIP3   OH254186   2.997   5.394  12.202 -0.5279  0.1959  0.3843
10924TIP3    H154187   3.072   5.451  12.188  0.0209 -0.4639  0.5723
10924TIP3    H254188   2.924   5.439  12.159  0.3086  0.0649 -1.2636
10925TIP3   OH254189   4.667   4.390  14.548 -0.3529  0.1598 -0.0024
10925TIP3    H154190   4.709   4.392  14.634  0.1545  0.7396 -0.2569
10925TIP3    H254191   4.658   4.482  14.524 -0.8890  0.0105 -0.3794
10926TIP3   OH254192   1.935   3.058   0.183 -0.6332 -0.0595  0.1240
10926TIP3    H154193   1.841   3.051   0.193 -0.6798 -0.1844 -0.3684
10926TIP3    H254194   1.948   3.139   0.133 -0.4287  0.3915  0.8885
10927TIP3   OH254195   6.541   4.821  11.438 -0.1231  0.0460  0.4256
10927TIP3    H154196   6.603   4.756  11.473 -0.1238  0.2423  0.7943
10927TIP3    H254197   6.572   4.905  11.471 -1.2026  0.0385  1.5313
10928TIP3   OH254198   2.454   1.021  11.012  0.0680  0.1342  0.1030
10928TIP3    H154199   2.526   1.071  11.050  2.1528 -1.2181 -1.7960
10928TIP3    H254200   2.405   0.989  11.087  1.8741  0.5127  1.5190
10929TIP3   OH254201   4.997   6.682   5.545 -0.1487 -0.3203  1.1168
10929TIP3    H154202   4.920   6.636   5.577  0.1982 -1.1105  0.8432
10929TIP3    H254203   5.048   6.615   5.500  0.7834  0.1567  1.4325
10930TIP3   OH254204   1.755   1.464  12.412 -0.0784  0.0814 -0.0850
10930TIP3    H154205   1.680   1.521  12.428 -0.0447  0.0173  0.3142
10930TIP3    H254206   1.828   1.508  12.456  0.4924  0.9973 -1.8356
10931TIP3   OH254207   4.420   5.216   6.445  0.5190 -0.2724 -0.6754
10931TIP3    H154208   4.451   5.299   6.407  1.5134 -0.6947 -0.8125
10931TIP3    H254209   4.385   5.241   6.530 -1.1452  0.5962 -1.5634
10932TIP3   OH254210   3.287   1.581  16.475 -0.2383  0.0040  0.0501
10932TIP3    H154211   3.381   1.587  16.460 -0.5629 -0.2616 -2.5772
10932TIP3    H254212   3.275   1.499  16.524  0.9020  0.2733  0.8154
10933TIP3   OH254213   3.063   1.982  16.959  0.7459  0.2225  0.0670
10933TIP3    H154214   3.004   1.938  16.899 -1.0680 -0.2038  2.0457
10933TIP3    H254215   3.101   1.912  17.012 -0.6038  0.7913  1.8847
10934TIP3   OH254216   0.295   5.409  12.634  0.1766 -0.2154  0.0295
10934TIP3    H154217   0.337   5.331  12.670  0.4778  0.2617  0.7328
10934TIP3    H254218   0.223   5.427  12.694 -0.3833 -0.4086 -0.5764
10935TIP3   OH254219   0.242   4.583   2.243  0.2772  0.1274  0.0738
10935TIP3    H154220   0.239   4.678   2.246 -1.5400  0.1719 -1.1720
10935TIP3    H254221   0.150   4.556   2.254  0.6684 -1.4414 -0.2463
10936TIP3   OH254222   3.698   5.408   2.597 -0.3176 -0.1150 -0.3806
10936TIP3    H154223   3.663   5.321   2.578 -1.0189  0.4799 -2.0229
10936TIP3    H254224   3.761   5.393   2.667 -1.8953 -1.6298  0.8139
10937TIP3   OH254225   2.949   0.369   5.405  0.0565 -0.0253  0.0954
10937TIP3    H154226   2.996   0.313   5.466 -1.0570 -1.4992 -0.3316
10937TIP3    H254227   2.956   0.456   5.442  2.8148 -0.1928  0.2177
10938TIP3   OH254228   2.254   1.040   5.072  0.3340  0.4538 -0.0610
10938TIP3    H154229   2.213   1.024   4.987 -2.0023  0.5419  0.9781
10938TIP3    H254230   2.348   1.036   5.054 -0.0335 -2.3324 -2.1317
10939TIP3   OH254231   2.181   1.489  11.145  0.3772 -0.0227 -0.1812
10939TIP3    H154232   2.230   1.520  11.222 -0.3141  0.5865  0.0172
10939TIP3    H254233   2.218   1.403  11.127 -0.6777 -1.0128  1.9891
10940TIP3   OH254234   4.525   3.886   5.736  0.4111 -0.8969  0.4627
10940TIP3    H154235   4.435   3.859   5.755 -0.0050 -1.5761 -2.1515
10940TIP3    H254236   4.543   3.956   5.799 -3.0893  1.4592 -0.8493
10941TIP3   OH254237   0.713   2.678   3.254 -0.3337  0.2705 -0.1831
10941TIP3    H154238   0.664   2.602   3.284 -0.7902  1.7999  3.5373
10941TIP3    H254239   0.801   2.666   3.291  0.3411  0.3973 -1.6917
10942TIP3   OH254240   5.220   1.200   0.649 -0.6482 -0.6868  0.4142
10942TIP3    H154241   5.220   1.109   0.680  0.3717 -0.8791 -0.1342
10942TIP3    H254242   5.266   1.249   0.717 -1.8578 -0.4306  1.0801
10943TIP3   OH254243   2.810   1.320   0.269  0.5163  0.2409  0.3738
10943TIP3    H154244   2.797   1.346   0.360  0.6381 -0.1356  0.5015
10943TIP3    H254245   2.871   1.385   0.234 -0.7007  1.2905  0.1148
10944TIP3   OH254246   6.197   3.912   5.705  0.6449  0.1701  0.0419
10944TIP3    H154247   6.143   3.941   5.778  1.8225  0.7240  0.7168
10944TIP3    H254248   6.184   3.978   5.637 -0.2895 -0.2357 -0.1954
10945TIP3   OH254249   1.135   3.254   4.779 -0.3346  0.0374  0.0947
10945TIP3    H154250   1.121   3.214   4.865 -3.9565  0.3970 -0.1810
10945TIP3    H254251   1.106   3.344   4.789 -1.3982 -0.0604 -1.5959
10946TIP3   OH254252   3.742   6.567  16.520  0.2238 -0.1967  0.0765
10946TIP3    H154253   3.786   6.617  16.589 -1.8182 -1.3690  2.4302
10946TIP3    H254254   3.678   6.627  16.484 -1.4140 -0.6093  2.0796
10947TIP3   OH254255   1.916   4.847   3.042 -0.6965  0.2840  0.4100
10947TIP3    H154256   1.901   4.820   3.133 -1.3367 -1.8589 -0.2696
10947TIP3    H254257   1.913   4.765   2.992 -1.9430  1.5711 -1.7583
10948TIP3   OH254258   0.599   5.235  13.104  0.3269 -0.6533  0.1389
10948TIP3    H154259   0.617   5.287  13.026 -0.8026 -0.4103  0.0212
10948TIP3    H254260   0.657   5.160  13.097  0.5172 -0.4322 -0.7341
10949TIP3   OH254261   6.756   3.343   5.396  0.2410 -0.5388 -0.6537
10949TIP3    H154262   6.700   3.379   5.327  0.7779 -1.1432 -1.4182
10949TIP3    H254263   6.701   3.279   5.439 -0.0315 -0.3082 -0.6534
10950TIP3   OH254264   5.037   6.449  13.989  0.0194  0.5614  0.1624
10950TIP3    H154265   5.075   6.537  13.981  0.5860  0.2146 -1.3550
10950TIP3    H254266   5.096   6.403  14.048  0.4597  0.8330 -0.0577
10951TIP3   OH254267   4.520   3.892  16.027 -0.4727  0.5001  0.0847
10951TIP3    H154268   4.500   3.947  15.951  1.1431  1.6457  0.4297
10951TIP3    H254269   4.490   3.943  16.102  0.9479  0.9311  0.4037
10952TIP3   OH254270   3.122   5.934   4.761 -0.2038  0.6700 -0.2363
10952TIP3    H154271   3.206   5.938   4.807 -0.2940  0.7077 -0.0740
10952TIP3    H254272   3.098   6.025   4.748 -0.0683  0.6586 -0.5612
10953TIP3   OH254273   6.723   1.952  13.809  0.0760  0.1548  0.9220
10953TIP3    H154274   6.741   2.044  13.789 -0.4534  0.1343  0.3154
10953TIP3    H254275   6.808   1.909  13.807  0.3606  0.6778  1.4708
10954TIP3   OH254276   1.890   3.393  11.829 -0.4852  0.2432 -0.5279
10954TIP3    H154277   1.885   3.301  11.856 -1.2437  0.3481 -0.2784
10954TIP3    H254278   1.881   3.391  11.734  0.7257 -0.0260 -0.6393
10955TIP3   OH254279   0.113   6.479  14.322 -0.5605 -0.0965 -0.1845
10955TIP3    H154280   0.082   6.433  14.244 -3.3177  0.0771  0.7015
10955TIP3    H254281   0.132   6.410  14.386  0.1009 -0.1598 -0.4365
10956TIP3   OH254282   3.561   0.923   5.284 -0.3566 -0.0169  0.1651
10956TIP3    H154283   3.631   0.980   5.250 -0.8741  0.5915  0.0889
10956TIP3    H254284   3.482   0.951   5.236 -0.7748 -0.2713  0.6915
10957TIP3   OH254285   3.192   4.088  15.673  0.5751  0.0217  0.1973
10957TIP3    H154286   3.152   4.058  15.591  0.7907  0.9551 -0.2679
10957TIP3    H254287   3.123   4.141  15.714  0.7914  0.3507  0.1426
10958TIP3   OH254288   5.021   1.059  11.130 -0.0124  0.2124  0.0296
10958TIP3    H154289   4.973   1.029  11.208  0.8591  0.8101  0.8045
10958TIP3    H254290   5.073   1.133  11.160  0.4806  0.3411 -1.0911
10959TIP3   OH254291   0.314   6.354  11.458  0.0501  0.2397  0.1166
10959TIP3    H154292   0.276   6.432  11.417  1.2759  1.2584  0.8368
10959TIP3    H254293   0.281   6.356  11.548 -0.8364 -0.7298 -0.1775
10960TIP3   OH254294   5.800   4.578   2.168 -0.2681 -0.1126 -0.4947
10960TIP3    H154295   5.775   4.645   2.231  0.2630 -0.9715  0.6900
10960TIP3    H254296   5.824   4.626   2.089 -0.5971  1.0265  0.0769
10961TIP3   OH254297   6.012   0.031   2.317 -0.3507 -0.2860  0.5314
10961TIP3    H154298   6.002  -0.063   2.308 -0.8766 -0.4524  2.4577
10961TIP3    H254299   5.923   0.064   2.329 -0.2464  0.5768 -0.8370
10962TIP3   OH254300   6.685   3.160   0.406 -0.2416 -0.3107 -0.2533
10962TIP3    H154301   6.635   3.228   0.361 -0.2247  0.2656  0.5919
10962TIP3    H254302   6.634   3.080   0.392 -0.9958  0.1273 -0.0660
10963TIP3   OH254303   4.691   2.937   4.430  0.1024  0.1349  0.0546
10963TIP3    H154304   4.726   3.022   4.402 -1.7065  0.2299 -2.2581
10963TIP3    H254305   4.744   2.873   4.383 -1.9843  0.2570 -2.7572
10964TIP3   OH254306   2.526   3.330   5.329 -0.3542 -0.6233 -0.6944
10964TIP3    H154307   2.535   3.388   5.254  1.2142 -1.2346 -1.0097
10964TIP3    H254308   2.611   3.286   5.337 -0.4797 -0.6131  1.4113
10965TIP3   OH254309   2.720   5.888   5.535 -0.6597  0.5181 -0.0645
10965TIP3    H154310   2.634   5.877   5.574 -1.3000  1.9645 -0.9996
10965TIP3    H254311   2.709   5.861   5.444  0.6949 -2.3608  0.5141
10966TIP3   OH254312   1.139   5.597   3.859 -0.0567 -0.0276  0.6985
10966TIP3    H154313   1.193   5.518   3.871  0.6675  0.2327 -0.6622
10966TIP3    H254314   1.202   5.665   3.834 -1.1215 -0.0322 -2.3278
10967TIP3   OH254315   4.477   3.967   2.341 -0.0595  0.2114  0.1179
10967TIP3    H154316   4.427   3.885   2.340  0.3097 -0.0177 -0.3346
10967TIP3    H254317   4.501   3.980   2.433 -2.2462  1.1444  0.6050
10968TIP3   OH254318   1.304   2.207  15.635  0.0025 -0.1077 -0.8303
10968TIP3    H154319   1.323   2.227  15.543 -1.0093  0.2479 -0.9793
10968TIP3    H254320   1.248   2.129  15.632  0.0172 -0.1319 -0.5163
10969TIP3   OH254321   5.178   5.159  10.843  0.3458  0.0911  1.0039
10969TIP3    H154322   5.178   5.064  10.852 -2.1465  0.0030  0.7018
10969TIP3    H254323   5.255   5.178  10.789 -0.2455 -1.9780 -0.7030
10970TIP3   OH254324   4.835   0.673  12.780  0.1039 -0.0313 -0.0843
10970TIP3    H154325   4.749   0.682  12.820 -0.0706  0.3148 -0.5452
10970TIP3    H254326   4.826   0.710  12.693  0.6014 -0.4042 -0.2996
10971TIP3   OH254327   4.983   0.279   5.968  0.2271  0.5436  0.1016
10971TIP3    H154328   4.968   0.275   5.874 -0.1733 -0.4756  0.2007
10971TIP3    H254329   4.902   0.313   6.004 -0.0018 -0.0650  0.1692
10972TIP3   OH254330   0.963   2.136   1.077  0.5109  0.4920 -0.3377
10972TIP3    H154331   0.926   2.057   1.117  0.2591  0.3789 -0.7790
10972TIP3    H254332   0.978   2.195   1.150 -0.1332  0.3665 -0.0912
10973TIP3   OH254333   0.599   5.313  16.107  0.3234 -0.1461  0.3266
10973TIP3    H154334   0.563   5.284  16.023  1.1208 -0.3843  0.0648
10973TIP3    H254335   0.565   5.402  16.118  1.7771  0.6312 -1.1878
10974TIP3   OH254336   3.977   5.538   2.279 -0.3802 -0.2692  0.0289
10974TIP3    H154337   3.990   5.475   2.208  1.8634  0.8178 -0.6131
10974TIP3    H254338   3.988   5.487   2.359 -0.5020 -1.0505 -0.4483
10975TIP3   OH254339   0.844   5.159   5.854 -0.7130 -0.0801 -0.6373
10975TIP3    H154340   0.843   5.211   5.774 -1.2224 -2.0130 -1.9654
10975TIP3    H254341   0.869   5.220   5.922 -3.0446  2.3365 -1.7799
10976TIP3   OH254342   0.503   3.184   2.472  0.1348  0.6256 -0.1205
10976TIP3    H154343   0.518   3.090   2.466 -0.6398  0.5843 -2.0996
10976TIP3    H254344   0.407   3.194   2.475  0.2149  1.3190  1.6708
10977TIP3   OH254345   1.626   4.685   1.350 -1.0579 -0.1139 -0.3182
10977TIP3    H154346   1.638   4.590   1.356  1.8425  0.2162  0.8973
10977TIP3    H254347   1.695   4.721   1.405 -1.4472  2.7567 -1.5414
10978TIP3   OH254348   2.640   2.199   1.368  0.1713 -0.1818 -0.2525
10978TIP3    H154349   2.558   2.173   1.327  0.2038 -0.4338 -0.1560
10978TIP3    H254350   2.639   2.295   1.364  0.0847 -0.2001 -0.6580
10979TIP3   OH254351   4.355   5.671   0.482  0.0483  0.1177 -0.2338
10979TIP3    H154352   4.394   5.725   0.550 -1.1211  0.9577 -0.2182
10979TIP3    H254353   4.352   5.728   0.405 -1.3201  0.1440 -0.1822
10980TIP3   OH254354   3.027   1.737   0.092  0.0879  0.3765 -0.2295
10980TIP3    H154355   3.087   1.722   0.018  0.3227 -0.2946  0.0946
10980TIP3    H254356   2.989   1.823   0.074  0.3860  0.3622 -0.9679
10981TIP3   OH254357   4.038   4.626  12.428 -0.1782 -0.3246 -0.2928
10981TIP3    H154358   4.047   4.548  12.372 -0.2255 -0.1822 -0.5004
10981TIP3    H254359   4.098   4.610  12.501 -1.2978 -1.2504  0.4712
10982TIP3   OH254360   2.877   4.786  11.683  0.0053 -0.1570 -0.3327
10982TIP3    H154361   2.803   4.845  11.666  0.4172  0.7953  0.9698
10982TIP3    H254362   2.928   4.787  11.602 -0.5361  0.4840 -0.6754
10983TIP3   OH254363   2.115   1.668   4.401  0.1824 -0.2603 -0.4075
10983TIP3    H154364   2.152   1.650   4.315  2.2931 -2.7522  0.8910
10983TIP3    H254365   2.021   1.659   4.390  0.4329 -0.7349 -2.3812
10984TIP3   OH254366   6.268   2.660  12.373 -0.7576  0.1126 -0.5148
10984TIP3    H154367   6.212   2.736  12.354 -3.1483 -1.2220  0.6642
10984TIP3    H254368   6.335   2.694  12.432 -3.1153  0.9829  1.8928
10985TIP3   OH254369   2.945   4.486   1.168  0.4037 -0.0006  0.5221
10985TIP3    H154370   2.974   4.403   1.206 -1.8189 -1.3902 -0.6011
10985TIP3    H254371   2.998   4.497   1.090  0.4645 -0.5522  0.4864
10986TIP3   OH254372   6.008   1.054   3.393  1.2054 -0.1964  0.3313
10986TIP3    H154373   5.976   0.966   3.374 -0.3176  0.5967 -1.0033
10986TIP3    H254374   6.092   1.059   3.346  1.2387 -0.8722  0.3086
10987TIP3   OH254375   1.448   2.089   6.423 -0.2362  0.1618 -0.0926
10987TIP3    H154376   1.437   2.184   6.428  0.7233  0.3076 -0.4775
10987TIP3    H254377   1.532   2.072   6.465  0.5248 -0.2796 -1.6791
10988TIP3   OH254378   6.459   1.281  12.393  0.2918 -0.3038 -0.5887
10988TIP3    H154379   6.464   1.215  12.462  0.0881 -1.3141 -1.5352
10988TIP3    H254380   6.547   1.284  12.355  0.2410 -0.1880 -0.6979
10989TIP3   OH254381   3.723   3.920   1.301 -0.2172  0.3589  0.7461
10989TIP3    H154382   3.707   3.910   1.207 -2.8804  0.8360  1.0776
10989TIP3    H254383   3.723   3.830   1.335 -3.2098  0.2638  0.7669
10990TIP3   OH254384   6.224   5.642   5.291  0.1761 -0.3474  0.2948
10990TIP3    H154385   6.290   5.589   5.336 -1.9018 -2.2112  1.3184
10990TIP3    H254386   6.238   5.731   5.324  1.1749 -0.9785  1.6708
10991TIP3   OH254387   2.901   6.153  15.458 -0.4976 -0.2106  0.0309
10991TIP3    H154388   2.943   6.069  15.441 -1.0823 -0.8136  1.4208
10991TIP3    H254389   2.832   6.159  15.393  0.9490  0.2682 -1.5371
10992TIP3   OH254390   5.365   3.501   0.197  0.0281 -0.1012  0.5315
10992TIP3    H154391   5.413   3.522   0.277  0.6796 -0.7058  0.3007
10992TIP3    H254392   5.324   3.584   0.171 -0.6766 -0.0298  1.8088
10993TIP3   OH254393   1.315   6.539  15.853  0.5698  0.1166  0.7070
10993TIP3    H154394   1.229   6.547  15.811  0.8270 -2.5915 -0.5776
10993TIP3    H254395   1.367   6.610  15.816  0.0595 -0.6923 -1.7705
10994TIP3   OH254396   5.821   0.865  13.208 -0.5396 -0.0252 -0.2263
10994TIP3    H154397   5.876   0.795  13.173  0.5293  0.5716  0.2208
10994TIP3    H254398   5.825   0.935  13.143  2.5249  1.6260  1.5084
10995TIP3   OH254399   2.132   3.305   0.742  0.4487  0.4367  0.1185
10995TIP3    H154400   2.109   3.289   0.651  1.0433 -1.6186  0.2817
10995TIP3    H254401   2.224   3.330   0.740  0.1804  1.4737  0.0888
10996TIP3   OH254402   5.719   2.641  16.617 -0.0836 -0.2192  0.0882
10996TIP3    H154403   5.807   2.674  16.601 -0.1177  1.4676  2.7142
10996TIP3    H254404   5.731   2.568  16.678 -0.4989  1.2889  2.0967
10997TIP3   OH254405   5.035   5.457   2.757 -0.4164 -0.6739  0.0262
10997TIP3    H154406   5.089   5.535   2.770  0.7787 -1.8209  3.1139
10997TIP3    H254407   4.948   5.482   2.789 -0.0126 -0.5616  1.1071
10998TIP3   OH254408   6.270   6.247   2.222  0.0728  0.0906  0.2430
10998TIP3    H154409   6.264   6.319   2.159 -1.9473 -0.1500  0.0786
10998TIP3    H254410   6.357   6.256   2.261  0.4834  1.6321 -0.9339
10999TIP3   OH254411   4.755   2.072  12.488  0.6464 -0.0250 -0.2435
10999TIP3    H154412   4.712   2.146  12.531  0.1264  0.6968 -1.9219
10999TIP3    H254413   4.719   1.994  12.531 -0.8233  0.6237 -0.2685
11000TIP3   OH254414   4.230   2.660  14.710  0.1553  0.0094 -0.0434
11000TIP3    H154415   4.191   2.747  14.713 -0.7605 -0.3724 -0.6375
11000TIP3    H254416   4.182   2.609  14.776 -0.1386 -0.3793 -0.5555
11001TIP3   OH254417   3.635   5.457   1.339  0.1771  0.3856 -0.4133
11001TIP3    H154418   3.707   5.520   1.340  0.3911  0.3525  3.6817
11001TIP3    H254419   3.622   5.435   1.246  4.4513  1.4496 -1.4410
11002TIP3   OH254420   4.984   5.811  11.149 -0.4356 -0.4959  0.4372
11002TIP3    H154421   4.970   5.831  11.057 -1.7929  0.8519  0.8941
11002TIP3    H254422   4.985   5.715  11.153 -0.4985 -0.5666 -0.9556
11003TIP3   OH254423   6.179   1.938  13.811  0.4587 -0.0921 -0.0142
11003TIP3    H154424   6.164   1.942  13.717  0.3087 -2.1175 -0.1316
11003TIP3    H254425   6.094   1.916  13.848  0.5601  0.4971  0.5856
11004TIP3   OH254426   1.662   0.510  16.243 -0.2269  0.8579 -0.5169
11004TIP3    H154427   1.585   0.543  16.289 -0.9467  0.0116 -1.0774
11004TIP3    H254428   1.655   0.546  16.155  0.6434  1.7031 -0.2563
11005TIP3   OH254429   3.062   3.188   2.906  0.0134  0.8333 -0.1362
11005TIP3    H154430   3.092   3.164   2.818 -1.8607  0.8384 -0.8020
11005TIP3    H254431   3.142   3.215   2.951  1.0242  0.8071 -1.8226
11006TIP3   OH254432   5.659   3.047   1.383  0.2283 -0.0625 -0.3371
11006TIP3    H154433   5.679   3.096   1.303 -0.6856 -1.7152 -1.6495
11006TIP3    H254434   5.572   3.077   1.408  0.2749  0.0297 -0.2830
11007TIP3   OH254435   2.731   3.130  15.325  0.1574  0.4068  0.2300
11007TIP3    H154436   2.754   3.124  15.233 -0.5051  2.7867 -0.1571
11007TIP3    H254437   2.705   3.041  15.350 -1.4299  0.0645 -2.3585
11008TIP3   OH254438   5.950   2.208  11.852 -0.4448  0.0951  0.0152
11008TIP3    H154439   5.888   2.155  11.901 -1.3463  1.5580  0.5451
11008TIP3    H254440   6.033   2.160  11.856 -0.6603 -0.1974  2.3676
11009TIP3   OH254441   0.567   2.228   0.591  0.1840 -0.3927 -0.2413
11009TIP3    H154442   0.633   2.159   0.583  0.8704 -0.2004  2.7342
11009TIP3    H254443   0.610   2.307   0.560  0.1484 -0.8564 -1.5332
11010TIP3   OH254444   5.840   1.928  10.807  0.4786  0.4133 -0.1083
11010TIP3    H154445   5.889   1.998  10.851  1.2367 -0.0356 -0.2167
11010TIP3    H254446   5.755   1.928  10.849  1.2932 -0.2600  1.6281
11011TIP3   OH254447   0.229   2.791   1.717 -0.6109 -0.2096  0.0505
11011TIP3    H154448   0.238   2.818   1.809  0.6965 -0.3482 -0.0128
11011TIP3    H254449   0.314   2.752   1.696 -1.1245 -0.7635 -1.0346
11012TIP3   OH254450   0.820   3.860  14.966  0.1528  0.2801 -0.4271
11012TIP3    H154451   0.839   3.942  15.012 -0.9209  0.5166 -0.3766
11012TIP3    H254452   0.821   3.883  14.873  3.0113 -0.3374 -0.6649
11013TIP3   OH254453   6.636   3.568   5.534 -0.4100 -0.0671 -0.2594
11013TIP3    H154454   6.670   3.491   5.487  3.4545  0.2960  1.6118
11013TIP3    H254455   6.675   3.643   5.488  2.1530  0.3442  2.3233
11014TIP3   OH254456   0.987   0.761   6.159 -0.6291 -0.2244  0.3902
11014TIP3    H154457   1.082   0.756   6.172 -0.9616 -0.3100  3.9109
11014TIP3    H254458   0.972   0.849   6.126  0.5646  0.8485  2.4652
11015TIP3   OH254459   3.826   5.596   3.188 -0.1776 -0.2449  0.0780
11015TIP3    H154460   3.761   5.565   3.251  1.7545 -1.5739  1.5475
11015TIP3    H254461   3.820   5.691   3.193 -1.1267 -0.3328  1.1261
11016TIP3   OH254462   6.152   4.983  15.499 -0.0257  0.3440 -0.0591
11016TIP3    H154463   6.130   4.927  15.573 -0.4281 -0.3147 -0.6675
11016TIP3    H254464   6.222   4.937  15.453 -0.4430  0.2692 -0.6325
11017TIP3   OH254465   2.305   1.732  13.621  0.1399  0.0541  0.6477
11017TIP3    H154466   2.221   1.729  13.576 -0.6742  0.3943  2.0594
11017TIP3    H254467   2.365   1.774  13.559 -0.2228 -1.8698 -1.1035
11018TIP3   OH254468   1.268   6.013   6.091  0.1505 -0.3243 -0.4431
11018TIP3    H154469   1.319   5.941   6.129  0.6558  0.5606  0.6322
11018TIP3    H254470   1.188   6.016   6.143 -0.0298 -0.3326 -0.7186
11019TIP3   OH254471   6.769   3.588   3.830 -0.5980  0.4971  0.0305
11019TIP3    H154472   6.780   3.494   3.822 -0.5615  0.5552 -0.6499
11019TIP3    H254473   6.675   3.601   3.836 -0.6490  0.4684 -0.6400
11020TIP3   OH254474   1.617   0.872   4.056  0.1731  0.8019 -0.7064
11020TIP3    H154475   1.657   0.869   4.142  0.3605  0.2542 -0.8113
11020TIP3    H254476   1.567   0.791   4.049  1.8830 -0.2122 -1.9359
11021TIP3   OH254477   0.450   3.669  15.667  0.0437 -0.0124  0.3470
11021TIP3    H154478   0.461   3.617  15.747 -2.3338 -1.7968 -0.3322
11021TIP3    H254479   0.489   3.615  15.598  0.1453  0.4800  0.0187
11022TIP3   OH254480   1.679   0.845  12.967 -0.9997  0.7544  0.0839
11022TIP3    H154481   1.660   0.930  13.007 -1.6168  1.2265 -1.1884
11022TIP3    H254482   1.653   0.854  12.876  2.3364  0.4318 -1.0644
11023TIP3   OH254483   3.979   4.525  10.725 -0.4484  0.0119  0.2430
11023TIP3    H154484   3.899   4.542  10.776 -0.1872  2.7865 -0.1313
11023TIP3    H254485   3.971   4.581  10.648  1.5629 -0.1624 -0.1449
11024TIP3   OH254486   3.019   0.169   6.154  0.6078 -0.2873  0.1900
11024TIP3    H154487   3.115   0.165   6.151  0.8623  1.3686  2.7860
11024TIP3    H254488   3.000   0.256   6.189 -1.7975 -0.9931  0.8156
11025TIP3   OH254489   3.301   3.937   0.364 -0.2774  0.1280 -0.2355
11025TIP3    H154490   3.348   3.860   0.333  1.5173 -0.1889  2.8061
11025TIP3    H254491   3.291   3.992   0.287  1.5559 -1.6185 -1.8329
11026TIP3   OH254492   5.630   5.677   2.707  0.4893 -0.0094 -0.3081
11026TIP3    H154493   5.590   5.705   2.790  1.3486 -0.6647  0.3429
11026TIP3    H254494   5.568   5.706   2.640  0.2161  1.3503  0.4907
11027TIP3   OH254495   5.771   3.334  16.829 -0.0918 -0.0587 -0.7569
11027TIP3    H154496   5.830   3.353  16.756  0.3264 -2.0612 -0.9728
11027TIP3    H254497   5.698   3.287  16.790 -0.9260  0.7025 -0.1766
11028TIP3   OH254498   5.049   5.291  15.760 -0.1498 -0.8862 -0.3934
11028TIP3    H154499   5.120   5.350  15.734  0.4630 -0.5860  1.7164
11028TIP3    H254500   5.091   5.230  15.821 -1.1393 -2.4961 -1.2527
11029TIP3   OH254501   3.892   1.791   5.365  0.3309 -0.6252 -0.4040
11029TIP3    H154502   3.968   1.843   5.338 -0.3042  1.7965  1.9911
11029TIP3    H254503   3.834   1.792   5.289  0.6014  1.7776 -0.6464
11030TIP3   OH254504   6.526   3.602  11.095 -0.1279 -0.1306 -0.2088
11030TIP3    H154505   6.445   3.651  11.080 -0.3255 -0.1006  0.8202
11030TIP3    H254506   6.570   3.600  11.010 -0.8738  0.4639 -0.6212
11031TIP3   OH254507   0.425   2.920  11.749 -0.4966 -0.5743 -0.2587
11031TIP3    H154508   0.349   2.979  11.750 -0.8563 -1.0336  0.8202
11031TIP3    H254509   0.474   2.946  11.671 -0.3557  1.5328  0.4566
11032TIP3   OH254510   0.191   2.757  11.687  0.1296  0.3052  0.6202
11032TIP3    H154511   0.204   2.847  11.718 -0.5162  0.5613  0.1679
11032TIP3    H254512   0.159   2.710  11.764  0.6747  0.4028  0.9171
11033TIP3   OH254513   6.285   6.447   0.312  0.4865 -0.5787 -0.3987
11033TIP3    H154514   6.360   6.399   0.276  0.6347 -0.7793  0.1738
11033TIP3    H254515   6.270   6.408   0.398  1.3776  1.1651  0.6124
11034TIP3   OH254516   4.817   6.157   6.489 -0.3402 -0.2112 -0.5755
11034TIP3    H154517   4.774   6.145   6.574  0.6605  0.7617  0.1044
11034TIP3    H254518   4.745   6.170   6.428 -1.0695 -0.5539  0.1899
11035TIP3   OH254519   5.837   4.596  10.656  0.4634  0.0071 -0.3841
11035TIP3    H154520   5.837   4.563  10.747  1.3075  0.9285 -0.0334
11035TIP3    H254521   5.891   4.533  10.608  4.0209  1.9442  0.7479
11036TIP3   OH254522   5.613   1.145   0.322  0.8607 -0.0451 -0.2007
11036TIP3    H154523   5.519   1.138   0.342  0.6105 -0.1751 -1.3397
11036TIP3    H254524   5.654   1.078   0.375  0.1638 -0.7286 -0.5074
11037TIP3   OH254525   5.222   6.792   1.262 -0.1008 -0.2614 -0.3327
11037TIP3    H154526   5.133   6.796   1.295 -0.5533 -0.4493 -1.4706
11037TIP3    H254527   5.277   6.786   1.340 -1.0505  0.2545  0.3968
11038TIP3   OH254528   1.751   3.384   3.273  0.2786 -0.0823 -0.0244
11038TIP3    H154529   1.764   3.379   3.368  1.5216 -1.8435 -0.2359
11038TIP3    H254530   1.822   3.439   3.242  0.6789 -0.5962 -0.0434
11039TIP3   OH254531   3.746   0.641   2.216  0.0216  0.3555  0.3299
11039TIP3    H154532   3.660   0.604   2.197  0.8615 -0.4220 -2.4218
11039TIP3    H254533   3.728   0.727   2.253 -1.9287  0.4328 -0.6777
11040TIP3   OH254534   0.855   1.146   3.674 -0.2113 -0.7325 -0.1449
11040TIP3    H154535   0.942   1.176   3.648 -0.8178  0.2385 -1.1275
11040TIP3    H254536   0.821   1.102   3.597 -0.2231 -2.0127  0.5597
11041TIP3   OH254537   3.258   2.338  14.916  0.1422  0.0287 -0.8295
11041TIP3    H154538   3.208   2.354  14.836  1.1076  0.0422 -1.4350
11041TIP3    H254539   3.303   2.420  14.934 -0.3372  0.1362 -0.0687
11042TIP3   OH254540   1.399   4.766  13.515 -0.3655 -0.5306  0.9521
11042TIP3    H154541   1.406   4.846  13.567 -0.0732  0.0005  0.1059
11042TIP3    H254542   1.433   4.697  13.573 -0.7197 -0.0733  1.7220
11043TIP3   OH254543   3.371   2.916   6.208 -0.0897  0.4983 -0.2727
11043TIP3    H154544   3.328   2.961   6.281 -0.3228  1.7426 -1.1384
11043TIP3    H254545   3.298   2.881   6.156  0.0434  0.3883 -0.3843
11044TIP3   OH254546   0.647   1.325  16.202  0.1042 -0.3370  0.7256
11044TIP3    H154547   0.608   1.300  16.117 -0.7000 -0.4214  1.1073
11044TIP3    H254548   0.674   1.242  16.241  1.1591 -0.2330  0.2368
11045TIP3   OH254549   4.651   5.996   2.365  0.5399  0.5206  0.5867
11045TIP3    H154550   4.565   5.981   2.327  0.6414  1.3074  0.0200
11045TIP3    H254551   4.649   5.949   2.449  0.5496 -1.8952 -0.6594
11046TIP3   OH254552   4.296   1.646  11.693 -0.2674 -0.5027  0.0334
11046TIP3    H154553   4.220   1.672  11.641 -0.0682 -0.6239 -0.3190
11046TIP3    H254554   4.284   1.552  11.707 -0.4751 -0.4147  0.4650
11047TIP3   OH254555   0.846   0.357  14.508 -0.1151  0.0361  0.4155
11047TIP3    H154556   0.787   0.375  14.435 -1.7242 -0.0066  1.6549
11047TIP3    H254557   0.863   0.444  14.546 -0.8591 -0.1209  1.1394
11048TIP3   OH254558   1.036   0.939  14.776  0.3242  0.0982 -0.1477
11048TIP3    H154559   1.017   0.942  14.869 -0.2853 -1.9381 -0.1495
11048TIP3    H254560   1.121   0.895  14.770  0.9163  1.2567 -0.5206
11049TIP3   OH254561   2.547   5.225   3.273 -0.7343 -0.3143  0.4712
11049TIP3    H154562   2.495   5.280   3.215  3.4898  2.6296 -1.0550
11049TIP3    H254563   2.549   5.139   3.231 -1.7480  0.3971 -1.0939
11050TIP3   OH254564   0.822   3.945  11.552  0.1731 -0.0687  0.1078
11050TIP3    H154565   0.914   3.920  11.552  0.1423 -0.2255  1.4050
11050TIP3    H254566   0.774   3.863  11.545  0.1145 -0.1134  1.0067
11051TIP3   OH254567   6.740   2.679  14.722 -0.0441  1.0139  0.1373
11051TIP3    H154568   6.695   2.693  14.639 -0.2520  1.4351  0.3137
11051TIP3    H254569   6.773   2.590  14.718 -0.0040  1.0540 -0.4192
11052TIP3   OH254570   1.889   1.015   4.584  0.0743 -0.0137  0.4057
11052TIP3    H154571   1.825   1.008   4.654 -0.6040 -0.6335 -0.2685
11052TIP3    H254572   1.930   1.100   4.598  0.1432 -0.2342  1.7089
11053TIP3   OH254573   2.860   5.670  13.830 -0.0620 -0.2472  0.0484
11053TIP3    H154574   2.829   5.754  13.797  0.5165 -0.2957 -0.6376
11053TIP3    H254575   2.892   5.624  13.753 -1.3524 -1.5489  0.2556
11054TIP3   OH254576   1.541   0.312   4.291  0.2284 -0.2046  0.3240
11054TIP3    H154577   1.571   0.348   4.374  1.1467 -0.9070  0.3183
11054TIP3    H254578   1.490   0.235   4.315 -1.4172  0.8381  0.3195
11055TIP3   OH254579   0.054   3.504   4.183 -0.2189 -0.0848  0.0879
11055TIP3    H154580   0.077   3.481   4.273  0.1233 -1.9660 -0.4393
11055TIP3    H254581  -0.018   3.566   4.192 -0.9357 -1.0769  1.6602
11056TIP3   OH254582   5.841   2.720   0.151 -0.1178  0.3428  0.0123
11056TIP3    H154583   5.803   2.684   0.071 -0.9137 -2.7472  1.6404
11056TIP3    H254584   5.933   2.736   0.128 -0.5305  0.4160 -1.7461
11057TIP3   OH254585   5.092   2.899  14.560 -0.2219  0.0058 -0.1795
11057TIP3    H154586   5.076   2.813  14.597 -0.4961  0.7321  1.4509
11057TIP3    H254587   5.005   2.931  14.535 -0.4890  0.8846  1.7305
11058TIP3   OH254588   5.012   2.979  15.167 -1.0380  0.4219 -0.1680
11058TIP3    H154589   5.054   2.912  15.114  1.3307  0.0556  1.9583
11058TIP3    H254590   5.033   3.061  15.123 -0.2482  0.0407 -0.5205
11059TIP3   OH254591   3.771   6.082   4.174 -0.4192 -0.1205 -0.8062
11059TIP3    H154592   3.740   6.158   4.124 -0.8634  0.8363  0.8498
11059TIP3    H254593   3.740   6.097   4.263 -0.4236 -2.2234 -0.4032
11060TIP3   OH254594   3.839   1.312  16.513 -0.1706 -0.3260 -0.2436
11060TIP3    H154595   3.783   1.377  16.470 -0.6182  0.2865  1.2278
11060TIP3    H254596   3.847   1.343  16.603  1.0431 -1.3961  0.0377
11061TIP3   OH254597   6.024   2.390  13.812  0.1200 -0.3857  0.0218
11061TIP3    H154598   6.036   2.454  13.882 -0.3304  0.6113 -0.7732
11061TIP3    H254599   6.024   2.305  13.856 -0.6649  0.2426  1.2971
11062TIP3   OH254600   5.318   0.482   2.688 -0.8279  0.0318 -0.4501
11062TIP3    H154601   5.353   0.521   2.768 -2.7491 -1.1942  1.0779
11062TIP3    H254602   5.394   0.442   2.645  0.3956  1.5524  0.2145
11063TIP3   OH254603   5.413   1.534  12.326 -0.5307 -0.0755  0.0376
11063TIP3    H154604   5.390   1.481  12.402  1.4551  0.6588  1.2201
11063TIP3    H254605   5.385   1.623  12.349  1.4153  0.4246  0.5824
11064TIP3   OH254606   2.783   0.463   0.409 -0.7679 -0.0046 -0.0073
11064TIP3    H154607   2.833   0.386   0.384  0.1807  0.9569 -1.2273
11064TIP3    H254608   2.801   0.475   0.502 -0.8808 -1.1956  0.1805
11065TIP3   OH254609   5.260   1.027  16.925  0.4754  0.7315 -0.3874
11065TIP3    H154610   5.220   1.094  16.980  0.0437  0.1254  0.0443
11065TIP3    H254611   5.344   1.008  16.968  0.1071  0.2071  0.1156
11066TIP3   OH254612   3.860   1.656  14.619 -0.2761  0.3445  0.3501
11066TIP3    H154613   3.840   1.720  14.687 -1.0087  1.3304 -0.7439
11066TIP3    H254614   3.944   1.685  14.584 -1.3796  1.8365 -1.3009
11067TIP3   OH254615   4.928   5.487   3.600 -0.1183 -0.8723 -0.2867
11067TIP3    H154616   4.896   5.540   3.673 -2.0505 -1.0715 -0.9446
11067TIP3    H254617   4.963   5.408   3.640  2.0087  0.4527  0.6468
11068TIP3   OH254618   3.920   3.583  16.124  0.4242 -0.1555 -0.6629
11068TIP3    H154619   3.958   3.613  16.041 -0.4818  0.1445 -0.9749
11068TIP3    H254620   3.989   3.529  16.163  2.0314  2.0537 -0.2054
11069TIP3   OH254621   0.517   5.459   2.181  0.3727  0.5740  0.2456
11069TIP3    H154622   0.562   5.529   2.134  0.3407  0.9711  0.7894
11069TIP3    H254623   0.500   5.496   2.268  1.4667 -0.5206  0.9629
11070TIP3   OH254624   0.907   5.720  12.562  0.2247  0.0573 -0.2121
11070TIP3    H154625   0.861   5.786  12.510  0.0389  0.0333 -0.0784
11070TIP3    H254626   0.895   5.749  12.653 -1.7388 -1.3287  0.0373
11071TIP3   OH254627   1.699   3.614  17.043  0.1739  0.4671 -0.0696
11071TIP3    H154628   1.757   3.684  17.016  1.5101 -0.9958 -1.1537
11071TIP3    H254629   1.647   3.593  16.965  1.2571 -1.0986 -0.4284
11072TIP3   OH254630   6.526   4.049  11.857 -0.0784 -0.1817  0.4788
11072TIP3    H154631   6.531   3.966  11.809  0.9732  0.3289 -0.3430
11072TIP3    H254632   6.500   4.113  11.791 -0.8709  0.1484  1.1057
11073TIP3   OH254633   2.291   5.673   5.613  0.2948  0.4185 -0.2780
11073TIP3    H154634   2.352   5.700   5.545  0.6740 -1.9759 -1.0024
11073TIP3    H254635   2.205   5.700   5.582  0.7093  1.6528 -0.4125
11074TIP3   OH254636   4.735   1.199   3.177 -0.0479 -0.1830 -0.2852
11074TIP3    H154637   4.675   1.127   3.160  0.1397 -0.2962 -0.4664
11074TIP3    H254638   4.803   1.190   3.110 -0.1724  0.3265 -0.4826
11075TIP3   OH254639   1.038   4.995   5.398 -0.0492 -0.0964  0.5551
11075TIP3    H154640   0.978   4.931   5.359  0.2282  0.9246 -1.7071
11075TIP3    H254641   1.013   4.998   5.490 -1.2271 -2.1534  0.3615
11076TIP3   OH254642   1.874   0.343  13.418  0.6795  0.0352  0.0673
11076TIP3    H154643   1.902   0.266  13.369  1.3559 -0.0107  0.5003
11076TIP3    H254644   1.901   0.325  13.508 -0.2922  0.2339  0.4127
11077TIP3   OH254645   3.682   4.571   5.420 -0.2105 -0.1883 -0.7301
11077TIP3    H154646   3.672   4.664   5.401  0.0850 -0.3922 -1.9195
11077TIP3    H254647   3.673   4.565   5.515 -1.1860  0.9267 -0.7340
11078TIP3   OH254648   6.027   6.527  15.927 -0.1351  0.2879  0.6395
11078TIP3    H154649   5.997   6.446  15.885  0.1366  0.9482 -0.8900
11078TIP3    H254650   6.077   6.572  15.860 -0.8910  2.0847  1.2095
11079TIP3   OH254651   1.807   5.963  13.523 -0.2989 -0.1433 -0.7109
11079TIP3    H154652   1.769   6.047  13.549 -1.9892 -0.5602 -1.7532
11079TIP3    H254653   1.899   5.983  13.504 -0.3465  1.1888  0.3443
11080TIP3   OH254654   1.005   6.007  13.981  0.1888  0.1302 -0.1175
11080TIP3    H154655   0.919   5.966  13.969  0.3140 -0.6434  1.4370
11080TIP3    H254656   1.060   5.967  13.914  0.5461 -3.0370  1.8962
11081TIP3   OH254657   6.598   1.351  13.288  0.3607  0.4782  0.2990
11081TIP3    H154658   6.692   1.362  13.280  0.4514 -0.6338 -0.3276
11081TIP3    H254659   6.586   1.266  13.330 -0.3538  0.5834  0.3288
11082TIP3   OH254660   3.674   4.595  14.705  0.3684 -0.4110 -1.0322
11082TIP3    H154661   3.603   4.584  14.769  0.9645  0.3406 -0.2267
11082TIP3    H254662   3.633   4.642  14.632  0.1884  0.6146 -0.2857
11083TIP3   OH254663   3.258   6.704  14.543  0.3039  0.5110  0.3356
11083TIP3    H154664   3.194   6.652  14.495 -0.0570  0.7379  0.5609
11083TIP3    H254665   3.342   6.661  14.526  0.2699  0.9182 -0.9572
11084TIP3   OH254666   1.820   2.169  15.482  0.3736 -0.2773  0.3209
11084TIP3    H154667   1.904   2.169  15.529  0.1260  0.7880  0.8165
11084TIP3    H254668   1.830   2.238  15.416  0.4272 -1.2163 -0.6812
11085TIP3   OH254669   2.558   4.150  10.966 -0.1400  0.2269 -0.2288
11085TIP3    H154670   2.510   4.223  10.926 -0.2979 -0.1025 -0.6587
11085TIP3    H254671   2.610   4.114  10.894 -1.0294 -0.8694 -0.3639
11086TIP3   OH254672   6.149   3.396  13.696  0.0280  0.5555 -0.5732
11086TIP3    H154673   6.166   3.413  13.789  0.4487 -0.8806 -0.3629
11086TIP3    H254674   6.234   3.370  13.661  0.1642  2.3426 -1.6947
11087TIP3   OH254675   2.265   3.060   5.323 -0.1085 -0.0363  0.1896
11087TIP3    H154676   2.192   3.003   5.347 -0.5146  0.9903  1.4971
11087TIP3    H254677   2.335   3.037   5.384 -0.1096  0.5200  0.4043
11088TIP3   OH254678   1.078   3.571   5.789  0.2209 -0.0716 -0.2013
11088TIP3    H154679   1.092   3.617   5.706  1.3357  0.0905  0.0540
11088TIP3    H254680   0.991   3.598   5.817  0.4176  1.0321 -0.5960
11089TIP3   OH254681   6.485   6.740  15.152  0.4756  0.1296 -0.4275
11089TIP3    H154682   6.532   6.811  15.108  1.5492 -0.4893 -0.3230
11089TIP3    H254683   6.463   6.776  15.238  1.2086  0.2824 -0.2913
11090TIP3   OH254684   5.380   3.860  10.556 -0.1686 -0.4964 -0.0137
11090TIP3    H154685   5.298   3.834  10.517 -1.1776  0.2730  1.4813
11090TIP3    H254686   5.371   3.955  10.570  0.5028 -0.5889  1.1820
11091TIP3   OH254687   5.470   5.453  16.474 -0.4138  0.0524 -0.3203
11091TIP3    H154688   5.375   5.464  16.486 -0.3619 -0.0068  0.1630
11091TIP3    H254689   5.479   5.420  16.385 -0.9277 -1.0517  0.0257
11092TIP3   OH254690   6.190   4.414  12.659 -0.0280  0.5900 -0.3886
11092TIP3    H154691   6.113   4.360  12.645  0.0083  0.6884 -0.9577
11092TIP3    H254692   6.232   4.419  12.574  0.7205  0.3718 -0.0416
11093TIP3   OH254693   4.744   3.022   5.298 -0.5027  0.1997  0.0045
11093TIP3    H154694   4.713   2.932   5.309  1.0619 -0.2536  0.9307
11093TIP3    H254695   4.677   3.075   5.341  0.4159 -0.8244  2.9353
11094TIP3   OH254696   2.362   2.847  14.501  0.0119  0.1108  0.0413
11094TIP3    H154697   2.282   2.828  14.451  0.4366 -2.2844  0.1745
11094TIP3    H254698   2.348   2.935  14.535 -1.2918  0.9175 -2.3665
11095TIP3   OH254699   6.758   1.498   0.563 -0.1689  0.5438  0.1337
11095TIP3    H154700   6.797   1.488   0.476  1.2769 -0.8377  0.8873
11095TIP3    H254701   6.714   1.414   0.579  0.5736  0.3285  1.1741
11096TIP3   OH254702   6.555   2.172  10.736 -1.0879 -0.2182  0.1434
11096TIP3    H154703   6.525   2.083  10.717  0.4749 -0.5083 -1.1493
11096TIP3    H254704   6.475   2.223  10.744 -1.9850 -0.9976 -2.8616
11097TIP3   OH254705   2.090   3.645   0.093 -0.7379  0.2523  0.5703
11097TIP3    H154706   2.162   3.656   0.155 -1.7275  0.9081  1.6544
11097TIP3    H254707   2.085   3.550   0.080  2.4027  0.3180 -2.1705
11098TIP3   OH254708   5.485   0.725   3.774 -0.3482 -0.1701 -0.2333
11098TIP3    H154709   5.552   0.688   3.717  0.5780  0.3420  0.5004
11098TIP3    H254710   5.415   0.753   3.714  0.5373  0.2281 -1.1074
11099TIP3   OH254711   5.408   2.725   4.462  0.6317  0.3726  0.0130
11099TIP3    H154712   5.463   2.659   4.419  1.6756  0.7585  0.6979
11099TIP3    H254713   5.327   2.679   4.483  1.8428 -1.1306  1.6873
11100TIP3   OH254714   6.732   5.704  11.335  0.2920  0.0731  0.3488
11100TIP3    H154715   6.677   5.762  11.282  1.0285  0.7248  0.2819
11100TIP3    H254716   6.755   5.632  11.275 -0.2254 -0.0357  0.2825
11101TIP3   OH254717   2.411   3.420   0.751  0.4779 -0.2821 -0.2690
11101TIP3    H154718   2.397   3.494   0.691  1.1239  0.9855  1.0668
11101TIP3    H254719   2.393   3.456   0.838  0.7554 -1.7325  0.4167
11102TIP3   OH254720   1.811   4.102   5.038  0.5224 -0.5047  0.1322
11102TIP3    H154721   1.774   4.172   5.091  0.6060 -0.7630  0.5346
11102TIP3    H254722   1.895   4.082   5.079  1.7910  1.0056 -1.5511
11103TIP3   OH254723   5.427   0.553  13.757 -0.2164 -0.1127 -0.4486
11103TIP3    H154724   5.445   0.518  13.670  0.5382  0.3305 -0.4776
11103TIP3    H254725   5.499   0.521  13.811 -1.5766 -1.8672  0.4524
11104TIP3   OH254726   0.767   0.584  11.723  0.2414 -0.1467 -0.6830
11104TIP3    H154727   0.720   0.537  11.791 -0.7853  0.7914 -0.7322
11104TIP3    H254728   0.840   0.526  11.701  0.8218 -0.3138  1.4570
11105TIP3   OH254729   0.642   5.149   1.258 -0.3964  0.4750 -0.0310
11105TIP3    H154730   0.633   5.189   1.344 -1.5123  2.6276 -1.0743
11105TIP3    H254731   0.661   5.222   1.199 -3.5934 -0.2631 -2.2317
11106TIP3   OH254732   4.280   4.717  12.125 -0.1477  0.0831 -0.4111
11106TIP3    H154733   4.191   4.685  12.112  0.5015 -1.1228 -2.2970
11106TIP3    H254734   4.288   4.790  12.064  0.4845 -0.5157 -1.0591
11107TIP3   OH254735   0.685   0.064  10.921  0.3627  0.3311  0.4078
11107TIP3    H154736   0.686  -0.008  10.858 -0.5259  0.0312  0.7110
11107TIP3    H254737   0.759   0.119  10.897  0.2326  0.0448 -0.6847
11108TIP3   OH254738   0.321   2.442   0.605  0.2128  0.1528 -0.0561
11108TIP3    H154739   0.403   2.421   0.650 -0.6053 -2.2567  0.4769
11108TIP3    H254740   0.281   2.511   0.657  1.1434  0.2131  0.6024
11109TIP3   OH254741   6.604   0.859  13.770  0.2387 -0.2849 -0.0936
11109TIP3    H154742   6.574   0.949  13.761 -1.2593 -0.7512 -0.2151
11109TIP3    H254743   6.589   0.820  13.684  0.4068 -0.7750  0.0941
11110TIP3   OH254744   5.803   4.637   4.433  0.2230 -0.1660  0.3994
11110TIP3    H154745   5.791   4.726   4.467 -0.4674  0.0001 -0.2501
11110TIP3    H254746   5.720   4.593   4.452 -1.0305  0.5367 -2.8234
11111TIP3   OH254747   2.797   4.507  11.242  0.6227 -0.1704 -0.5674
11111TIP3    H154748   2.735   4.463  11.301  0.0366  0.8099 -0.4299
11111TIP3    H254749   2.846   4.567  11.299  0.0440  0.7927 -1.0547
11112TIP3   OH254750   2.050   2.333   3.623  0.1229  0.0262 -0.0857
11112TIP3    H154751   2.119   2.361   3.683  0.0560 -1.2534  0.6113
11112TIP3    H254752   2.090   2.265   3.570 -0.6258 -0.8355  0.4268
11113TIP3   OH254753   3.448   6.514  16.838 -0.5530  0.1228  0.9257
11113TIP3    H154754   3.425   6.500  16.747  1.9622  1.0309  0.0583
11113TIP3    H254755   3.440   6.609  16.850 -0.0348  0.1135  1.3805
11114TIP3   OH254756   5.633   5.290  12.153  0.1166  0.0369  0.3316
11114TIP3    H154757   5.655   5.344  12.078  0.3302  0.1792  0.4949
11114TIP3    H254758   5.570   5.226  12.119 -1.1163  1.1539  0.3837
11115TIP3   OH254759   5.641   4.685  15.199  0.5784  0.5429  0.4806
11115TIP3    H154760   5.637   4.748  15.127  0.6591  0.7691  0.6724
11115TIP3    H254761   5.707   4.720  15.258  1.7678 -0.5245 -0.1647
11116TIP3   OH254762   4.371   1.099   4.504  0.5774  0.0312 -0.0867
11116TIP3    H154763   4.355   1.193   4.515 -0.5993 -0.3031  1.3591
11116TIP3    H254764   4.460   1.094   4.470  0.8152  1.6631  0.1959
11117TIP3   OH254765   5.913   3.281  14.587 -0.2902 -0.9675 -0.2971
11117TIP3    H154766   5.841   3.343  14.604 -0.3346 -0.9621 -0.5093
11117TIP3    H254767   5.968   3.288  14.665  0.7011  0.6938 -1.0807
11118TIP3   OH254768   0.714   4.218  16.965 -0.0008  0.4391  0.3710
11118TIP3    H154769   0.744   4.127  16.966 -1.6845 -0.2578 -2.1904
11118TIP3    H254770   0.778   4.264  16.913 -0.6432  0.0504 -0.7949
11119TIP3   OH254771   3.224   4.987   3.878  0.0814 -0.4471  0.2331
11119TIP3    H154772   3.154   5.046   3.907  0.3408  0.3533 -0.6972
11119TIP3    H254773   3.183   4.901   3.872 -0.8316  0.0121 -0.3125
11120TIP3   OH254774   6.249   5.824   1.803 -0.1076 -0.4201 -0.2263
11120TIP3    H154775   6.180   5.858   1.861  0.7020 -0.5991  0.8808
11120TIP3    H254776   6.310   5.780   1.862  1.0304 -0.1542 -1.1691
11121TIP3   OH254777   1.629   5.325   4.317 -0.0049  0.6786  0.1860
11121TIP3    H154778   1.697   5.392   4.327 -0.3398  1.4258 -2.0662
11121TIP3    H254779   1.675   5.249   4.280 -0.5036  1.5754 -2.4448
11122TIP3   OH254780   2.482   2.875   2.243 -0.4987  0.6536  0.4205
11122TIP3    H154781   2.407   2.923   2.278 -0.5079  0.5376  0.5596
11122TIP3    H254782   2.451   2.785   2.233 -0.2782  0.5373  0.7894
11123TIP3   OH254783   3.597   0.690  13.900 -0.1618 -0.3987 -1.0109
11123TIP3    H154784   3.568   0.749  13.970 -0.2606 -0.2721 -1.1581
11123TIP3    H254785   3.520   0.679  13.845 -0.1274 -0.6244 -1.0142
11124TIP3   OH254786   5.842   2.323  15.359 -0.3040 -0.7564 -0.1674
11124TIP3    H154787   5.772   2.355  15.302 -0.5730  0.9717  1.0565
11124TIP3    H254788   5.923   2.345  15.314 -0.4880  1.5514  0.5031
11125TIP3   OH254789   5.247   1.501   2.683 -0.1173  0.5341  0.3089
11125TIP3    H154790   5.181   1.433   2.696  0.7845 -0.5853 -0.8330
11125TIP3    H254791   5.259   1.539   2.770 -1.5010  0.0633  0.7319
11126TIP3   OH254792   6.446   0.057  13.985 -0.9687  0.8472  0.1437
11126TIP3    H154793   6.355   0.072  14.012 -0.0739  2.2709  2.7481
11126TIP3    H254794   6.497   0.071  14.065  1.5967  0.5461 -1.3401
11127TIP3   OH254795   0.494   4.969   3.946  0.4921 -0.3617 -0.2206
11127TIP3    H154796   0.569   4.963   4.006 -0.2571 -0.5531  0.7141
11127TIP3    H254797   0.534   4.981   3.860  1.7268 -3.1379 -0.1628
11128TIP3   OH254798   5.532   2.321  14.740  0.0960 -0.3100  0.3256
11128TIP3    H154799   5.527   2.227  14.721 -1.6515 -0.3761  0.9315
11128TIP3    H254800   5.510   2.328  14.833  2.1470  0.5701  0.8055
11129TIP3   OH254801   6.069   4.475  15.809  0.6152  0.5855 -0.2258
11129TIP3    H154802   6.073   4.471  15.905  0.7714 -1.2975 -0.2765
11129TIP3    H254803   5.978   4.451  15.788  1.0554 -0.8350 -0.5878
11130TIP3   OH254804   6.307   3.908   0.755 -0.0614 -0.0842 -0.3691
11130TIP3    H154805   6.271   3.985   0.711 -0.7439 -0.3499 -0.2966
11130TIP3    H254806   6.334   3.939   0.841  0.1134  0.1768 -0.5181
11131TIP3   OH254807   5.023   3.860  11.718 -0.2190  0.1222  0.2224
11131TIP3    H154808   4.937   3.901  11.708 -0.0304  0.3059 -0.8096
11131TIP3    H254809   5.007   3.784  11.773 -1.1772 -0.2192 -0.4882
11132TIP3   OH254810   5.579   3.073  15.518 -0.2674 -0.4092  0.3795
11132TIP3    H154811   5.579   3.094  15.611 -1.0878  0.0028  0.3004
11132TIP3    H254812   5.653   3.015  15.506 -0.2662 -0.6160  1.3241
11133TIP3   OH254813   4.017   5.627   0.200 -0.0308 -0.0805  0.1383
11133TIP3    H154814   3.962   5.606   0.124 -1.4547 -0.7667  1.2976
11133TIP3    H254815   3.975   5.704   0.239 -1.4473 -1.7454  2.1385
11134TIP3   OH254816   3.946   2.984   1.290 -0.1709  0.2822  0.2260
11134TIP3    H154817   3.913   2.941   1.211  2.2442 -1.0729 -0.1301
11134TIP3    H254818   3.988   3.063   1.257  1.0894 -0.4283  0.0793
11135TIP3   OH254819   4.613   2.722   0.731 -0.0862 -0.3579 -0.5826
11135TIP3    H154820   4.572   2.648   0.776 -0.2738  0.0905 -0.0103
11135TIP3    H254821   4.601   2.796   0.790  0.3993  0.0624 -1.0013
11136TIP3   OH254822   4.269   4.015  13.679  0.0303 -0.4018  0.5762
11136TIP3    H154823   4.297   3.935  13.634  1.1822 -0.0457  0.6284
11136TIP3    H254824   4.191   4.043  13.631  1.2475 -0.0152 -1.2690
11137TIP3   OH254825   2.473   2.105  12.312 -0.4951  0.3587  0.5151
11137TIP3    H154826   2.421   2.080  12.388 -1.4981  0.4765 -0.1167
11137TIP3    H254827   2.553   2.142  12.349 -0.5275 -0.5164  1.4948
11138TIP3   OH254828   1.246   0.633   4.129  0.3479  0.2205  0.1812
11138TIP3    H154829   1.175   0.580   4.093  1.6347 -0.4327 -1.5939
11138TIP3    H254830   1.237   0.625   4.224 -1.7421 -0.0631  0.0081
11139TIP3   OH254831   3.672   2.251  16.356 -0.1325 -0.2759  0.6119
11139TIP3    H154832   3.658   2.171  16.405  0.8457 -0.1317  1.1543
11139TIP3    H254833   3.680   2.319  16.423 -1.3061  0.3438  0.1452
11140TIP3   OH254834   1.349   4.029   2.015  0.0442  0.7116 -0.0725
11140TIP3    H154835   1.427   4.075   1.984  0.5401  0.6843  1.0746
11140TIP3    H254836   1.335   4.064   2.103 -0.4795 -0.2222  0.2255
11141TIP3   OH254837   5.313   3.750   2.532 -0.1312 -0.2639 -0.2388
11141TIP3    H154838   5.335   3.834   2.572  0.7617  0.9057 -2.9306
11141TIP3    H254839   5.380   3.737   2.465 -0.6167 -2.8520 -0.3468
11142TIP3   OH254840   5.768   1.276  11.471  0.0086  0.4115 -0.2271
11142TIP3    H154841   5.790   1.320  11.389 -1.9905 -1.1452 -1.6974
11142TIP3    H254842   5.729   1.344  11.525  1.5729  1.5144 -0.4165
11143TIP3   OH254843   0.077   6.121  16.387  0.1094 -0.1933  0.4408
11143TIP3    H154844   0.065   6.195  16.447 -0.9332  1.1262 -1.3122
11143TIP3    H254845  -0.009   6.107  16.348  0.9504 -0.3458 -1.4807
11144TIP3   OH254846   1.483   0.639  12.647 -0.2894 -0.8479  0.4494
11144TIP3    H154847   1.534   0.719  12.636  0.4632 -1.3717 -0.0090
11144TIP3    H254848   1.410   0.664  12.703  0.0770  0.0947  0.5198
11145TIP3   OH254849   2.545   4.724   2.080 -0.1242  0.0120  0.0186
11145TIP3    H154850   2.489   4.663   2.031 -1.8418  0.4184  1.3493
11145TIP3    H254851   2.619   4.670   2.109  0.5893 -0.3883 -2.3555
11146TIP3   OH254852   6.470   0.517   0.165 -0.0135  0.3663  0.2047
11146TIP3    H154853   6.426   0.436   0.138  0.7178 -0.5109  1.5517
11146TIP3    H254854   6.513   0.494   0.247  1.6919  1.6211 -0.2996
11147TIP3   OH254855   2.003   3.195   4.732  0.2938 -0.2890  0.1465
11147TIP3    H154856   2.036   3.273   4.776 -1.5875  0.0508  1.0886
11147TIP3    H254857   1.995   3.130   4.802 -1.6403 -0.1057  0.1589
11148TIP3   OH254858   5.330   3.815  13.808  0.1977 -0.6252 -0.1155
11148TIP3    H154859   5.359   3.818  13.899 -2.2566  1.3450  0.7080
11148TIP3    H254860   5.410   3.828  13.757  2.0206 -3.9502  1.5472
11149TIP3   OH254861   4.347   0.877   1.701  0.4294 -0.0261 -0.5796
11149TIP3    H154862   4.395   0.959   1.710  1.2866 -0.6444  0.7173
11149TIP3    H254863   4.310   0.880   1.612 -0.4939  2.2442 -0.1861
11150TIP3   OH254864   4.838   6.357   0.253 -0.3954 -0.8151 -0.5243
11150TIP3    H154865   4.787   6.336   0.331 -2.2742 -0.9668 -1.7314
11150TIP3    H254866   4.811   6.446   0.229  0.0519 -0.8168 -1.0616
11151TIP3   OH254867   4.260   5.463  12.804  0.0238  0.2161  0.3549
11151TIP3    H154868   4.239   5.484  12.894 -3.1497 -2.1153  0.3264
11151TIP3    H254869   4.205   5.522  12.752 -0.9746 -0.9098  0.0870
11152TIP3   OH254870   2.869   4.244  11.617 -0.5624 -0.0535  0.9580
11152TIP3    H154871   2.960   4.218  11.625 -0.3509 -0.1538 -1.1994
11152TIP3    H254872   2.872   4.338  11.597 -0.8032 -0.3540 -0.6471
11153TIP3   OH254873   0.752   3.421   0.908 -0.1298  0.9183  0.1964
11153TIP3    H154874   0.767   3.395   0.999  1.3764  2.5151  0.4556
11153TIP3    H254875   0.827   3.385   0.861 -1.1081 -0.2485 -0.5336
11154TIP3   OH254876   3.888   1.923   1.570  0.3290  0.2445  0.0343
11154TIP3    H154877   3.887   1.833   1.603  0.2749 -1.3906 -3.9215
11154TIP3    H254878   3.806   1.961   1.603 -0.5172 -1.7420  0.3914
11155TIP3   OH254879   4.761   1.144   4.808  0.6331  0.3151 -0.1034
11155TIP3    H154880   4.666   1.142   4.812  0.6333 -0.4288 -0.3857
11155TIP3    H254881   4.783   1.237   4.803 -0.1129  0.4593 -0.9371
11156TIP3   OH254882   4.826   5.363   1.144 -0.4081  0.1513  0.3181
11156TIP3    H154883   4.775   5.432   1.102  0.7566  0.2945 -0.9568
11156TIP3    H254884   4.778   5.283   1.126 -1.0666  0.4730  0.6210
11157TIP3   OH254885   6.561   0.974   6.008 -0.1844  0.4667  0.5157
11157TIP3    H154886   6.519   1.050   5.969  1.2737  0.9642 -0.1720
11157TIP3    H254887   6.607   1.010   6.084  0.0860  0.1845  0.4863
11158TIP3   OH254888   0.912   3.705   2.782  0.1518  0.1805  0.1114
11158TIP3    H154889   0.935   3.769   2.715 -0.4626  0.3875  0.0880
11158TIP3    H254890   0.828   3.736   2.816  0.5900  0.2291  1.1692
11159TIP3   OH254891   4.525   6.057   2.888 -0.0340 -0.1414 -0.5694
11159TIP3    H154892   4.601   6.106   2.920  0.1502  0.0257 -1.2499
11159TIP3    H254893   4.451   6.097   2.932  0.2301 -0.0354 -0.2114
11160TIP3   OH254894   4.791   5.806   4.527  0.6029  0.1017  0.1663
11160TIP3    H154895   4.753   5.887   4.495 -0.6692  0.1385  1.6517
11160TIP3    H254896   4.759   5.739   4.468 -0.2099  0.3966  0.2714
11161TIP3   OH254897   3.692   2.397   3.109  0.4355  0.5339  0.2697
11161TIP3    H154898   3.625   2.435   3.167  0.9917  2.5586 -0.3702
11161TIP3    H254899   3.775   2.416   3.152  0.8079  1.3486 -0.7761
11162TIP3   OH254900   5.150   1.466  16.207 -0.1423 -0.2540  1.6894
11162TIP3    H154901   5.210   1.395  16.184  1.5284  1.3578  0.7939
11162TIP3    H254902   5.154   1.471  16.302  1.7529  0.2711  1.6145
11163TIP3   OH254903   0.962   5.279   3.851 -0.4711  0.4610  0.0085
11163TIP3    H154904   1.004   5.292   3.937 -2.3472  2.2404  0.7382
11163TIP3    H254905   0.898   5.350   3.845 -1.3777 -0.4731 -2.2818
11164TIP3   OH254906   3.146   2.842  10.921 -0.0628  0.6237  0.4238
11164TIP3    H154907   3.212   2.854  10.989 -0.2308  0.3495  0.6379
11164TIP3    H254908   3.165   2.910  10.857  2.1282 -1.1068 -0.8907
11165TIP3   OH254909   3.206   6.477   6.593  0.2380  0.0932  0.3082
11165TIP3    H154910   3.149   6.551   6.574  0.0533 -0.3794 -1.1148
11165TIP3    H254911   3.146   6.403   6.607  0.4547 -0.0741  0.3616
11166TIP3   OH254912   5.101   4.366  16.832 -0.1445 -0.3011 -0.3270
11166TIP3    H154913   5.147   4.350  16.749 -0.4456 -0.4586 -0.4617
11166TIP3    H254914   5.030   4.425  16.810  0.1873  0.2096 -0.0516
11167TIP3   OH254915   2.932   0.653  15.873 -0.1277 -0.3496 -0.2450
11167TIP3    H154916   2.989   0.691  15.940 -1.7273  2.1452 -0.1543
11167TIP3    H254917   2.850   0.635  15.919 -0.1441 -1.9302 -0.8242
11168TIP3   OH254918   1.007   4.373  16.514 -0.1713 -0.2714  0.2334
11168TIP3    H154919   1.041   4.289  16.481 -0.5812 -0.5578  0.5354
11168TIP3    H254920   1.074   4.437  16.490  0.1808 -0.6985  0.0666
11169TIP3   OH254921   3.190   1.585  13.653 -0.4541  0.3497 -0.0487
11169TIP3    H154922   3.265   1.596  13.595 -0.1888  0.6114  0.3397
11169TIP3    H254923   3.228   1.568  13.739 -0.8361  0.5803  0.1691
11170TIP3   OH254924   3.250   0.566   3.364  0.1018 -0.3391  0.4402
11170TIP3    H154925   3.295   0.512   3.299 -1.6258 -2.0901  0.5947
11170TIP3    H254926   3.284   0.535   3.448  0.1296 -0.1792  0.4889
11171TIP3   OH254927   6.429   0.422  14.370  0.0140 -0.0373  0.3897
11171TIP3    H154928   6.379   0.501  14.350  0.2120 -0.0492 -0.1691
11171TIP3    H254929   6.382   0.382  14.443 -2.4370 -1.4932 -1.7868
11172TIP3   OH254930   2.521   5.521  15.017 -0.3378  0.1022 -0.5249
11172TIP3    H154931   2.559   5.525  15.105  1.4906  0.5485 -1.2838
11172TIP3    H254932   2.492   5.611  15.000  1.3168  0.5496 -1.1732
11173TIP3   OH254933   6.064   6.486   3.794 -0.0706  0.2584  0.5330
11173TIP3    H154934   6.128   6.527   3.853 -0.0280 -0.0749  0.7214
11173TIP3    H254935   5.979   6.508   3.832 -0.1791  2.3414 -0.7658
11174TIP3   OH254936   6.662   5.807   3.089 -0.6678  0.0009 -0.3841
11174TIP3    H154937   6.661   5.900   3.068  0.1794  0.0134 -0.4239
11174TIP3    H254938   6.716   5.768   3.020 -1.1411 -0.5408 -0.4517
11175TIP3   OH254939   2.346   2.230   3.226 -0.2055 -0.5574 -0.1638
11175TIP3    H154940   2.417   2.292   3.206  0.3339 -1.2366 -0.4067
11175TIP3    H254941   2.273   2.260   3.172  0.8147 -1.5575 -2.1996
11176TIP3   OH254942   0.906   3.581  14.956  0.5199 -0.3207  0.5803
11176TIP3    H154943   0.867   3.668  14.953  2.7657  0.7166 -1.3213
11176TIP3    H254944   0.838   3.523  14.921  0.1146  1.1604 -1.2219
11177TIP3   OH254945   3.169   2.723   4.683 -0.4845  0.4815  0.5164
11177TIP3    H154946   3.175   2.631   4.706  0.6479  0.2615 -0.6058
11177TIP3    H254947   3.217   2.768   4.753 -1.8051  0.3486  1.5683
11178TIP3   OH254948   3.893   1.601  11.126  0.0525 -0.0296 -0.4565
11178TIP3    H154949   3.887   1.695  11.107  0.3721 -0.1048 -0.9527
11178TIP3    H254950   3.953   1.596  11.201 -0.3809  0.1951 -0.0878
11179TIP3   OH254951   3.344   4.838  13.372  0.1110  0.3842  0.0186
11179TIP3    H154952   3.359   4.896  13.447 -1.4549  0.3392  0.3982
11179TIP3    H254953   3.257   4.801  13.388  0.1590 -0.3516 -1.3534
11180TIP3   OH254954   4.315   3.042   0.893 -0.4946 -0.5743 -0.7522
11180TIP3    H154955   4.381   3.091   0.844  1.1362 -1.0763  0.8441
11180TIP3    H254956   4.271   3.107   0.947 -0.7313 -0.3687 -1.1878
11181TIP3   OH254957   1.483   3.718  12.643  0.1725  0.3816 -0.0412
11181TIP3    H154958   1.520   3.703  12.730 -1.7089 -1.2887  0.5272
11181TIP3    H254959   1.389   3.713  12.655 -0.3867  3.8901 -1.5677
11182TIP3   OH254960   0.091   5.012   5.139  0.1277 -0.5036 -1.0235
11182TIP3    H154961   0.163   4.951   5.153  0.0635 -0.1511  1.1476
11182TIP3    H254962   0.111   5.087   5.195 -0.7987  0.6078 -2.1167
11183TIP3   OH254963   6.342   4.084   0.188  0.5112  0.1036  0.1730
11183TIP3    H154964   6.275   4.023   0.221  0.0691  0.5541  0.1248
11183TIP3    H254965   6.295   4.139   0.126  1.0490  0.1013 -0.2389
11184TIP3   OH254966   1.732   0.329   0.887  0.2523  0.1301 -0.1677
11184TIP3    H154967   1.754   0.409   0.936  0.6258  1.1328 -1.8916
11184TIP3    H254968   1.647   0.349   0.847  1.2436  0.4804 -2.2012
11185TIP3   OH254969   2.213   2.426   2.603  0.2734 -0.0602  0.8205
11185TIP3    H154970   2.136   2.385   2.564 -0.3694  0.0708  1.9005
11185TIP3    H254971   2.182   2.459   2.688  1.2300  1.0238  0.7717
11186TIP3   OH254972   3.451   2.764   4.359 -0.6137 -0.4457 -0.0997
11186TIP3    H154973   3.514   2.812   4.306  1.3715  0.8014  3.0365
11186TIP3    H254974   3.475   2.672   4.349 -0.6318 -0.3027 -1.6467
11187TIP3   OH254975   1.260   3.056  13.136  0.1714 -0.1902 -0.7359
11187TIP3    H154976   1.335   3.102  13.174 -0.4586  0.7893 -0.6371
11187TIP3    H254977   1.198   3.047  13.208  0.3822 -1.4633 -0.6841
11188TIP3   OH254978   0.002   4.635  14.055 -0.3398 -0.3013  0.0754
11188TIP3    H154979   0.044   4.594  13.979 -0.9574 -0.9604  0.0750
11188TIP3    H254980  -0.046   4.710  14.018  1.2356  0.7952  0.1485
11189TIP3   OH254981   0.652   0.021  13.654 -0.3640 -0.4940 -0.3185
11189TIP3    H154982   0.738  -0.021  13.658  0.9460  1.8560 -1.5582
11189TIP3    H254983   0.591  -0.051  13.642  1.4779 -2.2116  0.0444
11190TIP3   OH254984   4.820   3.516   4.768  0.0690 -0.4498  0.1921
11190TIP3    H154985   4.845   3.497   4.858 -2.0630  0.9211  1.1526
11190TIP3    H254986   4.904   3.525   4.722  1.2055 -1.8613  1.8439
11191TIP3   OH254987   5.554   1.123   3.822  0.1819  0.1443 -0.1184
11191TIP3    H154988   5.606   1.056   3.865  0.2796 -1.2349 -2.2449
11191TIP3    H254989   5.491   1.152   3.889  1.1539 -0.9143  1.3052
11192TIP3   OH254990   6.088   4.097  16.045 -0.2633 -0.0005  0.4095
11192TIP3    H154991   6.076   4.014  16.000 -2.0386  0.8817 -0.8613
11192TIP3    H254992   6.142   4.076  16.121 -0.9702 -2.3712  0.3187
11193TIP3   OH254993   4.553   6.539   2.537 -0.2995 -0.5639  0.1060
11193TIP3    H154994   4.498   6.615   2.519 -0.8989 -1.2648 -1.1120
11193TIP3    H254995   4.643   6.570   2.521 -0.1439  0.8289  2.8974
11194TIP3   OH254996   4.261   3.206   4.062  0.1342 -0.0585 -0.2430
11194TIP3    H154997   4.304   3.288   4.039  2.3259 -0.5918  1.5703
11194TIP3    H254998   4.308   3.139   4.012  1.1522 -0.5990  1.3675
11195TIP3   OH254999   1.768   0.405  12.525 -0.1073  0.5284 -0.4002
11195TIP3    H155000   1.852   0.449  12.509 -0.5709  0.9930 -1.7405
11195TIP3    H255001   1.712   0.434  12.452 -0.8249 -1.3144 -0.6267
11196TIP3   OH255002   6.517   3.375  16.416  0.3247 -0.2379  0.3001
11196TIP3    H155003   6.554   3.374  16.504  0.6402  1.0083  0.2109
11196TIP3    H255004   6.570   3.313  16.366  1.3191  0.3917  0.5507
11197TIP3   OH255005   1.673   1.071  16.036  0.1908  0.2439  0.3540
11197TIP3    H155006   1.752   1.045  15.988  0.9829  1.6691  0.8163
11197TIP3    H255007   1.645   0.992  16.081  2.5938  0.1416  1.8438
11198TIP3   OH255008   5.948   6.435  13.634 -1.1706 -0.2629  0.2362
11198TIP3    H155009   5.978   6.526  13.639  0.4239 -0.7754  0.3025
11198TIP3    H255010   5.968   6.398  13.719 -0.2627 -1.1276 -0.3388
11199TIP3   OH255011   4.159   3.953  16.346  0.8894 -0.3545  0.4887
11199TIP3    H155012   4.243   3.908  16.337  0.4553 -1.0010 -0.6224
11199TIP3    H255013   4.094   3.886  16.326  0.1990  0.5835 -0.5108
11200TIP3   OH255014   0.106   5.201  16.940  0.0599 -0.2621  0.7415
11200TIP3    H155015   0.055   5.188  16.861  0.1639 -0.1230  0.6509
11200TIP3    H255016   0.127   5.294  16.940 -1.3272  0.0994  1.7700
11201TIP3   OH255017   3.576   2.834  15.642  0.5904  0.0755  0.0183
11201TIP3    H155018   3.629   2.910  15.665  0.7661 -0.3069  0.9044
11201TIP3    H255019   3.634   2.759  15.654 -0.2145 -0.3766  1.2812
11202TIP3   OH255020   5.988   5.724   3.204  0.8281 -0.4446  0.8473
11202TIP3    H155021   5.983   5.636   3.242  0.2232 -0.5024  0.6393
11202TIP3    H255022   5.959   5.781   3.275  0.2196 -0.5077  0.6601
11203TIP3   OH255023   0.720   4.117   3.181 -0.4582 -0.1230 -0.1155
11203TIP3    H155024   0.787   4.182   3.200 -0.0048 -0.6300  0.0760
11203TIP3    H255025   0.643   4.146   3.229  0.7989 -1.6562  3.1589
11204TIP3   OH255026   0.760   6.657  14.013  0.7316  0.8037 -0.1428
11204TIP3    H155027   0.733   6.567  14.030  1.1134  0.5130 -0.9901
11204TIP3    H255028   0.689   6.711  14.047  1.5456  0.3228  2.5655
11205TIP3   OH255029   2.099   0.102  11.616 -0.1979 -0.4892 -0.8251
11205TIP3    H155030   2.125   0.182  11.571 -1.7043  0.7755  0.4307
11205TIP3    H255031   2.015   0.078  11.576 -1.8959  1.0137  1.5382
11206TIP3   OH255032   3.303   2.745   0.082  0.2754  0.1338  0.3808
11206TIP3    H155033   3.312   2.655   0.112 -0.7273 -0.2062 -0.3147
11206TIP3    H255034   3.271   2.738  -0.008  0.3682  1.1841  0.2485
11207TIP3   OH255035   4.612   0.463   0.304  0.6126 -0.2310  0.1730
11207TIP3    H155036   4.702   0.431   0.310  0.9647  0.6038 -0.5182
11207TIP3    H255037   4.562   0.406   0.363  1.3673 -1.4713 -0.3548
11208TIP3   OH255038   5.057   5.768  12.666  0.1439 -0.2848  0.4729
11208TIP3    H155039   5.130   5.750  12.607 -0.2185  0.9631 -0.3923
11208TIP3    H255040   4.979   5.752  12.614 -0.2065 -0.7575  1.1245
11209TIP3   OH255041   2.691   2.111  15.368  0.0560  0.3819 -0.0945
11209TIP3    H155042   2.609   2.133  15.324 -0.5656  0.1391  0.9294
11209TIP3    H255043   2.669   2.040  15.428  0.4994  1.8210  1.8732
11210TIP3   OH255044   3.673   4.153  16.696  0.2969  0.2799  0.0109
11210TIP3    H155045   3.757   4.173  16.738  0.5622 -0.2682 -0.2576
11210TIP3    H255046   3.624   4.235  16.703  0.2907  0.1823  1.4853
11211TIP3   OH255047   3.044   2.140   1.530 -0.0374 -0.2091 -0.3764
11211TIP3    H155048   3.088   2.056   1.536 -0.9525 -0.9853 -2.9924
11211TIP3    H255049   2.996   2.148   1.612  1.7976 -1.1745  0.8430
11212TIP3   OH255050   3.709   3.284   2.020 -0.2247 -0.4440 -0.0487
11212TIP3    H155051   3.745   3.361   1.976  0.4869 -1.4620 -1.3393
11212TIP3    H255052   3.731   3.296   2.112 -1.0431  1.3715 -0.0521
11213TIP3   OH255053   4.705   5.186  15.828  0.1650  0.2178 -0.0792
11213TIP3    H155054   4.748   5.263  15.864 -1.0719 -0.0978  2.2491
11213TIP3    H255055   4.751   5.170  15.745  0.8743  3.0187 -0.3261
11214TIP3   OH255056   1.597   4.321   2.597  0.7941  0.5283  0.1514
11214TIP3    H155057   1.509   4.327   2.560  1.4647 -1.1847 -1.9238
11214TIP3    H255058   1.625   4.412   2.607 -0.4939  1.0842 -1.0027
11215TIP3   OH255059   5.945   2.032  14.215  0.2288 -0.4655  0.0190
11215TIP3    H155060   5.866   2.037  14.161  0.7370  0.8899 -0.6392
11215TIP3    H255061   5.993   1.956  14.181  0.2250 -0.0208 -1.0181
11216TIP3   OH255062   6.088   2.247  14.321  0.0632 -0.3520 -0.2484
11216TIP3    H155063   6.014   2.290  14.364 -0.0496 -1.1310  0.3587
11216TIP3    H255064   6.051   2.167  14.282  0.4951 -0.5147 -0.3350
11217TIP3   OH255065   5.422   5.114   4.056 -0.2270  0.8319 -0.4382
11217TIP3    H155066   5.410   5.177   3.985  2.9211  2.2019  0.0559
11217TIP3    H255067   5.472   5.043   4.017 -0.6840  0.3422 -0.1498
11218TIP3   OH255068   6.623   1.424  11.225  0.1149 -0.1494 -0.5614
11218TIP3    H155069   6.629   1.492  11.157 -0.5395  0.3726 -0.1074
11218TIP3    H255070   6.621   1.473  11.307 -2.9425 -0.5360 -0.3103
11219TIP3   OH255071   5.505   4.645   1.849 -0.5502  0.3670  0.1768
11219TIP3    H155072   5.508   4.676   1.758 -0.1591  2.5103  0.8535
11219TIP3    H255073   5.453   4.712   1.895 -0.5796 -0.5736  1.5759
11220TIP3   OH255074   5.684   3.998  13.360 -0.1070 -0.3023 -0.1762
11220TIP3    H155075   5.660   4.006  13.267  1.4716  0.9732 -0.5059
11220TIP3    H255076   5.659   3.908  13.382  0.3259 -0.9555 -2.0906
11221TIP3   OH255077   4.950   4.320   1.279  0.1831 -0.0400  0.0732
11221TIP3    H155078   5.007   4.396   1.283  0.3808 -0.1856  0.0563
11221TIP3    H255079   4.960   4.277   1.364  0.8698 -0.6170 -0.2910
11222TIP3   OH255080   0.414   0.261  15.505 -0.0345  0.1778  0.2490
11222TIP3    H155081   0.416   0.307  15.421  0.5031 -2.1840 -1.1284
11222TIP3    H255082   0.322   0.241  15.520  0.0539 -1.0651 -0.7838
11223TIP3   OH255083   1.217   5.868  12.956  0.4930  1.0391  0.0171
11223TIP3    H155084   1.215   5.945  12.899 -1.5628  0.0725 -1.3422
11223TIP3    H255085   1.262   5.801  12.904 -0.1112  0.5702  0.0825
11224TIP3   OH255086   4.139   3.049  14.291  0.2016  0.0570  0.1305
11224TIP3    H155087   4.203   2.992  14.250 -0.7475 -1.0988  0.2069
11224TIP3    H255088   4.075   3.067  14.223 -0.0594  0.1862  0.4080
11225TIP3   OH255089   2.218   6.793   4.132 -0.0994  0.0788 -0.1049
11225TIP3    H155090   2.241   6.772   4.223  4.5315 -1.2722 -1.3173
11225TIP3    H255091   2.158   6.724   4.106 -0.5940 -0.1778  1.5857
11226TIP3   OH255092   1.293   5.707   1.144 -0.0982  0.1084  0.1183
11226TIP3    H155093   1.268   5.762   1.070  1.0378 -0.3449 -0.6266
11226TIP3    H255094   1.212   5.697   1.194 -0.9291  0.2920 -1.1370
11227TIP3   OH255095   6.010   3.153  12.818  0.0098  1.0208 -0.0992
11227TIP3    H155096   6.072   3.224  12.802  0.4714  0.4625 -0.8874
11227TIP3    H255097   6.060   3.073  12.801 -0.1973  0.4411  1.7845
11228TIP3   OH255098   0.491   6.001   2.807  0.1048 -0.0540 -0.1201
11228TIP3    H155099   0.524   5.912   2.815  1.0066 -0.1556 -3.3516
11228TIP3    H255100   0.566   6.051   2.772 -0.6372  1.7744  0.7616
11229TIP3   OH255101   4.047   2.655  16.759 -0.5909 -0.2827  0.0379
11229TIP3    H155102   4.042   2.667  16.665 -0.7532  1.9043  0.2675
11229TIP3    H255103   3.959   2.676  16.791  0.1189  1.6002  0.8692
11230TIP3   OH255104   3.488   4.778   3.635  0.1354  0.0118  0.3241
11230TIP3    H155105   3.580   4.757   3.621  0.6294  1.4616  1.1978
11230TIP3    H255106   3.487   4.830   3.715 -1.4940 -0.2693  0.5264
11231TIP3   OH255107   1.623   0.879  12.666  0.3071  0.1833 -0.1679
11231TIP3    H155108   1.692   0.856  12.604  3.7835  2.6508  2.3153
11231TIP3    H255109   1.582   0.957  12.629 -0.1072 -0.3914 -0.9442
11232TIP3   OH255110   6.193   0.461  11.865  0.1396 -0.3484 -0.3333
11232TIP3    H155111   6.272   0.503  11.831 -0.0537  1.5830  1.4066
11232TIP3    H255112   6.149   0.428  11.787  1.1191  1.2965 -1.6795
11233TIP3   OH255113   1.621   3.494  16.804 -0.0552  0.2022  0.6105
11233TIP3    H155114   1.530   3.464  16.806 -0.1889  0.4687 -0.4883
11233TIP3    H255115   1.664   3.435  16.742  0.4949  0.1531  1.0375
11234TIP3   OH255116   4.269   0.294   4.015 -0.0918  0.2022 -0.6575
11234TIP3    H155117   4.292   0.367   3.957  0.4894  0.6039  0.0520
11234TIP3    H255118   4.275   0.331   4.103  0.2372 -0.7101 -0.2849
11235TIP3   OH255119   6.370   6.089   0.599  0.5872  0.3315 -0.2331
11235TIP3    H155120   6.460   6.060   0.612  0.6802  0.1227 -1.2433
11235TIP3    H255121   6.376   6.160   0.535  0.0651  0.5408 -0.0620
11236TIP3   OH255122   3.139   5.786  15.630  1.1742  0.0604 -0.6724
11236TIP3    H155123   3.094   5.813  15.550  0.0548 -0.6399 -0.2886
11236TIP3    H255124   3.127   5.860  15.690  1.1943  0.1867 -0.8221
11237TIP3   OH255125   4.121   2.143  11.523 -0.4110  0.0855 -0.4416
11237TIP3    H155126   4.096   2.090  11.447  0.8130  0.8168 -1.3871
11237TIP3    H255127   4.097   2.232  11.499 -1.5137  0.1449  0.7290
11238TIP3   OH255128   0.941   6.467   6.055 -0.5217 -0.3140 -0.4810
11238TIP3    H155129   0.946   6.441   6.147  2.5410  0.8236 -0.2162
11238TIP3    H255130   0.885   6.545   6.054  0.7016  0.6064  0.6953
11239TIP3   OH255131   5.268   5.082  13.480  0.5223 -0.3091 -0.9747
11239TIP3    H155132   5.323   5.005  13.490  2.4587  1.0381 -0.5855
11239TIP3    H255133   5.293   5.139  13.552 -0.0754  1.1341 -1.8490
11240TIP3   OH255134   6.119   5.526  13.443 -0.0318  0.0345  0.8835
11240TIP3    H155135   6.211   5.503  13.458 -0.4916 -0.9049  2.5349
11240TIP3    H255136   6.122   5.612  13.402  1.6012 -0.2630  0.3329
11241TIP3   OH255137   3.008   3.684  14.819 -0.0650 -0.1372 -0.1716
11241TIP3    H155138   2.937   3.635  14.778 -0.2889  0.1009 -0.0705
11241TIP3    H255139   3.056   3.619  14.870 -0.2625 -0.2813 -0.1717
11242TIP3   OH255140   5.823   0.533  16.425  0.4629 -0.5193  0.7636
11242TIP3    H155141   5.811   0.447  16.385 -0.2316  0.3991 -1.1948
11242TIP3    H255142   5.894   0.573  16.375 -0.1301  0.5228  0.7104
11243TIP3   OH255143   5.625   2.624  17.149  0.3126  0.0978  1.3910
11243TIP3    H155144   5.661   2.541  17.119  0.1378 -0.3194  2.2944
11243TIP3    H255145   5.636   2.683  17.075 -1.4918 -1.2751 -0.0690
11244TIP3   OH255146   0.591   4.234  17.232 -0.3302  0.2033  0.1340
11244TIP3    H155147   0.573   4.141  17.243 -2.7844  0.7927  2.1741
11244TIP3    H255148   0.625   4.242  17.143  2.2051 -2.8695  0.6488
11245TIP3   OH255149   1.325   5.502   2.838  0.4242  0.0733 -0.1439
11245TIP3    H155150   1.288   5.433   2.892  1.1169 -0.1266  0.0798
11245TIP3    H255151   1.252   5.531   2.783  0.2728 -1.1888 -0.6153
11246TIP3   OH255152   0.119   2.303  14.752  0.7879 -0.1946  0.3239
11246TIP3    H155153   0.048   2.243  14.726  0.5810 -0.3231  1.1579
11246TIP3    H255154   0.131   2.359  14.675 -1.2026  0.7743  0.6508
11247TIP3   OH255155   4.463   6.637   5.379  0.2597 -0.4103  0.2650
11247TIP3    H155156   4.449   6.660   5.471 -0.0951  2.7424 -0.4337
11247TIP3    H255157   4.377   6.611   5.348  0.0315  0.0505  0.4915
11248TIP3   OH255158   4.305   3.562  11.941  0.0958 -0.7047 -0.4730
11248TIP3    H155159   4.333   3.482  11.985  1.4759 -0.3474 -0.6507
11248TIP3    H255160   4.363   3.569  11.866 -0.6495 -0.0345 -1.0015
11249TIP3   OH255161   1.201   1.754  12.045  0.0537 -0.0173 -0.5418
11249TIP3    H155162   1.264   1.788  11.982  1.8885 -2.2300 -0.0287
11249TIP3    H255163   1.239   1.773  12.131 -0.3762 -0.6654 -0.1971
11250TIP3   OH255164   2.034   0.840  16.099 -0.2392 -0.0701 -0.2967
11250TIP3    H155165   2.079   0.780  16.159 -0.3653 -2.3155 -2.2905
11250TIP3    H255166   2.018   0.918  16.151  0.9227 -1.3375  2.1461
11251TIP3   OH255167   1.361   1.382  13.876 -0.6881  0.0923  0.0335
11251TIP3    H155168   1.319   1.416  13.797 -0.4340 -1.6062 -0.8641
11251TIP3    H255169   1.403   1.459  13.916  0.1107  0.7952 -2.0458
11252TIP3   OH255170   2.022   0.730   0.880 -0.2698 -0.5908 -0.3221
11252TIP3    H155171   1.988   0.794   0.819 -0.5216 -1.7869 -1.4798
11252TIP3    H255172   2.086   0.680   0.830  2.4247  0.8119  1.4534
11253TIP3   OH255173   1.464   2.717   4.989  0.5644  0.0043 -0.1860
11253TIP3    H155174   1.478   2.653   5.058  2.0889 -0.1481 -0.6117
11253TIP3    H255175   1.496   2.674   4.910  1.1105  1.0856 -0.5661
11254TIP3   OH255176   1.257   5.299   1.587 -0.3837 -0.1804  0.2616
11254TIP3    H155177   1.270   5.205   1.574 -0.4512 -0.4861  2.1077
11254TIP3    H255178   1.329   5.326   1.645 -0.4505  0.8695 -0.1247
11255TIP3   OH255179   0.241   0.801   0.630  0.6666  0.5169  0.1344
11255TIP3    H155180   0.262   0.709   0.617 -1.2392 -0.2131  1.7730
11255TIP3    H255181   0.261   0.818   0.722 -1.9308  0.8048  0.7378
11256TIP3   OH255182   5.221   6.146  11.810  0.4219 -0.3787 -0.1248
11256TIP3    H155183   5.162   6.187  11.747  1.3542 -0.0751 -0.8233
11256TIP3    H255184   5.181   6.061  11.828 -1.1164  0.4911  0.7392
11257TIP3   OH255185   0.978   5.519  14.599  0.3490  0.3539 -0.5219
11257TIP3    H155186   1.068   5.547  14.614  0.5093  0.1102 -1.0103
11257TIP3    H255187   0.985   5.449  14.534  0.0311 -1.3377  1.1669
11258TIP3   OH255188   1.000   4.408   1.887 -0.0615  0.1634 -0.1947
11258TIP3    H155189   1.062   4.397   1.814  0.3869  3.1247 -0.4156
11258TIP3    H255190   0.920   4.439   1.845 -0.2196  0.6464  0.4588
11259TIP3   OH255191   2.736   1.664   3.367 -0.4790  0.7352 -0.2289
11259TIP3    H155192   2.749   1.725   3.440  0.3817  2.0961 -1.4642
11259TIP3    H255193   2.641   1.666   3.351 -0.7225  0.1929  0.9974
11260TIP3   OH255194   1.698   2.072   5.580 -0.1250 -0.2982 -0.0440
11260TIP3    H155195   1.722   2.092   5.489 -0.3961  1.0087  0.1462
11260TIP3    H255196   1.606   2.046   5.574 -0.0429 -0.5647 -0.1811
11261TIP3   OH255197   2.168   0.825   6.230  0.0320 -0.1058 -0.5798
11261TIP3    H155198   2.172   0.908   6.183  3.9736  0.1813 -0.1061
11261TIP3    H255199   2.244   0.827   6.289 -0.5926 -3.4228  0.5723
11262TIP3   OH255200   2.999   2.655  13.530  0.0385 -0.2525 -0.2228
11262TIP3    H155201   2.938   2.582  13.522 -0.1088 -0.2761  0.9528
11262TIP3    H255202   2.944   2.731  13.549  0.2519  0.0295 -0.7158
11263TIP3   OH255203   6.322   5.820   0.391 -0.6281 -0.7527  0.3502
11263TIP3    H155204   6.367   5.747   0.434  4.3093  1.5468 -0.2565
11263TIP3    H255205   6.344   5.809   0.298 -1.5175  0.4288 -0.0116
11264TIP3   OH255206   2.297   1.059   2.157  0.0010 -0.0408 -0.4247
11264TIP3    H155207   2.273   1.012   2.238 -0.1116  1.6222  0.5512
11264TIP3    H255208   2.253   1.143   2.164  1.6401  0.9397 -1.2480
11265TIP3   OH255209   0.741   5.879   0.433  0.1642 -0.6821 -0.3830
11265TIP3    H155210   0.730   5.800   0.379  2.6010 -0.6961 -0.9663
11265TIP3    H255211   0.768   5.947   0.372 -1.0230  0.4151  0.2598
11266TIP3   OH255212   6.761   5.853   4.813  0.1873 -0.5936 -0.0426
11266TIP3    H155213   6.756   5.769   4.860  1.5812  0.0603  1.3494
11266TIP3    H255214   6.847   5.888   4.835  0.6429  0.1043 -2.5898
11267TIP3   OH255215   1.210   0.859   1.555 -0.2693 -0.0270  0.3575
11267TIP3    H155216   1.169   0.837   1.472 -0.1888  1.1106 -0.0055
11267TIP3    H255217   1.248   0.946   1.541 -0.4622  0.2963  1.6526
11268TIP3   OH255218   4.866   4.828   6.192  0.2429 -0.3064 -0.5685
11268TIP3    H155219   4.900   4.739   6.181 -1.4901 -1.5945  3.0018
11268TIP3    H255220   4.816   4.845   6.112  3.2906 -1.0846 -2.8084
11269TIP3   OH255221   2.861   0.136  11.767  0.4448 -0.2561  0.0565
11269TIP3    H155222   2.937   0.179  11.727  0.5130 -0.7815 -0.3840
11269TIP3    H255223   2.820   0.089  11.695 -1.0966  1.1211 -0.0264
11270TIP3   OH255224   5.120   5.696  14.755  0.0897 -0.5358  0.3064
11270TIP3    H155225   5.184   5.630  14.782  0.6315  0.4896  1.6596
11270TIP3    H255226   5.118   5.759  14.827  1.3267  2.2013 -1.8451
11271TIP3   OH255227   6.448   0.385  13.793 -0.1619  0.9326 -0.5141
11271TIP3    H155228   6.380   0.361  13.731  0.3292  1.9617 -1.4817
11271TIP3    H255229   6.501   0.306  13.803 -1.3629  0.1798  0.1040
11272TIP3   OH255230   6.297   6.434  13.753 -0.8811 -0.0177  0.1611
11272TIP3    H155231   6.361   6.497  13.722  1.0165 -0.2537  3.1211
11272TIP3    H255232   6.212   6.469  13.726  0.0490  3.8665  1.6151
11273TIP3   OH255233   2.204   2.682   0.608  0.8020  0.0196  0.1265
11273TIP3    H155234   2.150   2.652   0.681  0.6508  1.2408  0.5388
11273TIP3    H255235   2.253   2.604   0.582 -0.2608 -0.8249  0.5186
11274TIP3   OH255236   0.540   1.460  13.933 -0.1002  0.3465 -0.1172
11274TIP3    H155237   0.493   1.377  13.935  0.2488  0.1037 -1.2482
11274TIP3    H255238   0.598   1.457  14.009 -1.0896  0.1711  0.6547
11275TIP3   OH255239   5.374   0.851  16.413  0.0867  0.0898 -0.1781
11275TIP3    H155240   5.450   0.902  16.385 -0.0080 -0.5126 -1.5887
11275TIP3    H255241   5.383   0.845  16.508  0.6225  1.8852 -0.0842
11276TIP3   OH255242   6.039   4.983  11.522 -0.4623  0.1579  0.0942
11276TIP3    H155243   6.003   5.003  11.436  1.0839  0.4142 -0.5366
11276TIP3    H255244   6.056   4.889  11.520  1.1798  0.4373 -0.5663
11277TIP3   OH255245   1.829   4.386  15.658  0.5517  0.5981  0.0972
11277TIP3    H155246   1.905   4.346  15.617  0.3699  0.4424 -0.0889
11277TIP3    H255247   1.855   4.476  15.675  1.1161  0.2958  0.9059
11278TIP3   OH255248   0.347   2.500  11.904  0.7071  0.1091  0.4511
11278TIP3    H155249   0.360   2.506  11.810 -0.2747  0.6041  0.3449
11278TIP3    H255250   0.293   2.576  11.927 -0.7543 -1.0807  1.1056
11279TIP3   OH255251   3.209   1.492   3.508 -0.9212  0.5641 -1.2599
11279TIP3    H155252   3.125   1.527   3.538 -0.4993  1.2375 -0.8239
11279TIP3    H255253   3.227   1.539   3.427  0.1502  2.2313 -0.1418
11280TIP3   OH255254   3.328   2.513   0.436 -0.2813 -0.0671  0.3990
11280TIP3    H155255   3.313   2.504   0.342  0.9334  1.2193  0.0404
11280TIP3    H255256   3.305   2.605   0.455  2.3027  0.5741  0.7259
11281TIP3   OH255257   1.487   1.823  14.136 -0.2761  0.4344  0.2527
11281TIP3    H155258   1.457   1.903  14.179  1.3048  0.7271  0.8707
11281TIP3    H255259   1.417   1.802  14.074 -1.3941  1.4631  1.1127
11282TIP3   OH255260   3.655   0.773   6.279 -0.3324  0.0201 -0.0663
11282TIP3    H155261   3.686   0.863   6.282 -1.5353  0.4838 -0.7380
11282TIP3    H255262   3.597   0.764   6.355 -0.9615  0.1233 -0.5221
11283TIP3   OH255263   5.169   6.043  12.496  0.6975 -0.9819  0.4555
11283TIP3    H155264   5.086   6.010  12.461 -0.6986  1.5187  1.2112
11283TIP3    H255265   5.212   6.085  12.422 -0.0205  0.1351  0.6636
11284TIP3   OH255266   0.487   5.855   5.287 -0.1344 -0.0303 -0.0433
11284TIP3    H155267   0.573   5.825   5.260  0.0852  0.8885 -0.4046
11284TIP3    H255268   0.498   5.882   5.378 -0.3814 -1.1886  0.3483
11285TIP3   OH255269   2.681   5.709   4.038  0.0855 -0.1215 -0.3225
11285TIP3    H155270   2.726   5.756   4.108 -1.9730  0.6235  0.5580
11285TIP3    H255271   2.651   5.778   3.978  0.5211 -0.6467 -1.1708
11286TIP3   OH255272   1.819   5.114  13.985  0.1071 -0.3339 -0.1092
11286TIP3    H155273   1.871   5.058  14.043 -1.3071 -1.3590  0.2052
11286TIP3    H255274   1.836   5.203  14.017 -1.4093 -0.9300  2.5858
11287TIP3   OH255275   4.749   3.985  11.649 -0.2733  0.0317 -0.0405
11287TIP3    H155276   4.709   4.065  11.683  1.2088  0.1443  1.5578
11287TIP3    H255277   4.771   4.005  11.558  1.0608  1.8586  0.6328
11288TIP3   OH255278   6.661   6.479  12.972 -0.0619  0.3728 -0.3084
11288TIP3    H155279   6.708   6.545  12.922 -0.8115  1.9952  1.0207
11288TIP3    H255280   6.572   6.480  12.937 -0.6057  1.5568  0.9997
11289TIP3   OH255281   0.028   2.086  10.772 -0.2199 -0.1203 -0.4976
11289TIP3    H155282  -0.038   2.125  10.715  0.3508  0.6030 -0.6814
11289TIP3    H255283   0.056   2.158  10.828 -1.7274 -1.1105  1.6434
11290TIP3   OH255284   0.738   2.450   4.896 -0.2735 -0.8159 -0.4232
11290TIP3    H155285   0.738   2.509   4.971 -0.0199  1.2223 -1.9535
11290TIP3    H255286   0.772   2.367   4.931 -1.2791 -0.3039  1.9401
11291TIP3   OH255287   5.244   4.979  16.504  0.0776 -0.6093 -0.2630
11291TIP3    H155288   5.330   4.974  16.462 -0.6037 -1.3349 -1.6401
11291TIP3    H255289   5.260   4.956  16.596  1.1720 -1.9606 -0.7600
11292TIP3   OH255290   0.381   1.686   6.173  0.5087  0.8315 -0.1536
11292TIP3    H155291   0.366   1.635   6.252  0.3243  1.0981 -0.0174
11292TIP3    H255292   0.425   1.625   6.113  2.1145  1.0832  0.7186
11293TIP3   OH255293   6.463   4.780   2.271 -0.7452 -0.4175 -0.2251
11293TIP3    H155294   6.445   4.871   2.294 -0.8958 -0.1478 -1.3575
11293TIP3    H255295   6.524   4.786   2.198  0.4393 -1.2600  0.6661
11294TIP3   OH255296   4.292   0.140   1.547  0.2092  0.4378 -0.1110
11294TIP3    H155297   4.247   0.057   1.564 -0.6242  1.3868  2.8154
11294TIP3    H255298   4.234   0.207   1.583  1.0530  2.3139 -2.0367
11295TIP3   OH255299   2.496   3.717  12.236  0.1001  0.5744 -0.2470
11295TIP3    H155300   2.505   3.812  12.233  0.2658  0.5587 -0.2664
11295TIP3    H255301   2.585   3.685  12.252 -0.0205  0.4416  0.1658
11296TIP3   OH255302   5.725   3.451   4.200 -0.5099 -0.3411  0.2754
11296TIP3    H155303   5.731   3.363   4.163  1.7541 -0.0902 -0.1325
11296TIP3    H255304   5.778   3.447   4.280  3.6432  1.6241 -2.0503
11297TIP3   OH255305   3.794   1.420  13.054  0.0384 -0.1206 -0.2151
11297TIP3    H155306   3.856   1.446  12.986 -1.5699  0.2702 -1.6160
11297TIP3    H255307   3.811   1.327  13.068  1.1945  0.0699 -0.2649
11298TIP3   OH255308   6.638   2.686  16.281  0.3920 -1.2526 -0.6014
11298TIP3    H155309   6.545   2.681  16.304  0.4929 -1.6236 -0.2559
11298TIP3    H255310   6.672   2.598  16.300  0.7714 -1.1745 -0.9073
11299TIP3   OH255311   2.999   0.375  12.476 -0.5869 -0.0322  0.1201
11299TIP3    H155312   3.052   0.317  12.421  2.0846 -0.0969  2.5370
11299TIP3    H255313   2.931   0.408  12.417  2.2650  0.2494 -3.3325
11300TIP3   OH255314   3.306   0.543  12.186 -0.3196 -0.4754  0.4895
11300TIP3    H155315   3.235   0.557  12.123  1.2032 -0.1322 -1.2170
11300TIP3    H255316   3.292   0.611  12.253 -1.3746 -0.1874 -0.0029
11301TIP3   OH255317   5.137   4.688  13.339  0.5612  0.0117  0.6467
11301TIP3    H155318   5.124   4.717  13.249 -1.1370 -2.8028 -0.1478
11301TIP3    H255319   5.232   4.691  13.352  1.0506 -1.2091 -1.9334
11302TIP3   OH255320   1.104   2.987  10.838  0.0836 -0.2161  0.4350
11302TIP3    H155321   1.038   3.040  10.793 -0.2434 -1.0236 -0.0611
11302TIP3    H255322   1.133   2.923  10.772  1.1185 -0.0917  0.7451
11303TIP3   OH255323   3.649   4.364  12.375 -0.2789  0.1278 -0.0378
11303TIP3    H155324   3.683   4.299  12.313 -0.4009  0.2710 -0.2596
11303TIP3    H255325   3.610   4.432  12.319  1.5475  1.3632  0.1029
11304TIP3   OH255326   6.095   4.898   4.323 -0.2529 -0.1044 -0.5460
11304TIP3    H155327   6.036   4.965   4.358 -0.1035  0.3264 -1.0980
11304TIP3    H255328   6.137   4.940   4.247  1.0231 -0.2765  0.0300
11305TIP3   OH255329   5.684   0.983  15.054  0.5525  0.5371 -0.0363
11305TIP3    H155330   5.758   0.973  15.114  0.6725  1.0906 -0.0859
11305TIP3    H255331   5.607   0.968  15.109  0.6798  0.5288  0.1401
11306TIP3   OH255332   1.790   5.735   5.041  0.3265  0.2936 -0.5953
11306TIP3    H155333   1.731   5.809   5.028  0.2782  0.1836 -1.0195
11306TIP3    H255334   1.739   5.658   5.017 -0.2019 -0.0701  1.5177
11307TIP3   OH255335   6.231   2.974  14.110 -0.2104 -0.2369  0.4748
11307TIP3    H155336   6.184   3.042  14.158  0.7409  0.0486  1.0454
11307TIP3    H255337   6.272   2.921  14.179 -1.7800 -2.0463  0.0947
11308TIP3   OH255338   6.509   0.100  17.117 -0.0843  0.3165 -0.0211
11308TIP3    H155339   6.595   0.126  17.083  0.8553 -0.2616  1.7677
11308TIP3    H255340   6.515   0.005  17.125 -0.7292  0.3177  0.5621
11309TIP3   OH255341   0.328   2.544  13.866  0.1141  0.9801 -0.1367
11309TIP3    H155342   0.310   2.494  13.786 -0.2568  1.3829 -0.3082
11309TIP3    H255343   0.358   2.630  13.834  1.0853  0.7619  0.1506
11310TIP3   OH255344   2.641   6.299  16.701  0.2087 -0.2644 -0.1385
11310TIP3    H155345   2.709   6.366  16.707  0.8362 -0.9603  0.9354
11310TIP3    H255346   2.608   6.290  16.791  0.0092 -1.2466 -0.2964
11311TIP3   OH255347   0.592   1.347  12.831 -0.4828 -0.0366 -0.3929
11311TIP3    H155348   0.617   1.440  12.829  1.5323 -0.3835  2.2050
11311TIP3    H255349   0.530   1.341  12.904  0.2590 -0.8445  0.1968
11312TIP3   OH255350   0.697   1.343   5.646  0.3625 -0.1168 -0.0228
11312TIP3    H155351   0.681   1.250   5.662 -0.6417  0.1779  0.7713
11312TIP3    H255352   0.616   1.375   5.607  1.3148  0.0830 -1.9384
11313TIP3   OH255353   5.621   3.188  13.697  0.2854 -0.2150  0.4486
11313TIP3    H155354   5.632   3.111  13.752 -1.4211  0.4867  1.8916
11313TIP3    H255355   5.704   3.234  13.703  0.4430 -0.6140  1.7830
11314TIP3   OH255356   6.016   1.597   2.457 -0.6955 -0.1420 -0.3552
11314TIP3    H155357   5.966   1.667   2.416 -1.2711 -0.2954  0.0775
11314TIP3    H255358   6.054   1.549   2.383 -1.3886 -0.1725 -0.6979
11315TIP3   OH255359   4.303   1.103   3.250 -0.0198  0.2322  0.0163
11315TIP3    H155360   4.386   1.066   3.222 -0.1037 -0.3743  0.5460
11315TIP3    H255361   4.313   1.118   3.344  0.5198  2.9316 -0.3881
11316TIP3   OH255362   2.670   0.095  13.560 -0.3238  0.3618 -0.1740
11316TIP3    H155363   2.662   0.050  13.644 -0.3705 -0.4061 -0.5834
11316TIP3    H255364   2.580   0.117  13.536 -0.2945  0.7447  0.0617
11317TIP3   OH255365   6.366   1.808   4.689 -0.1792 -0.3364 -0.0373
11317TIP3    H155366   6.390   1.717   4.704  2.0966 -0.0496 -1.4663
11317TIP3    H255367   6.330   1.809   4.601 -0.3994  0.1186  0.0549
11318TIP3   OH255368   5.962   4.807   2.664 -0.1199 -0.1643 -0.0039
11318TIP3    H155369   5.931   4.756   2.588 -1.9292  0.1177  0.4834
11318TIP3    H255370   6.012   4.744   2.716  0.1124 -0.6773 -0.8257
11319TIP3   OH255371   6.327   3.052  15.008 -0.1669 -0.4653  0.1248
11319TIP3    H155372   6.274   3.124  15.042 -3.8347 -3.0679  0.5385
11319TIP3    H255373   6.341   2.994  15.083 -0.0605 -1.6969 -0.8097
11320TIP3   OH255374   6.045   2.744   1.662  0.3217  0.5168  0.0970
11320TIP3    H155375   5.988   2.734   1.586 -1.2682  1.0446  1.1750
11320TIP3    H255376   6.023   2.830   1.698  1.0530  0.2950  1.1502
11321TIP3   OH255377   4.356   1.712  15.046  0.3600 -0.1680  0.6791
11321TIP3    H155378   4.297   1.641  15.071  0.8332 -0.6551  0.4257
11321TIP3    H255379   4.409   1.727  15.125 -0.6846  0.8798  1.2094
11322TIP3   OH255380   5.050   3.963   3.719 -0.1485 -0.7230  0.0241
11322TIP3    H155381   5.054   3.880   3.671 -1.4132 -0.2940 -0.8548
11322TIP3    H255382   5.052   4.030   3.652 -0.4739 -0.0644  0.6594
11323TIP3   OH255383   3.564   0.517   4.578 -0.3224  0.1235 -0.0472
11323TIP3    H155384   3.567   0.506   4.483 -0.4814 -0.2925 -0.0078
11323TIP3    H255385   3.622   0.591   4.596  1.8636 -1.4525 -0.2105
11324TIP3   OH255386   5.222   0.407  16.522 -0.5367 -0.0655 -0.7247
11324TIP3    H155387   5.223   0.439  16.432 -1.3758  0.3588 -0.5985
11324TIP3    H255388   5.168   0.470  16.569 -0.2446 -0.3745  0.0441
11325TIP3   OH255389   4.560   3.565   1.055  0.3453  0.0383 -0.1938
11325TIP3    H155390   4.642   3.535   1.094  0.4719 -0.3680 -0.7524
11325TIP3    H255391   4.580   3.652   1.020  0.3933  0.1569  0.1290
11326TIP3   OH255392   2.245   5.577  13.709 -0.4736  0.2444  0.3469
11326TIP3    H155393   2.298   5.509  13.668 -0.3464 -0.2852  1.3529
11326TIP3    H255394   2.219   5.634  13.637 -1.0860 -1.2027 -0.6117
11327TIP3   OH255395   6.297   3.294  16.245 -0.5647  0.8911 -0.2434
11327TIP3    H155396   6.391   3.307  16.259 -0.2696 -1.0965 -0.0226
11327TIP3    H255397   6.255   3.356  16.304  0.6193  0.9501  0.5774
11328TIP3   OH255398   1.726   1.978  14.279  0.1629  0.3740  0.2000
11328TIP3    H155399   1.694   1.889  14.294  0.3841  0.2448 -0.0881
11328TIP3    H255400   1.679   2.031  14.342  0.9203 -0.1242  1.2191
11329TIP3   OH255401   5.006   4.424  10.790  0.1186 -0.1647 -0.0913
11329TIP3    H155402   4.988   4.374  10.870  1.1096  0.5967  0.6429
11329TIP3    H255403   4.930   4.480  10.779 -0.9824 -1.7359 -0.8885
11330TIP3   OH255404   5.513   0.267   3.434  0.3193  0.0283 -0.0973
11330TIP3    H155405   5.528   0.361   3.423  1.1128 -0.3425 -2.8429
11330TIP3    H255406   5.455   0.243   3.361  1.1910 -1.8411 -0.2277
11331TIP3   OH255407   3.700   5.965  15.649 -0.7282  0.6529 -0.2126
11331TIP3    H155408   3.666   5.876  15.638 -1.4728  1.1496 -2.3694
11331TIP3    H255409   3.750   5.982  15.569  1.8658  1.2015  1.3787
11332TIP3   OH255410   6.536   6.120  13.282 -0.1420 -0.5677 -0.2455
11332TIP3    H155411   6.617   6.166  13.304 -1.4891  1.2365  1.3021
11332TIP3    H255412   6.480   6.187  13.243 -1.7205 -1.1376  0.9066
11333TIP3   OH255413   6.680   0.304  14.586  0.5540 -0.5265 -0.7039
11333TIP3    H155414   6.678   0.225  14.532  2.7332 -1.1648  0.0392
11333TIP3    H255415   6.721   0.370  14.530  3.2093 -1.3031  0.1821
11334TIP3   OH255416   4.869   4.386  15.224  0.1513 -0.3442 -0.6693
11334TIP3    H155417   4.814   4.341  15.288  0.4449  0.7063  0.3412
11334TIP3    H255418   4.897   4.316  15.164  0.8441 -1.5880  1.0049
11335TIP3   OH255419   5.477   1.770  16.629 -0.2386 -0.4789  0.1635
11335TIP3    H155420   5.520   1.738  16.708  0.2318  1.2925  0.6692
11335TIP3    H255421   5.545   1.767  16.561 -0.3547 -1.0411  0.0665
11336TIP3   OH255422   5.361   6.557   5.938  0.1802  0.2322 -0.3549
11336TIP3    H155423   5.316   6.609   6.004 -0.4354 -1.4280  0.6009
11336TIP3    H255424   5.291   6.519   5.886  0.6587  1.4113 -1.9405
11337TIP3   OH255425   1.925   5.493  11.336 -0.3620 -0.2340  0.5824
11337TIP3    H155426   1.933   5.433  11.262  1.4958 -0.5726  1.0042
11337TIP3    H255427   1.901   5.437  11.410 -2.0214  0.0765  0.3248
11338TIP3   OH255428   3.630   2.014   5.052  0.0357 -0.3067  0.2793
11338TIP3    H155429   3.619   2.096   5.004 -0.7197 -0.9058 -0.6062
11338TIP3    H255430   3.551   1.964   5.030  1.1210 -1.8127 -0.2693
11339TIP3   OH255431   2.420   2.922   5.536  0.5803  0.0117  0.1827
11339TIP3    H155432   2.421   2.830   5.566  0.4562 -1.7534 -4.4608
11339TIP3    H255433   2.509   2.937   5.504  0.4468  1.4009  0.4088
11340TIP3   OH255434   4.314   4.918  14.829  0.1454  0.0267  0.4649
11340TIP3    H155435   4.382   4.907  14.896 -0.8209 -1.8875  1.1950
11340TIP3    H255436   4.240   4.866  14.860 -1.5276  1.6649 -0.5402
11341TIP3   OH255437   4.381   4.964  14.117 -0.1153 -0.2933  0.0142
11341TIP3    H155438   4.301   5.015  14.127  0.6576  1.0319 -0.2868
11341TIP3    H255439   4.358   4.876  14.147 -1.0897  0.5855  2.0268
11342TIP3   OH255440   2.908   0.610  11.626  0.0433  0.8018  0.0901
11342TIP3    H155441   2.892   0.637  11.535  1.7237 -0.2867 -0.5794
11342TIP3    H255442   2.946   0.522  11.618  1.9497  1.4032  1.7187
11343TIP3   OH255443   4.404   5.071   5.646 -0.2825 -0.3921 -0.1225
11343TIP3    H155444   4.359   5.145   5.604  0.4270  0.3407  0.3823
11343TIP3    H255445   4.497   5.094   5.641  0.0045 -1.5881 -0.5873
11344TIP3   OH255446   5.960   2.290  11.578 -0.0515  0.0723 -0.4170
11344TIP3    H155447   5.949   2.256  11.667 -1.4859 -0.2457 -0.7042
11344TIP3    H255448   5.885   2.257  11.529  0.7207  0.2295 -1.7687
11345TIP3   OH255449   5.340   2.373  15.154  0.2618 -0.2055 -0.1329
11345TIP3    H155450   5.312   2.307  15.218  2.4512 -0.5444  0.5351
11345TIP3    H255451   5.364   2.449  15.207 -1.2453  0.8151 -0.8315
11346TIP3   OH255452   1.246   6.020  12.727  0.2436 -0.2270 -0.0050
11346TIP3    H155453   1.201   5.947  12.685  0.1823  0.0921 -0.5029
11346TIP3    H255454   1.338   5.997  12.725  0.0268 -1.7125  2.5939
11347TIP3   OH255455   3.991   1.266  14.560 -0.4983  0.4435 -0.0462
11347TIP3    H155456   4.076   1.308  14.544  0.0307 -1.2954 -2.4460
11347TIP3    H255457   3.928   1.319  14.511 -0.6304  1.0473  0.7553
11348TIP3   OH255458   2.012   5.317   5.036  0.9671  0.0796 -0.2655
11348TIP3    H155459   1.981   5.325   4.946 -0.3348 -2.9222 -0.1996
11348TIP3    H255460   1.933   5.327   5.089  1.0779 -1.7471  0.2846
11349TIP3   OH255461   4.115   5.202   5.247 -0.0078  0.3288 -0.4155
11349TIP3    H155462   4.087   5.283   5.290 -0.2854  0.3351 -0.6032
11349TIP3    H255463   4.210   5.212   5.236  0.6039 -0.9054  2.8251
11350TIP3   OH255464   3.206   5.830  12.409  0.1771  0.3015 -0.7591
11350TIP3    H155465   3.299   5.846  12.393  0.5683  2.4492  2.7282
11350TIP3    H255466   3.161   5.902  12.366  0.1876 -0.2350 -1.6809
11351TIP3   OH255467   6.790   3.876  11.751 -0.3063 -0.0006  0.3794
11351TIP3    H155468   6.737   3.871  11.671 -0.5318  0.1229  0.5194
11351TIP3    H255469   6.773   3.793  11.796 -0.8670  0.2927  0.7223
11352TIP3   OH255470   0.389   3.675   4.360  0.4347  0.7090  0.3001
11352TIP3    H155471   0.395   3.642   4.270 -0.0332 -1.3163  0.9549
11352TIP3    H255472   0.470   3.645   4.401  0.8201  1.9527  0.4764
11353TIP3   OH255473   5.183   6.672  13.916  0.5308  0.4637  0.3545
11353TIP3    H155474   5.274   6.699  13.926  0.6729  0.0253  0.2567
11353TIP3    H255475   5.170   6.664  13.821  0.5566 -0.0398  0.3936
11354TIP3   OH255476   5.708   0.942  12.261  0.1479 -0.1990 -0.1363
11354TIP3    H155477   5.644   1.006  12.292  1.7011  1.1189  0.4796
11354TIP3    H255478   5.737   0.977  12.176  1.9494  0.6665  0.7892
11355TIP3   OH255479   5.045   5.690  12.236  0.0580 -0.3042 -0.0386
11355TIP3    H155480   4.954   5.714  12.225 -0.2597 -1.6267 -0.5628
11355TIP3    H255481   5.044   5.622  12.303  0.7050 -0.0531  0.2361
11356TIP3   OH255482   4.084   5.138   0.148  0.1508 -0.4385  0.6384
11356TIP3    H155483   4.113   5.136   0.239 -1.7860  0.2344  1.3127
11356TIP3    H255484   3.989   5.149   0.153  0.2242  1.9544 -1.4704
11357TIP3   OH255485   2.392   0.491  13.749 -0.2888  0.2889  0.4616
11357TIP3    H155486   2.428   0.578  13.770  0.9630  0.1346 -0.9199
11357TIP3    H255487   2.466   0.432  13.757 -1.2536 -0.8026  1.9529
11358TIP3   OH255488   6.627   5.021  11.566 -0.1603  0.0409 -0.3461
11358TIP3    H155489   6.715   5.008  11.531 -0.1718 -2.5854  0.4239
11358TIP3    H255490   6.641   5.057  11.654  0.0820  0.4515 -0.5466
11359TIP3   OH255491   1.196   0.506   1.639 -0.0275 -0.6807 -0.4758
11359TIP3    H155492   1.211   0.550   1.554 -1.3006  1.1485  0.1809
11359TIP3    H255493   1.110   0.466   1.630 -0.2795 -0.2594  0.0141
11360TIP3   OH255494   2.311   3.624   3.823  0.3448 -0.7340  0.4086
11360TIP3    H155495   2.403   3.598   3.824  1.2891  1.9630 -2.3579
11360TIP3    H255496   2.277   3.588   3.741 -0.4630  0.0787  0.3757
11361TIP3   OH255497   1.462   3.542  14.906  0.0706 -0.3736  0.3439
11361TIP3    H155498   1.516   3.533  14.985  1.5767  0.3820 -0.5503
11361TIP3    H255499   1.472   3.459  14.860  0.8730 -0.0691 -0.0453
11362TIP3   OH255500   0.627   4.393  11.722 -0.6170  0.0921 -0.1650
11362TIP3    H155501   0.689   4.321  11.712 -0.3651  0.3965 -0.8374
11362TIP3    H255502   0.681   4.468  11.747 -1.0392 -0.2587  1.9268
11363TIP3   OH255503   3.001   0.698  13.660 -0.3033 -0.0007 -0.2710
11363TIP3    H155504   2.923   0.655  13.625 -1.5642  1.0171  1.1588
11363TIP3    H255505   3.002   0.673  13.752  0.6788  0.5827 -0.1148
11364TIP3   OH255506   1.370   1.841  15.241 -0.0984 -0.1976  0.5178
11364TIP3    H155507   1.381   1.750  15.214 -0.2982 -0.4458  1.2590
11364TIP3    H255508   1.276   1.855  15.244 -0.1172  0.7733 -1.9576
11365TIP3   OH255509   1.541   1.121  12.054  0.1198 -0.6193  0.5223
11365TIP3    H155510   1.603   1.143  12.124 -0.7462 -0.1003  1.1501
11365TIP3    H255511   1.577   1.042  12.013  2.8177  1.3076 -1.1476
11366TIP3   OH255512   5.935   3.465  13.951 -0.1359 -0.3713  0.3730
11366TIP3    H155513   5.900   3.405  13.885  1.6128 -2.1199  0.9255
11366TIP3    H255514   6.023   3.431  13.971  0.9814  2.4092  0.7345
11367TIP3   OH255515   2.203   1.906   0.697  0.7650  0.1517 -0.2231
11367TIP3    H155516   2.244   1.920   0.782  0.1370 -0.1741  0.1452
11367TIP3    H255517   2.243   1.972   0.639  0.4982  1.0291  0.5611
11368TIP3   OH255518   2.403   1.193  13.883  0.4324  0.1677 -0.2278
11368TIP3    H155519   2.447   1.148  13.811  1.4054  1.0855 -0.2457
11368TIP3    H255520   2.350   1.260  13.840 -1.4723 -1.2604 -0.2383
11369TIP3   OH255521   1.619   6.754  10.438  0.3960  0.2690  0.3416
11369TIP3    H155522   1.619   6.829  10.379 -0.8644  0.8579  1.0435
11369TIP3    H255523   1.609   6.678  10.381  1.8758  0.5920 -0.3938
11370TIP3   OH255524   1.008   2.255  11.469 -0.1233  0.1226  0.5211
11370TIP3    H155525   0.925   2.209  11.454 -1.0246  1.4283  1.3265
11370TIP3    H255526   1.056   2.243  11.387 -1.1742 -0.5100 -0.0386
11371TIP3   OH255527   1.882   0.338  13.104 -0.1886  0.8345  0.3854
11371TIP3    H155528   1.793   0.347  13.069 -0.5433 -1.5993  0.4790
11371TIP3    H255529   1.887   0.405  13.173 -1.9721  0.9728  0.4298
11372TIP3   OH255530   1.502   6.217   2.383 -0.2033 -0.5094 -0.2530
11372TIP3    H155531   1.509   6.309   2.409  0.1607 -0.5917 -0.0599
11372TIP3    H255532   1.415   6.210   2.345 -0.9143 -0.4680  1.2880
11373TIP3   OH255533   2.829   1.151   3.397  0.3467  0.0729 -0.0508
11373TIP3    H155534   2.924   1.149   3.393  0.3517 -1.9406  0.2383
11373TIP3    H255535   2.801   1.066   3.362 -1.2854  0.0099  1.2742
11374TIP3   OH255536   0.858   5.899   2.554  0.1085 -0.6578  0.1198
11374TIP3    H155537   0.918   5.831   2.584  0.5062 -1.0701 -1.5251
11374TIP3    H255538   0.914   5.967   2.517 -0.0699  1.9227  4.0064
11375TIP3   OH255539   4.080   1.225   0.704  0.0607  0.8868 -0.9127
11375TIP3    H155540   4.001   1.256   0.748  0.0769  0.8524 -0.8592
11375TIP3    H255541   4.136   1.303   0.698 -0.4543  1.1818 -2.0049
11376TIP3   OH255542   4.943   4.810   5.410 -0.0380  0.0401  0.5642
11376TIP3    H155543   4.905   4.786   5.325  0.5717 -2.2227  0.8439
11376TIP3    H255544   4.870   4.846   5.460 -0.2747  2.0067 -1.0859
11377TIP3   OH255545   1.253   0.837  16.066  0.3092 -0.0773  0.1827
11377TIP3    H155546   1.224   0.928  16.061 -3.1613 -1.0454  0.0466
11377TIP3    H255547   1.267   0.821  16.160 -2.7279 -0.2884  0.6880
11378TIP3   OH255548   1.256   0.926   5.275  0.0856  0.0653 -0.2756
11378TIP3    H155549   1.229   0.847   5.229 -1.5442  0.6224 -0.3223
11378TIP3    H255550   1.203   0.928   5.355 -0.0898  1.2406 -0.3963
11379TIP3   OH255551   2.429   1.211  12.512 -0.4623 -0.0206 -0.1781
11379TIP3    H155552   2.520   1.230  12.535 -0.1706 -0.9659 -0.5082
11379TIP3    H255553   2.414   1.122  12.543 -0.8815 -0.3361 -1.2431
11380TIP3   OH255554   5.078   4.752   3.544  0.3023 -0.2740  0.3198
11380TIP3    H155555   5.110   4.817   3.606  0.9054  1.4840 -1.7305
11380TIP3    H255556   4.987   4.777   3.528 -0.4725 -1.8837  1.8651
11381TIP3   OH255557   1.522   2.482  16.728  0.7718 -0.1132  0.1902
11381TIP3    H155558   1.445   2.435  16.696  0.9780 -0.8032  0.6912
11381TIP3    H255559   1.554   2.530  16.651 -0.7620  1.0445  0.2372
11382TIP3   OH255560   2.315   3.102  13.582  0.1085 -0.0582  0.1598
11382TIP3    H155561   2.315   3.117  13.488 -1.2088 -0.7050  0.0307
11382TIP3    H255562   2.320   3.006  13.591  0.8669  0.0284  0.7699
11383TIP3   OH255563   5.037   1.882   2.167 -0.2858 -1.1375 -0.0414
11383TIP3    H155564   4.970   1.880   2.099 -0.6730 -0.7736  0.3182
11383TIP3    H255565   4.989   1.864   2.248 -0.3350  1.0569  0.4966
11384TIP3   OH255566   5.036   4.618  15.090 -0.7172  0.7761  0.2731
11384TIP3    H155567   5.124   4.600  15.058 -0.6043  2.1608 -0.2476
11384TIP3    H255568   5.012   4.539  15.139 -0.0964 -0.5881 -1.5163
11385TIP3   OH255569   4.524   2.450  12.268  0.3830 -0.0803 -0.5501
11385TIP3    H155570   4.501   2.373  12.321  0.8046 -0.1982 -0.5285
11385TIP3    H255571   4.455   2.513  12.287  0.4041 -0.2033 -0.0271
11386TIP3   OH255572   6.415   2.869  15.448  0.0207 -0.1644  0.0176
11386TIP3    H155573   6.466   2.949  15.437 -0.1780 -0.1935 -1.3502
11386TIP3    H255574   6.458   2.821  15.519 -0.0993  1.3283  1.1498
11387TIP3   OH255575   0.800   1.156   4.481  0.4974 -0.1450 -0.0156
11387TIP3    H155576   0.826   1.071   4.447  0.6166  0.7714 -2.3997
11387TIP3    H255577   0.880   1.193   4.519  0.8967 -0.3387 -0.6642
11388TIP3   OH255578   3.768   1.775   0.578 -0.3120  0.1613 -0.1081
11388TIP3    H155579   3.816   1.696   0.605 -3.1192 -1.7897 -0.4210
11388TIP3    H255580   3.761   1.827   0.658  1.8245  0.3145  0.0491
11389TIP3   OH255581   2.495   4.628  11.761  0.0706  0.5018  0.0278
11389TIP3    H155582   2.550   4.586  11.826 -0.9359 -2.1540 -0.7079
11389TIP3    H255583   2.491   4.566  11.688 -2.9201  1.0328 -0.4118
11390TIP3   OH255584   4.590   4.616  14.785  0.4532 -0.0862 -0.0424
11390TIP3    H155585   4.665   4.658  14.742  0.3059  1.0108  0.7113
11390TIP3    H255586   4.622   4.529  14.810  1.3530  0.2209 -0.0861
11391TIP3   OH255587   5.263   6.508  16.492  0.6106  0.5718 -0.9584
11391TIP3    H155588   5.300   6.572  16.432  1.7892  0.9304  0.1146
11391TIP3    H255589   5.337   6.480  16.547 -0.4080  0.2180  0.2924
11392TIP3   OH255590   0.450   3.938  10.796 -0.2818 -0.0089 -0.1270
11392TIP3    H155591   0.457   3.878  10.722  1.6589 -0.7786  0.6190
11392TIP3    H255592   0.450   4.025  10.756 -0.7658 -0.4386 -1.0919
11393TIP3   OH255593   6.465   6.413   6.244  0.6010 -0.2578 -0.0033
11393TIP3    H155594   6.526   6.429   6.172  1.9811  0.7377  1.3134
11393TIP3    H255595   6.512   6.444   6.322 -1.2734 -0.2728  1.1832
11394TIP3   OH255596   4.094   4.527   3.144  0.2122  0.2347  0.2530
11394TIP3    H155597   4.130   4.574   3.069 -1.6913  1.8121  0.2353
11394TIP3    H255598   4.147   4.448   3.151  0.4481  0.0194 -2.7574
11395TIP3   OH255599   0.038   5.636  16.357  0.3109  0.1710 -0.0533
11395TIP3    H155600   0.013   5.707  16.298  1.9266  0.6983 -0.1303
11395TIP3    H255601  -0.045   5.593  16.379 -0.4802  0.9202 -1.4716
11396TIP3   OH255602   3.193   2.857  16.293 -0.4586 -0.4947  0.0024
11396TIP3    H155603   3.163   2.774  16.257 -0.8370 -0.5813  0.5041
11396TIP3    H255604   3.286   2.842  16.313 -0.4617 -0.7126 -0.1444
11397TIP3   OH255605   6.005   0.434  11.616 -0.0072  0.3208  0.7232
11397TIP3    H155606   6.015   0.524  11.585 -0.7272  0.3021  0.4153
11397TIP3    H255607   5.911   0.419  11.616  0.1058 -0.4316  0.7845
11398TIP3   OH255608   0.049   1.660  12.628  0.2646  0.0907 -0.1476
11398TIP3    H155609   0.136   1.625  12.610 -0.1246 -1.4170  0.7936
11398TIP3    H255610   0.038   1.653  12.723 -1.1522 -0.4450 -0.3158
11399TIP3   OH255611   2.117   3.465  13.891  0.6268  0.2459 -0.3032
11399TIP3    H155612   2.152   3.444  13.804 -0.4310 -0.8579 -0.4882
11399TIP3    H255613   2.115   3.381  13.937  0.6245  0.7260  0.5988
11400TIP3   OH255614   0.574   5.884  14.218 -0.3176 -0.3471  0.0402
11400TIP3    H155615   0.541   5.795  14.233 -2.7892  0.1787 -1.6882
11400TIP3    H255616   0.502   5.941  14.242  0.5325  1.1082 -0.7394
11401TIP3   OH255617   0.843   1.141  15.959  0.4845  0.1657 -0.5036
11401TIP3    H155618   0.922   1.143  15.904  0.0735  2.9473 -1.1544
11401TIP3    H255619   0.861   1.205  16.028 -0.6858 -0.1525  0.1132
11402TIP3   OH255620   2.349   3.830  15.012  0.3432  0.0893 -0.7022
11402TIP3    H155621   2.296   3.907  15.031 -2.9696 -1.8617 -1.3048
11402TIP3    H255622   2.384   3.804  15.097 -0.1210  1.1169 -0.1725
11403TIP3   OH255623   0.686   0.737  11.133  0.4479 -0.2229  0.2123
11403TIP3    H155624   0.761   0.696  11.090 -2.0929 -3.9464 -1.2261
11403TIP3    H255625   0.617   0.734  11.067 -1.8147  0.1218  2.4088
11404TIP3   OH255626   1.911   4.735   3.292  0.2632 -0.5719  0.3128
11404TIP3    H155627   1.984   4.676   3.273  0.2304 -1.8370  3.5163
11404TIP3    H255628   1.948   4.802   3.350 -0.3149  1.1447 -1.1734
11405TIP3   OH255629   1.875   2.211  12.734 -0.4474 -0.1171 -0.5603
11405TIP3    H155630   1.861   2.124  12.697  1.0430  0.0866 -1.7293
11405TIP3    H255631   1.969   2.228  12.720 -0.1525  0.6574  1.9166
11406TIP3   OH255632   5.212   1.289   2.245  0.4303 -0.8354 -0.5761
11406TIP3    H155633   5.271   1.244   2.305 -0.6298 -0.1675  1.0502
11406TIP3    H255634   5.199   1.228   2.172 -0.0786 -2.6985  1.0051
11407TIP3   OH255635   5.443   2.469   5.823 -0.7745 -0.2691  0.7143
11407TIP3    H155636   5.475   2.550   5.862 -0.7694  0.0451  0.0765
11407TIP3    H255637   5.506   2.403   5.849  1.0312  0.4973 -1.3178
11408TIP3   OH255638   6.323   4.683  11.407 -0.0994  0.4171 -0.0294
11408TIP3    H155639   6.353   4.630  11.334 -1.0103  1.7200 -1.4107
11408TIP3    H255640   6.398   4.739  11.429  0.3677 -0.3798  0.4540
11409TIP3   OH255641   1.671   1.431   3.339 -0.0864 -0.7163  0.5285
11409TIP3    H155642   1.746   1.378   3.312  0.2032 -0.5019  0.9063
11409TIP3    H255643   1.692   1.520   3.308 -0.2917 -0.7002  0.4317
11410TIP3   OH255644   1.047   3.888   5.841  0.0487  0.3704  0.1244
11410TIP3    H155645   0.964   3.855   5.808  0.6503 -1.2268  0.1334
11410TIP3    H255646   1.113   3.844   5.787  0.8872  2.2179 -0.4288
11411TIP3   OH255647   2.710   4.568   1.864 -0.1746  0.1208  0.0443
11411TIP3    H155648   2.684   4.508   1.794  1.1949  0.6938 -1.0037
11411TIP3    H255649   2.735   4.510   1.936 -0.9839 -0.5011 -0.1600
11412TIP3   OH255650   4.076   1.152  12.539 -0.0226  0.3948  0.2468
11412TIP3    H155651   4.009   1.085  12.546  1.5268 -1.1500  1.1863
11412TIP3    H255652   4.084   1.168  12.445 -1.3126  0.2171  0.0947
11413TIP3   OH255653   4.169   1.743   1.537 -0.1992 -0.0871 -0.1126
11413TIP3    H155654   4.088   1.751   1.587  0.2624 -0.1745  0.6667
11413TIP3    H255655   4.209   1.662   1.568 -0.6871 -1.0381 -1.8276
11414TIP3   OH255656   5.499   4.832   0.457 -0.8641  0.1530  0.1551
11414TIP3    H155657   5.504   4.791   0.371 -1.6775  0.6226 -0.1390
11414TIP3    H255658   5.586   4.821   0.495 -1.0090 -1.6860  0.0359
11415TIP3   OH255659   3.233   5.981   5.673  0.3247  0.5736 -0.2608
11415TIP3    H155660   3.253   5.967   5.766 -0.6507 -0.8555 -0.2557
11415TIP3    H255661   3.172   5.911   5.650  0.9531  0.5980 -2.1241
11416TIP3   OH255662   6.258   0.872  12.071  0.2825 -0.2271  0.6228
11416TIP3    H155663   6.227   0.962  12.082  0.5214  0.0441 -0.7688
11416TIP3    H255664   6.332   0.879  12.011  1.1046 -1.2261  1.4735
11417TIP3   OH255665   6.578   1.875   0.561 -0.4993  0.1689 -0.2475
11417TIP3    H155666   6.504   1.925   0.526 -0.7426 -0.4472 -0.6134
11417TIP3    H255667   6.632   1.855   0.484 -0.1971  0.2026 -0.0468
11418TIP3   OH255668   4.232   2.824  15.453  0.3847 -0.2795  0.0966
11418TIP3    H155669   4.267   2.901  15.407 -0.9739 -1.0974 -2.4805
11418TIP3    H255670   4.289   2.815  15.529  1.2910  2.5978 -0.0950
11419TIP3   OH255671   2.025   1.720  12.348  0.2984 -0.2729  0.4359
11419TIP3    H155672   2.048   1.627  12.356  1.0185 -0.0146  1.5687
11419TIP3    H255673   2.057   1.760  12.429 -0.1496  0.9404  0.0369
11420TIP3   OH255674   3.496   3.926  13.473 -0.1176  0.0255 -0.1088
11420TIP3    H155675   3.578   3.916  13.425  0.1579  0.7876  0.1998
11420TIP3    H255676   3.430   3.887  13.416  0.0164  1.9117 -1.6476
11421TIP3   OH255677   2.119   4.846   6.130  0.3527 -0.1831 -0.2044
11421TIP3    H155678   2.088   4.869   6.218  0.6864 -1.0482  0.1490
11421TIP3    H255679   2.191   4.785   6.145 -0.3623 -1.2723 -1.1005
11422TIP3   OH255680   2.396   5.394   6.004 -0.3684  0.2906  0.0546
11422TIP3    H155681   2.336   5.451   6.052 -0.5597 -0.7560  1.1206
11422TIP3    H255682   2.419   5.325   6.067 -0.8868 -1.3404 -1.4408
11423TIP3   OH255683   1.844   4.800   0.085  0.2863  0.2449 -0.0768
11423TIP3    H155684   1.772   4.843   0.040 -0.4338 -0.4942  0.3480
11423TIP3    H255685   1.921   4.854   0.065 -0.3622  0.9839 -0.6080
11424TIP3   OH255686   4.244   1.559   2.931 -0.2108  0.2530  0.2828
11424TIP3    H155687   4.312   1.618   2.899 -2.4901  2.9416  0.0212
11424TIP3    H255688   4.231   1.497   2.859  2.6556 -1.1021  0.7966
11425TIP3   OH255689   4.916   6.269  12.443 -0.0639  0.3296  0.0538
11425TIP3    H155690   4.830   6.239  12.414 -0.4318 -1.1786  2.4556
11425TIP3    H255691   4.976   6.199  12.416  0.0390  0.2785  0.4141
11426TIP3   OH255692   4.646   3.272   2.322  0.1606  0.3294 -0.9259
11426TIP3    H155693   4.672   3.248   2.233 -0.3477 -0.7338 -0.8074
11426TIP3    H255694   4.682   3.359   2.335 -1.5367  1.4173 -2.9495
11427TIP3   OH255695   5.019   0.917  14.587  0.0518 -0.1282  0.6801
11427TIP3    H155696   5.021   1.004  14.628 -0.0711 -0.2964  1.0456
11427TIP3    H255697   5.066   0.929  14.505  1.5417 -0.1137  1.4994
11428TIP3   OH255698   5.330   6.528  12.419 -0.0306 -0.3615 -0.8103
11428TIP3    H155699   5.378   6.447  12.402  0.0846 -0.7448  1.0974
11428TIP3    H255700   5.287   6.514  12.504  0.8465  1.9160  0.1165
11429TIP3   OH255701   3.420   6.322  12.073 -0.0769 -0.0224  0.1602
11429TIP3    H155702   3.477   6.393  12.044  1.9961 -1.6703 -0.0192
11429TIP3    H255703   3.461   6.289  12.153 -0.1420 -1.9165 -0.5284
11430TIP3   OH255704   1.137   3.387  11.439  0.1471 -0.5547 -0.0420
11430TIP3    H155705   1.216   3.344  11.472 -0.8892 -1.8302  0.8893
11430TIP3    H255706   1.162   3.422  11.354  2.1274  0.4001  0.8590
11431TIP3   OH255707   3.848   4.154   1.979 -0.2094  0.4880 -0.1484
11431TIP3    H155708   3.868   4.246   1.996 -2.5904  1.0158  0.2253
11431TIP3    H255709   3.882   4.107   2.056  0.7605  1.0662 -0.2070
11432TIP3   OH255710   5.027   4.995   2.772  0.0241 -0.1043  0.0376
11432TIP3    H155711   4.971   5.002   2.850 -1.6222 -0.0716 -1.1079
11432TIP3    H255712   5.053   5.085   2.754  0.4470 -0.1149  0.5557
11433TIP3   OH255713   5.695   1.494  12.241 -0.0144  0.7830 -0.3690
11433TIP3    H155714   5.768   1.556  12.243  1.8921 -1.3273 -0.2596
11433TIP3    H255715   5.618   1.549  12.227  1.9476  2.8762 -5.7619
11434TIP3   OH255716   2.034   3.170  15.025 -0.7659  0.4141 -0.5875
11434TIP3    H155717   2.033   3.260  14.993  2.0999 -0.0424 -2.2445
11434TIP3    H255718   2.020   3.116  14.947 -0.2339 -0.6382  0.0200
11435TIP3   OH255719   5.576   5.296  15.645  0.2578  0.0497 -0.1814
11435TIP3    H155720   5.546   5.314  15.556 -0.5273 -1.1515 -0.1961
11435TIP3    H255721   5.608   5.206  15.642 -0.0679 -0.1200  0.8117
11436TIP3   OH255722   1.360   6.251  11.653  0.0109  0.2327  0.4957
11436TIP3    H155723   1.281   6.305  11.657 -0.4988 -0.5429  1.0604
11436TIP3    H255724   1.428   6.311  11.621 -1.0362  0.6262 -1.0819
11437TIP3   OH255725   3.859   5.590   1.330  0.1746 -0.2101  0.4724
11437TIP3    H155726   3.852   5.645   1.408 -0.5821 -0.5726  0.6683
11437TIP3    H255727   3.953   5.569   1.323  0.5254  1.3496  0.2102
11438TIP3   OH255728   1.463   2.358   6.466 -0.1054  0.2865 -0.2155
11438TIP3    H155729   1.438   2.443   6.432  1.6075  0.5102 -1.0357
11438TIP3    H255730   1.502   2.377   6.552 -2.2740 -0.0243  0.9073
11439TIP3   OH255731   5.492   4.366  16.882  0.2376 -0.4798  0.5665
11439TIP3    H155732   5.426   4.370  16.951  0.7456  1.5409  0.9851
11439TIP3    H255733   5.575   4.364  16.928  0.5354 -1.7237  0.0203
11440TIP3   OH255734   4.578   0.014  16.287 -0.5114  0.0426 -0.9496
11440TIP3    H155735   4.552  -0.026  16.370 -0.6012  4.2907  1.3723
11440TIP3    H255736   4.496   0.018  16.237 -0.9643 -0.5839 -0.2962
11441TIP3   OH255737   1.938   6.015   5.876  0.0300  0.5449 -0.3078
11441TIP3    H155738   2.022   6.061   5.867  0.6005 -0.1126  1.2870
11441TIP3    H255739   1.905   6.041   5.962 -1.1785  0.4131 -0.7150
11442TIP3   OH255740   2.497   0.368   0.714  0.5155  0.1433  0.2823
11442TIP3    H155741   2.571   0.386   0.772  1.1851 -0.7692 -0.2514
11442TIP3    H255742   2.527   0.295   0.659 -0.1968  0.7737 -1.0004
11443TIP3   OH255743   1.315   1.784   4.390  0.6502 -0.3109 -0.6112
11443TIP3    H155744   1.264   1.794   4.310  1.8648  0.9543 -1.2665
11443TIP3    H255745   1.398   1.746   4.361  1.4487  1.0043 -0.1159
11444TIP3   OH255746   1.631   4.118  15.045  0.2061  0.2988  0.0036
11444TIP3    H155747   1.642   4.025  15.027  0.5098  0.5178 -1.0213
11444TIP3    H255748   1.547   4.125  15.091  0.4837 -0.5386  0.6581
11445TIP3   OH255749   4.544   0.691  14.118  0.6534  0.2177  0.5486
11445TIP3    H155750   4.581   0.604  14.103 -1.5633 -1.0392  1.8201
11445TIP3    H255751   4.559   0.738  14.035  2.1931 -1.2143 -0.0470
11446TIP3   OH255752   4.811   6.473   6.403 -0.3000  0.2102 -0.4110
11446TIP3    H155753   4.852   6.544   6.452 -1.2277  0.4723  0.0224
11446TIP3    H255754   4.813   6.398   6.462  3.6213 -1.1848 -2.0004
11447TIP3   OH255755   3.034   2.729   5.481 -0.0980 -0.2773  0.0288
11447TIP3    H155756   3.028   2.707   5.388  2.5687 -0.4691 -0.1674
11447TIP3    H255757   3.089   2.661   5.519  0.0236  0.5756  1.4608
11448TIP3   OH255758   4.373   5.277  15.033  0.4812  0.1683 -0.7519
11448TIP3    H155759   4.461   5.313  15.048 -0.7631  1.8919  4.4054
11448TIP3    H255760   4.387   5.183  15.025  2.8165  0.0560  2.4433
11449TIP3   OH255761   4.523   0.789   6.851  0.4463 -0.1495  0.1388
11449TIP3    H155762   4.603   0.786   6.800  0.2155  0.4745 -0.2775
11449TIP3    H255763   4.459   0.739   6.800 -0.7370  3.1619 -1.9809
11450TIP3   OH255764   6.064   3.156  10.838  0.1950 -0.3527 -0.3419
11450TIP3    H155765   6.076   3.184  10.747 -3.1672  1.3574 -0.4112
11450TIP3    H255766   6.058   3.237  10.888 -1.0957 -1.1563  0.8766
11451TIP3   OH255767   5.705   0.306   4.954  0.2778 -0.1869 -0.2530
11451TIP3    H155768   5.630   0.249   4.937  0.7500 -0.5712 -1.1612
11451TIP3    H255769   5.679   0.360   5.028  0.8021 -3.3833  2.4777
11452TIP3   OH255770   1.595   5.775   3.604 -0.0460 -0.2111  0.1877
11452TIP3    H155771   1.625   5.836   3.536 -1.4820  0.0292 -0.2652
11452TIP3    H255772   1.639   5.693   3.583  0.7122  0.2570 -0.1099
11453TIP3   OH255773   2.992   3.027  13.365  0.7022 -0.6161  1.0119
11453TIP3    H155774   2.957   3.073  13.441  0.8760  0.1236  0.6500
11453TIP3    H255775   3.087   3.031  13.376  0.7423 -0.1509  0.5587
11454TIP3   OH255776   3.374   2.140   4.811  0.4349  0.2744  0.2206
11454TIP3    H155777   3.317   2.130   4.735  0.4926 -0.7531  0.3028
11454TIP3    H255778   3.351   2.068   4.869  3.9913 -2.2638 -1.1394
11455TIP3   OH255779   3.182   2.769   0.520 -0.0535 -0.7166  0.2975
11455TIP3    H155780   3.217   2.756   0.608  2.1625 -0.0157 -0.4010
11455TIP3    H255781   3.222   2.851   0.490 -0.2119 -1.2784 -1.5975
11456TIP3   OH255782   0.190   0.801   3.852  0.2701 -0.0346 -0.2861
11456TIP3    H155783   0.185   0.796   3.948  0.9134  1.4759 -0.1377
11456TIP3    H255784   0.277   0.767   3.831  1.7983  3.2028  0.0962
11457TIP3   OH255785   2.463   5.091   4.326 -0.4262  0.1123  0.1874
11457TIP3    H155786   2.444   5.058   4.414 -0.2232 -1.8999 -0.4916
11457TIP3    H255787   2.539   5.041   4.297  0.1945  1.5323 -0.7392
11458TIP3   OH255788   4.449   3.253   5.782  0.1570  0.3040 -0.2658
11458TIP3    H155789   4.524   3.194   5.784  0.2309  0.3994 -0.1554
11458TIP3    H255790   4.426   3.264   5.875 -1.0764 -1.0974 -0.3651
11459TIP3   OH255791   4.653   0.129  11.402 -0.0345  0.1095  0.1314
11459TIP3    H155792   4.614   0.046  11.375 -1.5888  1.3146 -1.6438
11459TIP3    H255793   4.593   0.164  11.467 -1.4749  1.4403 -1.7789
11460TIP3   OH255794   4.029   4.981  15.155 -0.0925 -0.4594 -0.3562
11460TIP3    H155795   3.962   4.915  15.141 -1.2815  0.6676 -0.1437
11460TIP3    H255796   3.982   5.056  15.192  0.3015  2.1917 -4.5364
11461TIP3   OH255797   1.561   5.497  13.356 -0.8847 -0.0439 -0.4034
11461TIP3    H155798   1.638   5.539  13.393 -1.8968  1.0368  0.6002
11461TIP3    H255799   1.531   5.558  13.288 -0.4850 -0.7798 -1.2491
11462TIP3   OH255800   0.802   0.631   0.990  0.3901 -0.0627  0.3188
11462TIP3    H155801   0.892   0.609   1.013  0.7047  0.0308 -0.7781
11462TIP3    H255802   0.809   0.685   0.911 -0.6355 -0.2439  0.0851
11463TIP3   OH255803   1.917   3.321  10.676  0.1284 -0.0087 -0.1658
11463TIP3    H155804   1.975   3.349  10.747  0.4282 -2.2669  0.5839
11463TIP3    H255805   1.833   3.361  10.697  0.5571  0.4945  0.6786
11464TIP3   OH255806   6.021   6.055  12.635  0.4348 -0.0754 -0.4916
11464TIP3    H155807   5.947   6.112  12.615 -0.4173 -0.9531  0.0471
11464TIP3    H255808   5.982   5.968  12.644  1.7745 -0.8816 -1.9201
11465TIP3   OH255809   2.636   0.472  11.849  0.4756  0.0287 -0.2053
11465TIP3    H155810   2.654   0.386  11.886  2.8606  0.5595  0.0032
11465TIP3    H255811   2.662   0.464  11.757  1.3393  0.6873 -0.0284
11466TIP3   OH255812   0.913   3.591   2.297 -0.2085  0.4753 -0.2826
11466TIP3    H155813   0.835   3.638   2.267 -0.3986  1.2153  1.2625
11466TIP3    H255814   0.908   3.505   2.255 -1.9721  0.4352 -0.0553
11467TIP3   OH255815   1.044   0.240   1.663 -0.5496  0.0282  0.1201
11467TIP3    H155816   1.121   0.198   1.625 -0.9330 -0.1695 -0.4458
11467TIP3    H255817   1.067   0.255   1.755  0.2841  0.2682 -0.1247
11468TIP3   OH255818   3.033   0.478  10.777  0.2176 -0.0616 -0.2240
11468TIP3    H155819   2.993   0.460  10.862  1.2828  0.4323  0.3944
11468TIP3    H255820   3.083   0.559  10.790 -1.4022  1.3045 -1.9203
11469TIP3   OH255821   1.953   4.514   5.040  0.6824  0.1217 -0.1080
11469TIP3    H155822   1.923   4.523   5.130 -2.3618 -0.5563 -0.9410
11469TIP3    H255823   1.968   4.604   5.010 -0.8371  0.5548  0.3341
11470TIP3   OH255824   6.733   2.376   1.216 -0.0824 -0.3535 -0.1256
11470TIP3    H155825   6.726   2.292   1.170 -1.2279 -0.7867  0.7780
11470TIP3    H255826   6.813   2.416   1.183  1.2809 -2.4483  0.4850
11471TIP3   OH255827   3.432   5.854  12.276 -0.5779  0.3473 -0.6384
11471TIP3    H155828   3.511   5.845  12.330 -0.4789 -1.1014 -0.9641
11471TIP3    H255829   3.431   5.774  12.223  0.4816  2.5560 -4.3507
11472TIP3   OH255830   2.517   4.676  13.212  0.4091 -0.3352 -0.0218
11472TIP3    H155831   2.445   4.614  13.224 -0.1864  0.6194  1.7128
11472TIP3    H255832   2.495   4.723  13.132  0.3928 -1.7084 -0.8472
11473TIP3   OH255833   6.152   1.490  11.656 -0.0470 -0.4141 -0.5472
11473TIP3    H155834   6.208   1.567  11.646  0.2555 -0.6685 -0.8320
11473TIP3    H255835   6.150   1.451  11.568 -2.1575  0.6035 -1.0205
11474TIP3   OH255836   6.123   1.231   5.383  0.4709 -0.0732  0.5271
11474TIP3    H155837   6.117   1.142   5.419 -0.0286  0.2538  1.2919
11474TIP3    H255838   6.107   1.220   5.290  0.6238 -0.8129  0.5760
11475TIP3   OH255839   2.466   1.214   2.805  0.8337  0.1107 -0.8531
11475TIP3    H155840   2.394   1.158   2.777 -0.7527  1.2407  0.7555
11475TIP3    H255841   2.533   1.154   2.837 -0.4791 -0.9232  0.0527
11476TIP3   OH255842   2.460   5.590   2.161 -0.3090  0.4256  0.0443
11476TIP3    H155843   2.435   5.630   2.078 -1.4172  1.4714  0.8437
11476TIP3    H255844   2.410   5.509   2.165 -0.7609  0.7025 -0.0086
11477TIP3   OH255845   0.325   3.416  15.086 -0.3614  0.1392 -0.0082
11477TIP3    H155846   0.316   3.443  14.995 -1.5157  1.8251  0.5565
11477TIP3    H255847   0.368   3.490  15.129 -0.4763 -0.3309  0.9508
11478TIP3   OH255848   1.151   3.189   5.034  0.1985  0.0568 -0.2378
11478TIP3    H155849   1.203   3.109   5.044 -1.4193 -0.9009  1.0119
11478TIP3    H255850   1.070   3.171   5.081 -1.3762  1.3991 -2.2441
11479TIP3   OH255851   2.886   0.447   4.555 -0.0754 -0.2408  0.5744
11479TIP3    H155852   2.937   0.525   4.579  0.0317 -0.1184 -0.0298
11479TIP3    H255853   2.938   0.405   4.486 -0.7603 -0.1364 -0.0212
11480TIP3   OH255854   2.725   3.796  13.083  0.4663  0.4904  0.2073
11480TIP3    H155855   2.693   3.711  13.112 -0.8490  1.5241  1.9033
11480TIP3    H255856   2.794   3.819  13.146  1.5126  0.2948 -0.8126
11481TIP3   OH255857   5.813   3.228  11.013 -0.0369  0.5150 -0.1413
11481TIP3    H155858   5.766   3.304  10.978  0.7887  1.0636 -0.0968
11481TIP3    H255859   5.905   3.250  11.001  0.2418 -1.1709 -1.5985
11482TIP3   OH255860   1.557   1.160  16.369 -0.0162 -0.1757 -0.0749
11482TIP3    H155861   1.502   1.160  16.447 -0.0365  1.2696 -0.0577
11482TIP3    H255862   1.501   1.124  16.300 -1.0947  1.4097 -0.0965
11483TIP3   OH255863   0.075   1.376   4.736 -0.1733  0.5950 -0.2635
11483TIP3    H155864   0.017   1.373   4.660 -2.1678 -0.0929  1.1985
11483TIP3    H255865   0.018   1.357   4.810  1.8174  0.6182  1.3571
11484TIP3   OH255866   4.311   3.467   3.564 -0.4936 -0.3262 -0.4048
11484TIP3    H155867   4.371   3.434   3.631 -1.7823  1.4026  1.7287
11484TIP3    H255868   4.368   3.503   3.496  0.8607 -1.3158  0.1581
11485TIP3   OH255869   4.254   4.309   1.774 -0.3794  0.0642  0.3904
11485TIP3    H155870   4.254   4.335   1.866  0.8711  0.9836  0.1650
11485TIP3    H255871   4.266   4.392   1.727  0.6045 -0.5712 -0.5102
11486TIP3   OH255872   4.119   5.405  17.133 -0.1724  0.2480  0.0254
11486TIP3    H155873   4.183   5.339  17.160 -0.4799 -0.9376 -1.9753
11486TIP3    H255874   4.051   5.401  17.200  0.4108 -0.5668  0.5908
11487TIP3   OH255875   3.839   3.510   5.360  0.4515  0.2928  0.1914
11487TIP3    H155876   3.840   3.519   5.455  1.5100  1.5287  0.0940
11487TIP3    H255877   3.782   3.581   5.329 -0.5173 -0.5746 -0.0808
11488TIP3   OH255878   5.474   5.438  16.206 -0.6181 -0.5055 -0.3739
11488TIP3    H155879   5.438   5.380  16.140  1.1497  0.4546 -2.2854
11488TIP3    H255880   5.472   5.525  16.166 -0.1409  0.2269  1.1101
11489TIP3   OH255881   2.116   3.622  11.910 -0.4011  0.2029 -0.3374
11489TIP3    H155882   2.186   3.668  11.957 -0.8049  0.0694  0.4035
11489TIP3    H255883   2.146   3.621  11.819  1.0929 -0.8433  0.1301
11490TIP3   OH255884   4.741   3.189   0.639 -0.5145 -0.3748 -0.0923
11490TIP3    H155885   4.660   3.210   0.591 -0.7286  2.2263  1.2392
11490TIP3    H255886   4.762   3.269   0.686  1.2051 -1.9576  2.0037
11491TIP3   OH255887   0.877   2.759   3.991  0.4820  0.0136  0.3855
11491TIP3    H155888   0.910   2.773   4.080  0.0545 -0.8178  0.6850
11491TIP3    H255889   0.862   2.664   3.986  1.1099 -0.0379 -0.7892
11492TIP3   OH255890   5.560   6.456  11.601 -0.3709 -0.3118 -0.6162
11492TIP3    H155891   5.609   6.536  11.583 -2.1474  0.7460 -0.9434
11492TIP3    H255892   5.575   6.440  11.694 -0.4818  0.7685 -0.3928
11493TIP3   OH255893   2.648   0.389   4.928 -0.0867 -0.5258  0.2753
11493TIP3    H155894   2.680   0.404   5.017  1.0011  0.3393 -0.2320
11493TIP3    H255895   2.608   0.472   4.903 -0.8690 -0.9395  0.1455
11494TIP3   OH255896   1.283   5.496   1.424  0.0957 -0.0585  0.7280
11494TIP3    H155897   1.276   5.444   1.504  0.2948  1.3204  1.6656
11494TIP3    H255898   1.365   5.544   1.433  0.6383 -0.6267 -0.7905
11495TIP3   OH255899   2.788   1.067   1.926 -0.0990  0.0995 -0.3713
11495TIP3    H155900   2.854   1.033   1.865 -0.0089  0.4348 -0.4652
11495TIP3    H255901   2.747   1.140   1.878  0.6877  1.0370  0.3466
11496TIP3   OH255902   0.269   0.532  15.269  0.1529  0.4910  0.2582
11496TIP3    H155903   0.266   0.540  15.364  0.2656 -1.0548  0.4126
11496TIP3    H255904   0.193   0.480  15.247 -0.2183  1.3492 -0.5859
11497TIP3   OH255905   6.220   3.396  15.340  0.2791 -0.1723 -0.3649
11497TIP3    H155906   6.311   3.376  15.362 -0.2749 -1.7772  0.6531
11497TIP3    H255907   6.221   3.488  15.312  2.1168 -0.0252  0.0960
11498TIP3   OH255908   0.291   0.574   4.271  0.2065  0.0396 -0.1596
11498TIP3    H155909   0.380   0.540   4.285  0.2901  0.0674 -0.5866
11498TIP3    H255910   0.237   0.496   4.266  0.0077  0.0608  1.3202
11499TIP3   OH255911   3.296   0.567  13.994  0.3094 -0.4153  0.3233
11499TIP3    H155912   3.325   0.587  14.083 -1.4479 -1.3551  1.1581
11499TIP3    H255913   3.291   0.652  13.951  1.2729  0.0481  1.0893
11500TIP3   OH255914   2.877   0.796   0.652  0.0196  0.6146 -0.8801
11500TIP3    H155915   2.972   0.798   0.655  0.1262 -1.2506 -1.6441
11500TIP3    H255916   2.852   0.874   0.603  1.1420  1.1496 -0.6131
11501TIP3   OH255917   4.541   2.097   1.415  0.6562 -0.0411  0.1361
11501TIP3    H155918   4.453   2.059   1.424  0.9500 -0.5238  1.2676
11501TIP3    H255919   4.528   2.191   1.428 -0.0072  0.2196 -2.1479
11502TIP3   OH255920   2.589   5.535   5.814 -0.4390 -0.7531 -0.0436
11502TIP3    H155921   2.511   5.572   5.774  0.7223  0.2701 -1.4634
11502TIP3    H255922   2.560   5.505   5.900 -2.2140  0.2873 -0.2399
11503TIP3   OH255923   1.295   1.117  14.903 -0.0973  0.1125  0.0264
11503TIP3    H155924   1.293   1.083  14.993 -0.6023  0.4905  0.1658
11503TIP3    H255925   1.217   1.172  14.897 -0.7732 -0.9316 -1.0610
11504TIP3   OH255926   2.943   6.619   0.597  0.1270  0.0697  0.0788
11504TIP3    H155927   2.855   6.582   0.604  0.2027 -0.1499 -0.1117
11504TIP3    H255928   2.950   6.678   0.672 -1.0851  2.0102 -1.2704
11505TIP3   OH255929   0.849   3.375   2.789 -0.2579  0.5568 -0.2635
11505TIP3    H155930   0.774   3.316   2.796 -0.9172  1.4898  0.9252
11505TIP3    H255931   0.827   3.433   2.716 -0.1010  0.0222 -0.7384
11506TIP3   OH255932   4.189   3.495  15.332  0.5556 -0.4562 -0.4931
11506TIP3    H155933   4.242   3.460  15.260  1.4124  0.7564 -0.4823
11506TIP3    H255934   4.213   3.440  15.407  0.2441 -1.2291 -0.9562
11507TIP3   OH255935   0.887   6.382  16.584 -0.1030  1.0303 -0.0651
11507TIP3    H155936   0.949   6.445  16.548 -0.4841  1.4914  0.0783
11507TIP3    H255937   0.805   6.399  16.537 -0.5462  1.4853  0.8540
11508TIP3   OH255938   4.262   3.651  12.673  0.3468  0.2376  0.5373
11508TIP3    H155939   4.204   3.684  12.604  2.0875  1.4588 -0.4139
11508TIP3    H255940   4.308   3.728  12.705 -0.4932 -0.2786  3.2374
11509TIP3   OH255941   0.185   3.936   2.764  0.0098  0.0193 -0.1590
11509TIP3    H155942   0.204   4.023   2.799  0.9747 -0.1855 -0.1452
11509TIP3    H255943   0.111   3.905   2.816  0.4131  0.3585  0.6312
11510TIP3   OH255944   3.564   5.277  16.448  0.0183 -0.3924  0.5007
11510TIP3    H155945   3.488   5.310  16.496  1.0358  0.6247  1.4315
11510TIP3    H255946   3.555   5.316  16.361 -0.5302 -0.2927  0.5934
11511TIP3   OH255947   0.610   5.005  16.593 -0.1881  0.0796 -0.0893
11511TIP3    H155948   0.549   5.066  16.635 -1.8001 -1.0312 -0.7271
11511TIP3    H255949   0.593   4.922  16.637  2.1088  0.0634  0.8832
11512TIP3   OH255950   1.510   2.938   4.437 -0.3178 -0.2554  0.0898
11512TIP3    H155951   1.593   2.970   4.472 -1.2461  1.1194  1.1275
11512TIP3    H255952   1.478   3.010   4.382 -0.7991 -0.7849 -0.3288
11513TIP3   OH255953   5.071   2.237  15.301 -0.1868 -0.7258  0.1867
11513TIP3    H155954   5.064   2.253  15.395 -0.2986  0.7154 -0.0410
11513TIP3    H255955   5.049   2.144  15.290 -1.0881 -0.6844  1.4698
11514TIP3   OH255956   2.342   0.828   5.934  0.6881  0.0957  0.6923
11514TIP3    H155957   2.356   0.889   5.862  0.3168 -1.7849 -1.0529
11514TIP3    H255958   2.301   0.881   6.003 -0.0081  1.7145 -0.8936
11515TIP3   OH255959   1.159   5.362   4.644 -0.4140 -0.5915  0.4219
11515TIP3    H155960   1.224   5.293   4.651  0.1220 -0.0714  0.6201
11515TIP3    H255961   1.206   5.436   4.607 -0.2700  0.5920  2.8046
11516TIP3   OH255962   0.070   2.356   1.905 -0.2801 -0.1554 -0.3638
11516TIP3    H155963   0.043   2.322   1.820 -2.6837 -0.3409  0.3865
11516TIP3    H255964   0.009   2.429   1.922 -0.3257 -0.5616  1.4682
11517TIP3   OH255965   5.978   4.692  14.436  0.7586  0.0646 -0.2473
11517TIP3    H155966   5.996   4.599  14.453 -0.2381  0.0406  0.8289
11517TIP3    H255967   5.884   4.695  14.421  1.1005  0.6055 -2.6167
11518TIP3   OH255968   2.810   6.259  13.637 -0.2907  0.6513 -0.2347
11518TIP3    H155969   2.798   6.187  13.699  0.4093  0.8580  0.1469
11518TIP3    H255970   2.846   6.218  13.559  0.8840  0.6890  0.2720
11519TIP3   OH255971   5.747   5.994  12.741  0.2165  0.1359 -0.3126
11519TIP3    H155972   5.705   5.912  12.763 -0.3538  0.6984  0.7540
11519TIP3    H255973   5.798   6.017  12.818  0.7091  0.5764 -0.7565
11520TIP3   OH255974   5.651   6.535   4.677  0.1623  0.0204 -0.1550
11520TIP3    H155975   5.630   6.471   4.745  0.6846  0.0463  0.0374
11520TIP3    H255976   5.669   6.482   4.599  0.9494 -0.0971  0.0975
11521TIP3   OH255977   3.767   3.041  16.244 -0.1656 -0.0251  0.4510
11521TIP3    H155978   3.726   3.079  16.321  1.1298 -0.2218  1.2834
11521TIP3    H255979   3.854   3.083  16.241 -0.0438 -0.3385 -0.6466
11522TIP3   OH255980   6.035   0.907  14.328 -0.1494  0.5128  0.0163
11522TIP3    H155981   5.979   0.864  14.263 -1.1616  1.2180  0.3977
11522TIP3    H255982   6.000   0.996  14.334  0.1571  0.5613  1.2811
11523TIP3   OH255983   5.952   4.131  16.792  0.2917  0.1640  0.3913
11523TIP3    H155984   5.966   4.067  16.721 -0.8969  0.8218 -0.4731
11523TIP3    H255985   5.904   4.203  16.750  1.4942  1.5890  1.3632
11524TIP3   OH255986   6.491   4.625  12.042 -0.7712  0.3354 -0.0884
11524TIP3    H155987   6.540   4.692  11.995 -0.9575 -0.1260 -0.9754
11524TIP3    H255988   6.438   4.582  11.974 -1.4667  0.0108  0.6395
11525TIP3   OH255989   5.199   0.192   2.686  0.6691  0.1530 -0.1442
11525TIP3    H155990   5.281   0.240   2.700  0.7524  0.0228 -0.1860
11525TIP3    H255991   5.166   0.175   2.774 -0.7985  2.7344 -0.1151
11526TIP3   OH255992   4.302   2.644  14.422  0.7281  0.2772 -0.1113
11526TIP3    H155993   4.265   2.659  14.509  0.7548  0.3587 -0.1144
11526TIP3    H255994   4.325   2.731  14.390 -2.2547  0.7004 -1.5271
11527TIP3   OH255995   5.091   2.805   4.472 -0.2280  0.4283  0.0130
11527TIP3    H155996   5.093   2.709   4.476 -0.5463  0.3416 -1.3789
11527TIP3    H255997   5.152   2.833   4.541  1.2243 -0.8037 -0.7022
11528TIP3   OH255998   5.227   0.263  13.677  0.5254  0.2521  0.2390
11528TIP3    H155999   5.231   0.263  13.581 -0.4686  2.8198  0.1160
11528TIP3    H256000   5.317   0.247  13.705  1.1216  0.9780 -1.1732
11529TIP3   OH256001   5.719   0.582   3.903  0.3560 -0.3878 -0.4561
11529TIP3    H156002   5.660   0.657   3.902  0.3664 -0.3708 -0.0767
11529TIP3    H256003   5.721   0.551   3.812  0.1795 -0.0656 -0.5697
11530TIP3   OH256004   2.263   0.854   4.485 -0.0735  0.1523 -0.5403
11530TIP3    H156005   2.244   0.920   4.419 -0.1048  1.3356  0.6007
11530TIP3    H256006   2.179   0.811   4.500  0.0955 -0.6341 -1.7843
11531TIP3   OH256007   3.689   2.113   3.997 -0.2731  0.4754  0.1787
11531TIP3    H156008   3.758   2.136   4.059 -0.3314  1.6422 -0.1793
11531TIP3    H256009   3.703   2.171   3.922 -1.6519  0.7466  0.1094
11532TIP3   OH256010   1.153   0.854   6.545  0.1620 -0.3783  0.1125
11532TIP3    H156011   1.209   0.797   6.493  0.3774  0.5020 -0.6398
11532TIP3    H256012   1.090   0.889   6.482 -0.2271 -0.1037  0.6470
11533TIP3   OH256013   5.587   5.664   3.190  0.2173  0.0493  0.1047
11533TIP3    H156014   5.544   5.612   3.121 -2.3991 -1.5582  2.7348
11533TIP3    H256015   5.568   5.617   3.271  0.4461  3.4881  2.3224
11534TIP3   OH256016   2.777   4.585   1.413 -0.4363  0.8541  0.0628
11534TIP3    H156017   2.799   4.665   1.461  0.2814  0.8370 -0.2199
11534TIP3    H256018   2.848   4.575   1.350 -0.4046 -0.1181  0.2362
11535TIP3   OH256019   2.672   2.468   5.738  0.0980  0.7544  0.1679
11535TIP3    H156020   2.750   2.417   5.716 -0.7515 -0.9315  0.8726
11535TIP3    H256021   2.671   2.540   5.674  1.0527 -0.4260 -1.2411
11536TIP3   OH256022   0.726   0.275  13.494  0.2130 -0.2044 -0.8558
11536TIP3    H156023   0.698   0.193  13.534  1.5343  0.5777  1.9848
11536TIP3    H256024   0.821   0.264  13.481  0.2557  0.5613 -1.2491
11537TIP3   OH256025   1.276   5.323   3.880  0.2708 -0.5605  0.3553
11537TIP3    H156026   1.364   5.329   3.916  0.4844 -1.0615 -0.0812
11537TIP3    H256027   1.229   5.266   3.942 -0.0311  0.4979  1.1244
11538TIP3   OH256028   0.112   1.187  15.359  0.1440 -0.1215  0.5233
11538TIP3    H156029   0.111   1.276  15.394 -1.8066  0.9736 -2.0124
11538TIP3    H256030   0.189   1.185  15.303 -0.1642  0.2273  0.0740
11539TIP3   OH256031   0.243   6.009   2.015 -0.6931  0.0393  0.0485
11539TIP3    H156032   0.274   6.004   1.925 -1.5311  2.4983 -0.4620
11539TIP3    H256033   0.150   5.989   2.010 -1.1019  1.7690  0.0478
11540TIP3   OH256034   2.228   5.392   4.419  0.1861  0.0448 -0.5711
11540TIP3    H156035   2.241   5.365   4.329  0.7566 -2.7716  0.2574
11540TIP3    H256036   2.316   5.414   4.451  0.2288 -0.6325 -0.2226
11541TIP3   OH256037   0.964   2.722   4.722  0.1182  0.6404 -0.7184
11541TIP3    H156038   0.892   2.662   4.704  0.4697 -0.0843  0.2713
11541TIP3    H256039   1.002   2.740   4.636 -0.2585 -0.2051 -1.0672
11542TIP3   OH256040   6.623   2.856   4.464 -0.2314 -0.0211 -0.5868
11542TIP3    H156041   6.641   2.857   4.370  1.2144  0.8507 -0.3278
11542TIP3    H256042   6.677   2.784   4.498 -2.2846 -1.6786 -0.6636
11543TIP3   OH256043   0.851   2.583   2.967 -0.1462 -0.0402 -0.1171
11543TIP3    H156044   0.876   2.622   3.052 -0.7844  2.9699 -1.1657
11543TIP3    H256045   0.865   2.489   2.979 -0.9788  0.1228  3.5922
11544TIP3   OH256046   3.750   2.547   5.206 -0.6547 -0.2532  0.5128
11544TIP3    H156047   3.810   2.592   5.265  0.0122 -0.4282 -0.0215
11544TIP3    H256048   3.806   2.507   5.140 -1.2780 -1.2633  0.5580
11545TIP3   OH256049   4.632   5.885   6.368 -0.0159 -0.3890  0.0485
11545TIP3    H156050   4.577   5.807   6.361 -0.4901 -0.0540  0.0168
11545TIP3    H256051   4.638   5.901   6.462 -1.2826  0.4811  0.0124
11546TIP3   OH256052   1.037   3.714   1.592  0.0080  0.2896 -0.4382
11546TIP3    H156053   0.975   3.656   1.635 -2.8547  2.3928 -1.4322
11546TIP3    H256054   1.092   3.748   1.663  0.7270 -2.2931  0.3453
11547TIP3   OH256055   0.352   4.776  12.354 -0.0170  0.6198  0.7554
11547TIP3    H156056   0.431   4.728  12.377 -0.3479 -0.3853 -0.1111
11547TIP3    H256057   0.356   4.856  12.406  0.7695 -0.1460  1.9165
11548TIP3   OH256058   0.696   3.346   1.193  0.6291  0.1195  0.4984
11548TIP3    H156059   0.603   3.347   1.173  0.7810  2.0007 -0.3800
11548TIP3    H256060   0.723   3.255   1.180 -1.1258 -0.5175  1.1067
11549TIP3   OH256061   1.145   2.406   2.818  0.2632  0.1363 -0.1968
11549TIP3    H156062   1.200   2.482   2.838  0.9996 -0.5098  0.2892
11549TIP3    H256063   1.148   2.398   2.723  0.2040  0.7010 -0.2460
11550TIP3   OH256064   3.028   0.345  15.890 -0.0410  0.1773  0.0412
11550TIP3    H156065   3.007   0.436  15.868  0.4449  0.7734  1.9144
11550TIP3    H256066   2.943   0.302  15.897 -0.3350  0.8006  0.3920
11551TIP3   OH256067   6.436   2.091  14.259 -0.2734  0.4685 -0.3101
11551TIP3    H156068   6.414   2.070  14.169  1.2804  1.1436 -0.8842
11551TIP3    H256069   6.386   2.171  14.278 -1.2071 -0.1084 -0.2888
11552TIP3   OH256070   4.119   0.316   1.642 -0.1512 -0.5342  0.1429
11552TIP3    H156071   4.028   0.315   1.671 -1.0096  0.3164 -2.2649
11552TIP3    H256072   4.150   0.404   1.663 -1.0313  0.3655 -2.0549
11553TIP3   OH256073   2.392   0.159   5.397  0.1787  0.2130 -0.3578
11553TIP3    H156074   2.330   0.182   5.328  0.8399 -1.6916 -1.6779
11553TIP3    H256075   2.478   0.180   5.359  0.5084 -0.1238  0.1977
11554TIP3   OH256076   2.761   6.197   4.163 -0.4803  0.0116  0.5658
11554TIP3    H156077   2.694   6.258   4.132 -2.9876 -0.6424  4.1167
11554TIP3    H256078   2.780   6.142   4.086 -1.2362  2.5084 -1.5535
11555TIP3   OH256079   4.837   2.271   0.340 -0.2318  0.1657 -0.7431
11555TIP3    H156080   4.850   2.264   0.245 -1.6548 -1.3065 -0.8801
11555TIP3    H256081   4.817   2.182   0.368 -0.4396  0.6822  0.8616
11556TIP3   OH256082   2.018   0.039  13.065 -0.1502  0.5144  0.2432
11556TIP3    H156083   1.975   0.117  13.100 -0.0241  0.0723  1.4162
11556TIP3    H256084   2.084   0.072  13.005  0.3795  1.3481  1.2668
11557TIP3   OH256085   2.314   3.943   1.361 -0.4248 -0.3926  0.1203
11557TIP3    H156086   2.338   3.889   1.286  0.4854 -0.5862  0.5286
11557TIP3    H256087   2.347   3.893   1.437 -0.4516  0.2608  0.5673
11558TIP3   OH256088   1.504   2.357   3.606  0.3540  0.0064  0.0928
11558TIP3    H156089   1.589   2.314   3.599  1.3138  1.7648  0.4906
11558TIP3    H256090   1.460   2.312   3.679  1.6380  0.1829  1.0116
11559TIP3   OH256091   3.331   2.980   3.895  0.1021 -0.4420  0.4758
11559TIP3    H156092   3.258   2.998   3.954 -0.0500 -0.1562  0.2019
11559TIP3    H256093   3.396   3.047   3.917 -0.1390 -0.0496  0.0091
11560TIP3   OH256094   2.964   6.110   6.357 -0.3161  0.6185  0.2950
11560TIP3    H156095   3.008   6.039   6.403  0.7053 -0.0016 -1.5412
11560TIP3    H256096   2.871   6.092   6.369 -0.0744 -0.7610  0.2910
11561TIP3   OH256097   4.017   3.437   6.071  0.1681 -0.0108 -0.0673
11561TIP3    H156098   3.953   3.366   6.058  0.3293 -0.0215 -0.8974
11561TIP3    H256099   4.100   3.392   6.084 -0.1689 -0.0387  2.4109
11562TIP3   OH256100   0.569   4.946  12.434  0.3390  0.1210 -0.3402
11562TIP3    H156101   0.633   4.921  12.501  1.3574  1.5205 -0.7167
11562TIP3    H256102   0.600   5.032  12.404 -0.8187  0.0936 -1.6945
11563TIP3   OH256103   2.114   1.385  15.047 -0.0913  0.3331  0.2940
11563TIP3    H156104   2.149   1.375  15.135  2.8638  0.8884 -0.7179
11563TIP3    H256105   2.175   1.445  15.003 -0.8360 -0.7596 -2.4355
11564TIP3   OH256106   4.730   4.252  11.727 -0.7743 -0.0422  0.2339
11564TIP3    H156107   4.813   4.264  11.773 -1.0766  0.5349  0.6459
11564TIP3    H256108   4.680   4.331  11.747 -1.3106 -0.2495 -0.2531
11565TIP3   OH256109   2.673   5.391  15.589  0.2068 -0.2082 -0.6666
11565TIP3    H156110   2.661   5.331  15.663 -0.0694  0.5433 -0.0973
11565TIP3    H256111   2.746   5.447  15.615  1.0502 -0.8374 -1.5698
11566TIP3   OH256112   1.515   0.350  15.152  0.3846 -0.4493  0.7865
11566TIP3    H156113   1.580   0.291  15.191  0.8481  1.5428  3.2300
11566TIP3    H256114   1.474   0.394  15.226 -1.5052  0.7063 -0.8500
11567TIP3   OH256115   2.058   5.241  14.517  0.0571 -0.0526 -0.1921
11567TIP3    H156116   2.130   5.284  14.565 -1.1783  0.0201  1.6755
11567TIP3    H256117   2.021   5.311  14.464  1.3992 -0.1173 -1.2889
11568TIP3   OH256118   0.728   3.920  10.358 -0.0125 -0.5178  0.7338
11568TIP3    H156119   0.658   3.984  10.364  1.6822  1.4779  0.3541
11568TIP3    H256120   0.731   3.878  10.444 -1.3704 -0.3434  0.8796
11569TIP3   OH256121   1.768   2.098  11.794 -0.3834  0.2162 -0.1169
11569TIP3    H156122   1.741   2.182  11.831 -1.6666 -0.4679  0.5531
11569TIP3    H256123   1.863   2.095  11.809 -0.5078  1.0107  0.9757
11570TIP3   OH256124   1.731   5.939  15.610 -0.1049 -0.1070 -0.5636
11570TIP3    H156125   1.717   5.858  15.659  1.5209  0.4986  1.0014
11570TIP3    H256126   1.680   6.005  15.658  3.1818  0.9499  1.8411
11571TIP3   OH256127   5.191   4.946   5.854 -0.0504  0.0648  0.3459
11571TIP3    H156128   5.227   4.922   5.939 -0.3861 -3.1330 -0.2898
11571TIP3    H256129   5.260   4.924   5.792 -0.7791 -0.1677 -0.3995
11572TIP3   OH256130   3.764   3.748   1.761 -0.1594 -0.0162 -0.5351
11572TIP3    H156131   3.840   3.804   1.742  0.4228 -0.1198  1.2870
11572TIP3    H256132   3.702   3.806   1.804  0.4975 -0.7426  1.4736
11573TIP3   OH256133   0.287   1.169   4.813  0.6552  0.3002  0.1409
11573TIP3    H156134   0.220   1.229   4.779 -1.4039 -0.1987  2.8797
11573TIP3    H256135   0.300   1.105   4.744 -1.7685  0.4208 -0.5144
11574TIP3   OH256136   3.978   2.152  10.548  0.3257 -0.4348  0.3081
11574TIP3    H156137   4.052   2.107  10.507  0.5975  1.2598 -1.1747
11574TIP3    H256138   3.902   2.129  10.494  0.2654 -0.0476  0.2232
11575TIP3   OH256139   5.153   5.668   5.284  0.0646 -0.0471 -0.4852
11575TIP3    H156140   5.156   5.762   5.301 -1.1779 -0.1340  0.3676
11575TIP3    H256141   5.213   5.630   5.349 -0.2099  0.0870 -0.1471
11576TIP3   OH256142   4.787   0.699   6.806  0.0862  0.3214  0.2418
11576TIP3    H156143   4.818   0.668   6.720  0.2683 -0.9023  0.7290
11576TIP3    H256144   4.810   0.629   6.866 -0.9698  0.7057  1.1264
11577TIP3   OH256145   5.957   4.138  12.914 -0.0175  0.7431 -1.0119
11577TIP3    H156146   6.036   4.192  12.917  1.2795 -1.1213  0.2489
11577TIP3    H256147   5.975   4.074  12.845  1.4159 -2.2003  1.8488
11578TIP3   OH256148   4.778   5.690  14.714  0.4327 -0.3849 -0.1713
11578TIP3    H156149   4.799   5.604  14.751  0.9504  0.0432  0.5577
11578TIP3    H256150   4.823   5.691  14.629  0.4534 -0.8184 -0.1667
11579TIP3   OH256151   3.182   1.999  11.273 -0.5346 -0.1692 -0.1411
11579TIP3    H156152   3.143   1.968  11.191  0.6102 -0.4255 -0.6118
11579TIP3    H256153   3.157   1.933  11.338 -0.8230 -0.3600 -0.4412
11580TIP3   OH256154   2.871   0.883  11.475 -0.3079  0.2569  0.1496
11580TIP3    H156155   2.945   0.838  11.434  0.0812 -1.9683  3.0425
11580TIP3    H256156   2.906   0.917  11.557 -2.0093  1.0595  0.5846
11581TIP3   OH256157   0.901   5.074   0.267 -0.0802  0.3202 -0.3255
11581TIP3    H156158   0.862   5.152   0.227  0.8193  0.0454 -1.7949
11581TIP3    H256159   0.989   5.070   0.231 -0.3816 -1.8332 -0.9452
11582TIP3   OH256160   1.420   2.505   3.081  0.6576  0.6426 -0.2774
11582TIP3    H156161   1.422   2.500   2.986  0.9053  1.7500 -0.3516
11582TIP3    H256162   1.510   2.527   3.106  0.9797 -1.2008  0.3439
11583TIP3   OH256163   4.208   3.826   0.240  0.1203  0.4415 -0.0094
11583TIP3    H156164   4.153   3.759   0.281  1.3844  0.0562  1.1160
11583TIP3    H256165   4.285   3.779   0.210 -0.6873  0.7369 -2.8137
11584TIP3   OH256166   2.127   3.356  13.407 -0.0421 -0.3943 -0.6065
11584TIP3    H156167   2.156   3.293  13.341 -1.1408 -0.8851 -0.6344
11584TIP3    H256168   2.110   3.437  13.358  0.4178 -0.3571 -0.7134
11585TIP3   OH256169   3.699   6.594  13.323  0.0468 -0.0066  0.6882
11585TIP3    H156170   3.657   6.510  13.342 -0.2423  0.0346  0.2463
11585TIP3    H256171   3.757   6.609  13.397 -0.0693 -0.4895  0.8803
11586TIP3   OH256172   6.385   2.542  13.874 -0.5715  0.2552  0.1765
11586TIP3    H156173   6.480   2.552  13.876 -0.6469  1.2156 -0.2290
11586TIP3    H256174   6.368   2.458  13.917  0.4169  0.3422  0.7581
11587TIP3   OH256175   5.999   3.997   3.636  0.6417  0.2476 -0.1280
11587TIP3    H156176   6.093   3.991   3.654  0.6140  0.8843  0.2443
11587TIP3    H256177   5.962   4.037   3.714  0.3209  1.6657 -0.9582
11588TIP3   OH256178   5.776   0.864   4.098  0.6124  0.2517  0.3254
11588TIP3    H156179   5.782   0.884   4.192 -0.4915 -1.6367  0.8793
11588TIP3    H256180   5.850   0.908   4.058  0.1066  2.5943  1.8090
11589TIP3   OH256181   4.205   4.685   0.036  0.4319 -0.1359  0.3258
11589TIP3    H156182   4.172   4.761  -0.012 -1.0939  0.3790  2.0609
11589TIP3    H256183   4.279   4.718   0.087 -0.2165  0.2266  1.0611
11590TIP3   OH256184   0.724   4.523   1.936  0.3011  0.2688 -0.7378
11590TIP3    H156185   0.775   4.594   1.896  1.0957  1.0802  1.5278
11590TIP3    H256186   0.718   4.548   2.028 -2.7010 -0.7292 -0.5719
11591TIP3   OH256187   4.592   1.297  16.305 -0.5173  0.3641 -0.2829
11591TIP3    H156188   4.536   1.373  16.289 -0.0144  0.5388 -1.2977
11591TIP3    H256189   4.666   1.309  16.246 -0.9182 -1.4101 -1.2236
11592TIP3   OH256190   1.012   2.752   6.044 -0.1590  0.2522 -0.0809
11592TIP3    H156191   1.099   2.777   6.011 -0.4270  1.2712 -0.0502
11592TIP3    H256192   1.007   2.658   6.028  0.9273  0.1870 -0.1430
11593TIP3   OH256193   4.702   1.975   1.215 -0.2472 -0.0994 -0.0986
11593TIP3    H156194   4.659   1.988   1.130 -0.5336 -2.5248 -0.4002
11593TIP3    H256195   4.650   2.028   1.276 -0.2490  1.4026 -1.3607
11594TIP3   OH256196   1.916   5.291   4.389 -0.0018 -0.1320  0.1552
11594TIP3    H156197   1.961   5.354   4.332  3.1321 -1.7373  0.6489
11594TIP3    H256198   1.895   5.217   4.331  1.4331 -0.9460  0.6318
11595TIP3   OH256199   3.885   4.825   4.510  0.1692  0.2059  0.3027
11595TIP3    H156200   3.967   4.815   4.462 -0.2641  0.2207 -0.4551
11595TIP3    H256201   3.881   4.918   4.532 -1.4708  1.0672 -3.0756
11596TIP3   OH256202   3.245   5.881   3.669 -0.2331  0.3710  0.5756
11596TIP3    H156203   3.334   5.864   3.637 -0.6858 -0.0987 -0.4722
11596TIP3    H256204   3.255   5.887   3.764  1.3071  2.6675  0.3560
11597TIP3   OH256205   1.224   4.873   3.881 -0.8220  0.0936  0.4169
11597TIP3    H156206   1.278   4.935   3.931  0.2707 -0.0833 -0.4873
11597TIP3    H256207   1.240   4.788   3.922 -0.3997  0.0447  0.1637
11598TIP3   OH256208   1.216   3.146  12.334 -0.4760 -0.6856 -0.0249
11598TIP3    H156209   1.240   3.231  12.369 -1.6628  0.2477 -1.3455
11598TIP3    H256210   1.296   3.093  12.342  0.8951  1.1218 -0.8624
11599TIP3   OH256211   0.318   4.534  11.030  0.3285  0.3498 -0.2585
11599TIP3    H156212   0.234   4.509  10.992  0.1963  1.2995 -0.5872
11599TIP3    H256213   0.296   4.571  11.116  0.6375 -2.0014  0.9448
11600TIP3   OH256214   3.141   1.853  13.567 -0.2300 -0.0955  0.5815
11600TIP3    H156215   3.046   1.861  13.571 -0.1721  0.6444  3.7722
11600TIP3    H256216   3.160   1.769  13.609  0.5308 -0.8726 -1.2177
11601TIP3   OH256217   4.740   1.966  15.875 -0.0408  0.2568  0.1125
11601TIP3    H156218   4.761   1.885  15.922 -0.3797 -1.1828 -2.0867
11601TIP3    H256219   4.805   1.970  15.805 -1.2800  0.7832 -1.0355
11602TIP3   OH256220   1.926   1.811   5.093  0.1737 -0.2587 -0.6909
11602TIP3    H156221   1.849   1.781   5.046  0.4163 -2.3055  0.1180
11602TIP3    H256222   1.892   1.875   5.156 -0.9725 -1.4793 -0.0192
11603TIP3   OH256223   3.505   1.649  14.986 -0.1462 -0.4361  0.1304
11603TIP3    H156224   3.473   1.657  15.076 -0.2101  1.5808 -0.0340
11603TIP3    H256225   3.491   1.557  14.965  2.2877 -1.6657  3.0395
11604TIP3   OH256226   4.779   0.067   2.946  0.2144 -0.1644 -0.0401
11604TIP3    H156227   4.803  -0.007   3.002 -0.6150 -0.4885 -0.1029
11604TIP3    H256228   4.684   0.069   2.948  0.2086  0.4655 -0.6109
11605TIP3   OH256229   5.546   6.187   6.905  0.4497 -0.4352 -0.0901
11605TIP3    H156230   5.505   6.130   6.839 -2.3247  1.1822  0.0646
11605TIP3    H256231   5.637   6.158   6.909 -0.3958 -3.7090 -1.2099
11606TIP3   OH256232   3.390   1.868  15.450  0.0385  0.3599 -0.1904
11606TIP3    H156233   3.392   1.775  15.473 -1.3056  0.2468 -0.4366
11606TIP3    H256234   3.466   1.906  15.495 -0.2170 -0.5868  1.1093
11607TIP3   OH256235   1.143   1.401  12.872  0.0507  0.5351  0.5214
11607TIP3    H156236   1.071   1.420  12.811 -2.6729  1.2107  3.6297
11607TIP3    H256237   1.221   1.397  12.817 -2.2829 -0.0737 -3.1067
11608TIP3   OH256238   1.507   4.740   5.904 -0.5387  0.6622  0.5216
11608TIP3    H156239   1.439   4.802   5.876 -0.4671  0.1991 -0.7497
11608TIP3    H256240   1.459   4.672   5.951 -0.6669  1.4511  1.5644
11609TIP3   OH256241   0.036   2.376  15.044  0.3009 -0.1137 -0.2328
11609TIP3    H156242   0.066   2.421  14.965 -1.0423  0.5822 -0.3727
11609TIP3    H256243   0.002   2.292  15.012  0.0092  0.0543 -0.3759
11610TIP3   OH256244   1.662   2.282  13.380 -0.0690 -0.5132  0.4948
11610TIP3    H156245   1.742   2.255  13.336  0.1712  3.9223 -2.4160
11610TIP3    H256246   1.591   2.255  13.321 -0.2813 -0.0748  0.5438
11611TIP3   OH256247   2.822   1.566   1.954 -0.2467 -0.1931  0.4341
11611TIP3    H156248   2.875   1.543   2.030  0.8456  1.1280  0.1020
11611TIP3    H256249   2.744   1.510   1.962  0.5693 -1.2166  1.6425
11612TIP3   OH256250   2.359   5.753  13.481 -0.9316  0.1738 -0.3058
11612TIP3    H156251   2.405   5.836  13.496  1.6594 -0.9325 -1.5542
11612TIP3    H256252   2.287   5.776  13.422 -0.1686  1.5002 -0.7601
11613TIP3   OH256253   6.663   1.799   3.360 -0.4738  0.0901 -0.1597
11613TIP3    H156254   6.609   1.777   3.284  1.4818  0.2517 -1.6452
11613TIP3    H256255   6.709   1.718   3.381 -2.7265 -0.6938  2.4708
11614TIP3   OH256256   3.552   1.563  13.046 -0.0941 -0.3509  0.0979
11614TIP3    H156257   3.635   1.523  13.073  0.0891  0.1547  0.2933
11614TIP3    H256258   3.577   1.624  12.976 -0.1041  0.8238  1.0934
11615TIP3   OH256259   4.104   1.515   4.272 -0.1713  0.6079 -0.1612
11615TIP3    H156260   4.018   1.492   4.307  0.7652 -0.3935  1.6206
11615TIP3    H256261   4.097   1.498   4.178 -1.0442 -2.5897  0.3444
11616TIP3   OH256262   0.723   1.443   2.302 -0.1178 -0.2239 -0.4085
11616TIP3    H156263   0.673   1.442   2.384 -0.5560 -2.3964 -0.6467
11616TIP3    H256264   0.670   1.391   2.241  2.0554 -2.0546 -0.8676
11617TIP3   OH256265   3.542   6.493  15.009  0.3265  0.1834  0.0087
11617TIP3    H156266   3.551   6.414  14.955 -0.2907  0.4302 -0.4694
11617TIP3    H256267   3.543   6.461  15.099 -0.6796 -0.4533 -0.1958
11618TIP3   OH256268   4.342   4.371   0.823  0.2613 -0.2083  0.3263
11618TIP3    H156269   4.366   4.459   0.850 -0.9947  0.0594  0.6574
11618TIP3    H256270   4.303   4.332   0.901 -0.8389 -0.4093 -0.2913
11619TIP3   OH256271   3.928   3.904   4.033  0.5798 -0.1470 -0.4550
11619TIP3    H156272   3.976   3.821   4.033 -1.2505 -1.2855  0.1843
11619TIP3    H256273   3.920   3.928   4.125 -0.0294  0.0231 -0.5435
11620TIP3   OH256274   4.803   0.259  12.300 -1.2202  0.2573 -0.1458
11620TIP3    H156275   4.819   0.310  12.379 -0.6289  1.3276 -0.9308
11620TIP3    H256276   4.837   0.172  12.321  0.3686  0.9364  0.2576
11621TIP3   OH256277   2.801   4.197  13.442 -0.1254  0.2445  0.3640
11621TIP3    H156278   2.758   4.122  13.400  2.8927 -0.0816 -2.6835
11621TIP3    H256279   2.830   4.251  13.369  1.8863  1.9239  2.2692
11622TIP3   OH256280   2.715   1.988   2.856  0.5449  0.8824  0.4407
11622TIP3    H156281   2.657   2.035   2.915 -1.6943  1.2230 -1.8699
11622TIP3    H256282   2.732   1.905   2.900 -2.9758  0.1384  0.6199
11623TIP3   OH256283   2.958   6.556  12.692  0.1639  0.2480 -0.8871
11623TIP3    H156284   2.894   6.589  12.629  1.3497  1.7132 -1.3916
11623TIP3    H256285   2.943   6.462  12.694 -2.8572  0.6246 -0.0017
11624TIP3   OH256286   0.613   4.257   3.956 -0.2487 -0.4752 -0.2287
11624TIP3    H156287   0.538   4.265   3.896 -0.2141  2.1341 -0.0484
11624TIP3    H256288   0.689   4.272   3.900 -0.0955  0.1244  0.1353
11625TIP3   OH256289   5.826   3.328   1.422  0.3908  0.8313 -0.0541
11625TIP3    H156290   5.875   3.246   1.420  0.9803  1.1646  0.4344
11625TIP3    H256291   5.868   3.382   1.355 -1.0145  0.1965 -1.5448
11626TIP3   OH256292   1.513   3.329  15.213 -0.3599  0.0766 -0.8224
11626TIP3    H156293   1.492   3.248  15.260 -1.1457  1.0808  0.6136
11626TIP3    H256294   1.595   3.309  15.168  1.0063 -0.6717  1.7944
11627TIP3   OH256295   6.008   5.895  13.184  0.1422 -0.4555 -0.8177
11627TIP3    H156296   6.065   5.864  13.113  1.8635 -1.2742  0.8319
11627TIP3    H256297   5.924   5.854  13.166  0.4405 -0.4291 -2.5157
11628TIP3   OH256298   2.523   6.739  14.679  0.4626  0.2674 -0.1579
11628TIP3    H156299   2.599   6.686  14.656  0.2950 -0.5351  1.0487
11628TIP3    H256300   2.467   6.736  14.601  2.0455  1.6388 -1.4236
11629TIP3   OH256301   0.233   6.258   1.590  0.4575  0.0950 -0.1656
11629TIP3    H156302   0.320   6.226   1.566  0.3301 -1.0182  0.8078
11629TIP3    H256303   0.177   6.235   1.516  0.8387  0.1768 -0.4817
11630TIP3   OH256304   5.775   6.273  12.684  0.5995 -0.3821 -0.6857
11630TIP3    H156305   5.780   6.289  12.590 -1.8702  0.1427 -0.7827
11630TIP3    H256306   5.747   6.182  12.691 -1.7872  0.2796 -0.6111
11631TIP3   OH256307   2.280   5.315   0.891 -0.3275 -0.2116 -0.0974
11631TIP3    H156308   2.236   5.345   0.811  0.1165 -0.6614 -0.5169
11631TIP3    H256309   2.302   5.396   0.938  1.6441  0.2230 -1.6378
11632TIP3   OH256310   4.827   2.309   3.570 -0.2306  0.5177  0.4983
11632TIP3    H156311   4.903   2.303   3.627 -0.2910  0.3388  0.5608
11632TIP3    H256312   4.838   2.238   3.507 -0.7456  0.0012  0.9896
11633TIP3   OH256313   5.132   2.340   3.401 -0.4070 -0.0573 -0.0707
11633TIP3    H156314   5.159   2.384   3.321 -1.6063  1.7016  0.4242
11633TIP3    H256315   5.091   2.409   3.454 -0.0638 -1.2431  1.8684
11634TIP3   OH256316   2.611   5.320   3.538  0.0371 -0.6670  0.0307
11634TIP3    H156317   2.703   5.301   3.554  0.2579  0.2654 -0.0453
11634TIP3    H256318   2.597   5.293   3.447  0.3793 -0.3277 -0.1273
11635TIP3   OH256319   1.628   6.420  16.729 -0.1358  0.6457  0.0408
11635TIP3    H156320   1.710   6.389  16.767 -0.3605 -0.6629 -0.4904
11635TIP3    H256321   1.560   6.374  16.778 -0.4627 -0.1807 -1.1630
11636TIP3   OH256322   0.091   6.205   2.704 -0.4865  0.2042  0.5303
11636TIP3    H156323   0.029   6.134   2.682 -0.1547 -0.4538  1.6581
11636TIP3    H256324   0.174   6.177   2.665 -0.6153  0.5371  0.0010
11637TIP3   OH256325   4.621   5.112   4.162  0.1643 -0.1948  0.3384
11637TIP3    H156326   4.632   5.062   4.081 -0.3291  0.8681 -0.4192
11637TIP3    H256327   4.685   5.075   4.223 -0.9962 -2.5244  0.2300
11638TIP3   OH256328   2.466   4.872  14.779  0.2199  0.1611  0.1740
11638TIP3    H156329   2.430   4.784  14.787 -0.5811  0.6018  2.0825
11638TIP3    H256330   2.422   4.910  14.703 -2.4652  0.2318  1.6568
11639TIP3   OH256331   0.774   2.732   2.123  0.6907 -0.3263  0.3114
11639TIP3    H156332   0.695   2.756   2.172 -1.5531  2.7688 -4.0902
11639TIP3    H256333   0.844   2.782   2.164 -0.7127  0.9820  1.2161
11640TIP3   OH256334   6.606   3.826   2.720  0.5837  0.8571  0.4298
11640TIP3    H156335   6.528   3.784   2.682  0.2555  1.2527  0.6610
11640TIP3    H256336   6.604   3.915   2.687  2.4408  0.1640 -1.7995
11641TIP3   OH256337   6.177   2.370  15.098  0.0846  0.1750 -0.2539
11641TIP3    H156338   6.109   2.302  15.105 -0.2234  0.1316 -2.8346
11641TIP3    H256339   6.259   2.321  15.097  0.1449  0.1509  1.6133
11642TIP3   OH256340   6.705   0.310  10.810 -0.3210  0.0380  0.1397
11642TIP3    H156341   6.659   0.295  10.727 -1.8338 -0.2329  0.9787
11642TIP3    H256342   6.746   0.226  10.830 -1.2781 -0.3775  0.4206
11643TIP3   OH256343   5.318   0.347  16.975 -0.1727 -0.5138 -0.3739
11643TIP3    H156344   5.291   0.375  17.062 -0.6966 -0.6628 -0.4841
11643TIP3    H256345   5.303   0.252  16.974 -0.0193 -0.5380 -0.5718
11644TIP3   OH256346   4.497   4.691   0.487  0.1758 -0.0434 -0.2313
11644TIP3    H156347   4.577   4.680   0.434  0.3937 -1.5274  0.3491
11644TIP3    H256348   4.440   4.619   0.458  0.1782 -0.6990  1.3062
11645TIP3   OH256349   6.177   1.658  13.254 -0.6144 -0.4061  0.0260
11645TIP3    H156350   6.244   1.686  13.191  0.6646  1.8260  2.2206
11645TIP3    H256351   6.217   1.583  13.299  0.1358  0.4395  0.8038
11646TIP3   OH256352   5.978   1.014  12.521  0.2433 -0.1007 -0.0594
11646TIP3    H156353   5.947   1.104  12.538  0.4852 -0.0505  0.1270
11646TIP3    H256354   5.949   0.996  12.432 -0.2536 -0.0257  0.0787
11647TIP3   OH256355   1.132   1.858   4.185 -0.0863  0.3560 -0.2353
11647TIP3    H156356   1.055   1.808   4.212 -0.6449  1.6710  0.7215
11647TIP3    H256357   1.096   1.938   4.145  0.7743  0.0500 -1.7023
11648TIP3   OH256358   1.061   5.362   2.561  0.3041 -0.2871 -0.1671
11648TIP3    H156359   0.975   5.356   2.603  0.4342  0.8454  0.3102
11648TIP3    H256360   1.110   5.288   2.595 -0.1332 -0.3145  0.4222
11649TIP3   OH256361   2.051   0.662   5.541 -0.0660 -0.3025 -0.3543
11649TIP3    H156362   2.113   0.589   5.541 -0.4207 -0.6197  0.4393
11649TIP3    H256363   2.052   0.695   5.451  1.6434  0.0434 -0.2333
11650TIP3   OH256364   6.115   2.573  16.219  0.0370 -0.0595 -0.4971
11650TIP3    H156365   6.073   2.600  16.138  0.5988 -1.2754 -1.2254
11650TIP3    H256366   6.133   2.479  16.207  1.1510 -0.0206  0.5759
11651TIP3   OH256367   4.256   0.395  13.798  0.5992  0.0692 -0.5051
11651TIP3    H156368   4.183   0.441  13.756  0.0712  0.8123  1.1554
11651TIP3    H256369   4.334   0.432  13.755  0.1577  2.1803  0.3816
11652TIP3   OH256370   5.733   2.062   5.292 -0.2292 -0.5184  0.1357
11652TIP3    H156371   5.824   2.073   5.262  0.0519 -0.9713  0.7792
11652TIP3    H256372   5.683   2.045   5.213  0.3597 -0.8754 -0.1687
11653TIP3   OH256373   4.137   3.735  13.914 -0.2509  0.4208  0.3518
11653TIP3    H156374   4.158   3.670  13.847  0.2453  0.5361  0.3932
11653TIP3    H256375   4.217   3.743  13.966 -0.6089  0.3847  0.9188
11654TIP3   OH256376   4.685   3.576  15.035  0.0816  0.0236 -0.0874
11654TIP3    H156377   4.711   3.552  15.124  0.0680 -2.1976 -0.6265
11654TIP3    H256378   4.590   3.564  15.033 -0.0245  0.8197 -0.2053
11655TIP3   OH256379   2.498   0.541   2.677 -0.4500 -0.1232  0.4586
11655TIP3    H156380   2.576   0.573   2.723  0.3145  0.0191 -0.8798
11655TIP3    H256381   2.427   0.553   2.739  0.8070 -1.8104  2.3945
11656TIP3   OH256382   0.141   5.538  13.351 -0.2596 -0.2813 -0.5530
11656TIP3    H156383   0.111   5.528  13.441  2.2390 -0.4580  0.3480
11656TIP3    H256384   0.083   5.604  13.313 -2.0180 -0.9681  0.8307
11657TIP3   OH256385   1.156   6.339   0.531 -0.4055 -0.3496 -0.3938
11657TIP3    H156386   1.185   6.417   0.484  2.5260 -0.5263  0.9450
11657TIP3    H256387   1.163   6.361   0.623 -2.0116 -1.4015  0.0348
11658TIP3   OH256388   2.185   2.751  14.277  0.5668 -0.2052 -0.7872
11658TIP3    H156389   2.188   2.832  14.225  0.8830 -0.5358 -1.2888
11658TIP3    H256390   2.095   2.746  14.309  0.6029  0.4619 -0.5691
11659TIP3   OH256391   3.956   0.689   2.065 -0.0358  0.0882  0.0501
11659TIP3    H156392   3.874   0.667   2.109 -0.1302  2.9016  1.5292
11659TIP3    H256393   3.935   0.766   2.012  1.1043 -0.7020 -1.6365
11660TIP3   OH256394   2.512   1.125   1.535  0.4832  0.0548  0.4971
11660TIP3    H156395   2.473   1.139   1.448 -0.2322  2.3668  1.1247
11660TIP3    H256396   2.466   1.048   1.569 -1.5088  0.9777  0.0388
11661TIP3   OH256397   2.542   0.282  15.399 -0.3575  0.6260 -0.0341
11661TIP3    H156398   2.631   0.262  15.427 -0.4479  0.7141  0.3233
11661TIP3    H256399   2.534   0.240  15.313  0.6922  2.3325 -1.0103
11662TIP3   OH256400   4.924   5.056   3.901  0.1079 -0.2551 -0.2826
11662TIP3    H156401   4.951   5.044   3.992  0.4170 -1.0433 -0.4656
11662TIP3    H256402   4.856   4.990   3.888 -2.4680  2.0859  0.3535
11663TIP3   OH256403   0.684   5.696  11.770 -0.1437  0.3757  0.5770
11663TIP3    H156404   0.771   5.663  11.749 -0.7255  0.0906 -1.5626
11663TIP3    H256405   0.699   5.786  11.800  0.9330  0.0715  0.9900
11664TIP3   OH256406   4.305   4.681   3.003  0.0940  0.4272  0.3072
11664TIP3    H156407   4.347   4.596   3.017 -0.2523  0.2450  0.2589
11664TIP3    H256408   4.307   4.694   2.908 -0.2596  0.2632  0.2779
11665TIP3   OH256409   5.540   1.691   3.617  0.1022 -0.1294  0.0715
11665TIP3    H156410   5.521   1.733   3.701 -0.7556 -0.8924  0.2750
11665TIP3    H256411   5.623   1.730   3.589  1.5265 -1.3512  2.2853
11666TIP3   OH256412   2.664   4.812   5.636 -0.2396 -0.1689 -0.3017
11666TIP3    H156413   2.627   4.749   5.573 -0.0837  0.5789 -1.1581
11666TIP3    H256414   2.650   4.771   5.721 -1.4655 -0.7068 -0.7317
11667TIP3   OH256415   6.047   3.584   2.917  1.0292  0.0514 -0.2941
11667TIP3    H156416   6.009   3.542   2.994  0.9145  0.3965 -0.1576
11667TIP3    H256417   6.093   3.660   2.952 -0.4063  1.1608 -0.7038
11668TIP3   OH256418   3.512   0.292  15.162 -0.1335  0.1063  0.1270
11668TIP3    H156419   3.500   0.379  15.125 -2.2404  0.0072  0.4303
11668TIP3    H256420   3.524   0.306  15.256  0.5070  0.1056  0.0498
11669TIP3   OH256421   3.434   6.000  14.537 -0.7947 -0.3536  0.3632
11669TIP3    H156422   3.485   6.049  14.473 -1.8628  0.8634  0.4040
11669TIP3    H256423   3.486   5.921  14.554  0.0102 -0.1963 -1.1937
11670TIP3   OH256424   0.028   1.385   3.992 -0.0492 -0.3632  0.3547
11670TIP3    H156425   0.078   1.399   4.073  0.3544  2.1037 -0.2284
11670TIP3    H256426   0.095   1.374   3.925 -0.3845 -2.1223  0.2531
11671TIP3   OH256427   1.048   2.563  13.512 -0.4447 -0.0813 -0.5583
11671TIP3    H156428   1.094   2.483  13.537  0.0429  0.6114  0.8974
11671TIP3    H256429   0.975   2.533  13.458 -0.9269 -1.6343  0.8631
11672TIP3   OH256430   1.956   5.691  12.828 -0.2057  0.2902  0.2881
11672TIP3    H156431   2.011   5.769  12.831 -0.2711  0.4209 -1.3738
11672TIP3    H256432   1.973   5.652  12.743 -1.1181 -0.8311  0.5920
11673TIP3   OH256433   5.485   6.092   6.239 -0.4721  0.4353 -0.1576
11673TIP3    H156434   5.439   6.009   6.243  0.5990 -0.1739  0.0303
11673TIP3    H256435   5.513   6.108   6.330  1.6464 -0.3822 -0.6102
11674TIP3   OH256436   2.715   2.698  16.003  0.3021 -0.1761 -0.2966
11674TIP3    H156437   2.658   2.711  15.928  0.3598  0.6554 -0.1980
11674TIP3    H256438   2.759   2.615  15.984 -1.3778 -1.1594 -0.0739
11675TIP3   OH256439   3.404   3.152   5.406 -0.0518  0.0039  0.5719
11675TIP3    H156440   3.480   3.128   5.459 -1.5288 -0.6963  2.4906
11675TIP3    H256441   3.402   3.086   5.336  0.7294 -0.3692  0.8889
11676TIP3   OH256442   5.699   1.462   2.276  0.4600  0.1176  0.2136
11676TIP3    H156443   5.686   1.408   2.199 -1.2594  1.2657 -0.3659
11676TIP3    H256444   5.614   1.463   2.319  1.2910 -0.1828  1.9362
11677TIP3   OH256445   4.837   0.730  14.674  0.3824 -0.4363  1.2545
11677TIP3    H156446   4.901   0.796  14.648  0.3058 -1.3356 -1.4902
11677TIP3    H256447   4.890   0.654  14.698  0.3840 -0.3301  1.6004
11678TIP3   OH256448   2.353   1.124   1.307 -0.1856 -0.2813  0.1775
11678TIP3    H156449   2.432   1.155   1.263 -0.8701  1.9256  0.3709
11678TIP3    H256450   2.287   1.123   1.239 -0.5919  0.4728  0.5441
11679TIP3   OH256451   6.059   5.870   2.589 -0.4661  0.0213 -0.4796
11679TIP3    H156452   6.095   5.926   2.521  0.5117 -0.3625 -0.2953
11679TIP3    H256453   6.041   5.929   2.663  2.3108 -0.1196  0.4076
11680TIP3   OH256454   5.343   1.668  10.852 -0.6765  0.2094  0.6285
11680TIP3    H156455   5.300   1.747  10.819 -0.8233  0.1448  0.6626
11680TIP3    H256456   5.347   1.681  10.947 -2.0620 -0.4826  0.8101
11681TIP3   OH256457   4.428   4.417  12.746  0.1803 -0.4638  0.1441
11681TIP3    H156458   4.428   4.409  12.842 -0.9834  0.2259  0.2326
11681TIP3    H256459   4.509   4.462  12.726  0.9521 -1.5587  0.6998
11682TIP3   OH256460   2.620   6.116  14.750 -0.3744 -0.0989 -0.3739
11682TIP3    H156461   2.697   6.142  14.699 -0.5683 -3.0554 -2.4365
11682TIP3    H256462   2.650   6.118  14.841  1.5334  0.7228 -0.9716
11683TIP3   OH256463   5.948   4.220  16.481  0.4319  0.1029  1.1333
11683TIP3    H156464   5.965   4.127  16.496  1.7535  0.5089  2.3867
11683TIP3    H256465   6.024   4.264  16.519 -1.5085  1.8544  3.2422
11684TIP3   OH256466   0.097   3.764  12.565 -0.5214  0.6033  0.1674
11684TIP3    H156467   0.150   3.823  12.619  1.2947 -0.2347 -0.6222
11684TIP3    H256468   0.125   3.783  12.475 -0.3337 -1.0247 -0.1393
11685TIP3   OH256469   2.446   2.957   4.856  0.0623 -0.0830 -0.4457
11685TIP3    H156470   2.375   2.913   4.810  0.3345 -1.0247  0.0202
11685TIP3    H256471   2.526   2.913   4.826  0.6686  1.9224 -2.1239
11686TIP3   OH256472   1.487   5.614  16.580 -0.1643  0.2148  0.1922
11686TIP3    H156473   1.510   5.673  16.508  0.6891  0.2496  0.4734
11686TIP3    H256474   1.450   5.537  16.538 -0.8415  0.7503 -0.2095
11687TIP3   OH256475   0.471   6.179  15.667  0.1006 -0.5729 -0.0838
11687TIP3    H156476   0.387   6.221  15.688  0.4295  1.2471 -2.0267
11687TIP3    H256477   0.536   6.228  15.718  0.1684 -0.8894  0.1380
11688TIP3   OH256478   0.252   6.521  16.919  0.0246 -0.6195 -0.2921
11688TIP3    H156479   0.316   6.487  16.856  2.7030  1.1418  1.3011
11688TIP3    H256480   0.252   6.456  16.989  1.8921  0.4358  0.7567
11689TIP3   OH256481   3.017   0.055   2.850  0.6354  0.0756 -0.4649
11689TIP3    H156482   3.050   0.136   2.888  1.1501 -0.6174  0.6121
11689TIP3    H256483   2.926   0.074   2.827 -0.0773  0.2258  2.1775
11690TIP3   OH256484   4.370   5.165  10.824 -0.1406  0.0712  0.0164
11690TIP3    H156485   4.423   5.244  10.833  2.0103 -1.4710  2.1701
11690TIP3    H256486   4.292   5.182  10.877  0.4972  0.5853  0.7990
11691TIP3   OH256487   5.853   4.787  16.884  0.3498 -0.2012 -0.4900
11691TIP3    H156488   5.888   4.771  16.796 -0.4514  1.2939 -1.1241
11691TIP3    H256489   5.910   4.854  16.921  0.4598 -0.5558 -0.0185
11692TIP3   OH256490   3.382   6.773  16.833 -0.5024 -0.1638 -0.1893
11692TIP3    H156491   3.392   6.868  16.830 -2.4926  0.1004  0.3894
11692TIP3    H256492   3.346   6.751  16.747  0.7352 -0.5425 -0.6396
11693TIP3   OH256493   4.519   2.343   5.710  0.9265  0.4387 -0.2296
11693TIP3    H156494   4.582   2.285   5.668 -0.1726 -0.7469 -0.2895
11693TIP3    H256495   4.435   2.319   5.673 -0.0865 -0.5001  2.4067
11694TIP3   OH256496   0.436   1.195  14.481  0.1997 -0.8884 -0.2607
11694TIP3    H156497   0.478   1.260  14.424 -0.2637 -0.7725 -0.4768
11694TIP3    H256498   0.431   1.238  14.566 -0.3368 -0.5319 -0.4643
11695TIP3   OH256499   1.237   4.216  13.406  0.2183 -0.0168  0.3208
11695TIP3    H156500   1.240   4.216  13.311  0.9461  3.1558  0.2061
11695TIP3    H256501   1.149   4.247  13.428  0.6994  1.2577  0.5551
11696TIP3   OH256502   0.754   4.300  14.838  0.1681 -0.7066  0.5896
11696TIP3    H156503   0.672   4.272  14.797  0.2693  0.4711 -0.4664
11696TIP3    H256504   0.822   4.276  14.776  0.5539 -0.8545  1.0599
11697TIP3   OH256505   3.199   6.424  11.216 -0.2970 -0.2084  0.6089
11697TIP3    H156506   3.205   6.428  11.311 -1.6785  0.8316  0.6885
11697TIP3    H256507   3.281   6.464  11.185  0.0541 -0.3272  1.3593
11698TIP3   OH256508   3.815   2.010  11.718 -0.6797 -0.8290  0.3186
11698TIP3    H156509   3.740   2.069  11.706 -0.0859  0.1419  1.2241
11698TIP3    H256510   3.776   1.923  11.723 -2.2332 -0.1163  4.3424
11699TIP3   OH256511   2.910   1.711  12.939  0.4174 -0.3558  0.2086
11699TIP3    H156512   2.946   1.799  12.938  0.3442 -0.3225  0.4220
11699TIP3    H256513   2.950   1.667  12.863  0.3338 -0.0933  0.0136
11700TIP3   OH256514   1.354   6.060   4.979  0.1938 -0.1507 -0.2348
11700TIP3    H156515   1.434   6.009   4.990  0.5564  0.4050 -0.2739
11700TIP3    H256516   1.286   5.994   4.963  0.6397 -0.6245 -0.2120
11701TIP3   OH256517   3.915   3.551   0.781  0.0582  0.0847  0.4088
11701TIP3    H156518   3.950   3.628   0.825 -0.1365  0.0404  0.6459
11701TIP3    H256519   3.914   3.574   0.688 -5.1258  2.5694  0.7274
11702TIP3   OH256520   3.572   3.960  13.884  0.5769 -0.6938 -0.4823
11702TIP3    H156521   3.627   3.916  13.948  1.6440  0.7144 -0.3813
11702TIP3    H256522   3.627   4.030  13.849 -1.0007  0.4742 -0.7306
11703TIP3   OH256523   0.345   1.618   4.675 -0.2866 -0.1365 -0.7615
11703TIP3    H156524   0.250   1.623   4.682 -0.2753 -0.1526 -0.5846
11703TIP3    H256525   0.377   1.687   4.733 -0.1324 -2.1002  1.6687
11704TIP3   OH256526   1.240   5.308  15.104 -0.2136  0.4157 -0.1978
11704TIP3    H156527   1.218   5.266  15.188  0.4462 -3.0194 -1.5470
11704TIP3    H256528   1.184   5.264  15.040  0.8129  1.3909 -1.8406
11705TIP3   OH256529   3.124   2.512  13.902 -0.7315 -0.0941  0.0752
11705TIP3    H156530   3.184   2.482  13.970 -0.2656  1.2078  0.2630
11705TIP3    H256531   3.070   2.436  13.882 -1.3257 -0.3288  2.3608
11706TIP3   OH256532   4.235   0.409   2.671 -0.4650  0.2148  0.0591
11706TIP3    H156533   4.184   0.427   2.750  0.3908 -0.0976  0.6976
11706TIP3    H256534   4.235   0.313   2.664  1.5899  0.0758  1.1608
11707TIP3   OH256535   4.551   3.452   2.789 -0.2887 -0.0824 -0.0345
11707TIP3    H156536   4.541   3.402   2.870  1.2937  0.3512  0.4680
11707TIP3    H256537   4.645   3.445   2.769 -0.2627  1.6273 -0.6297
11708TIP3   OH256538   2.539   0.606  12.520 -0.4508 -0.8040  0.3913
11708TIP3    H156539   2.537   0.699  12.496 -1.7438 -1.1625 -1.0735
11708TIP3    H256540   2.581   0.604  12.606 -0.1376  1.1007  0.3270
11709TIP3   OH256541   4.159   2.879   2.684 -0.2305  0.1661  0.6233
11709TIP3    H156542   4.194   2.864   2.596  0.0891  0.5857  0.6746
11709TIP3    H256543   4.069   2.847   2.680 -0.1971  0.1249  0.1631
11710TIP3   OH256544   2.118   4.998   5.881  0.2307  0.4516  0.2369
11710TIP3    H156545   2.206   5.024   5.854  0.9697 -1.7760  0.2229
11710TIP3    H256546   2.129   4.963   5.970 -0.8358  1.0709  0.6280
11711TIP3   OH256547   5.016   3.517   1.784 -0.1949 -0.7227  0.1934
11711TIP3    H156548   5.008   3.468   1.702 -0.9904 -1.1715  0.5330
11711TIP3    H256549   4.930   3.510   1.825 -0.8974  2.3734 -0.5237
11712TIP3   OH256550   6.166   5.449  12.547 -0.1510 -0.6517 -0.1724
11712TIP3    H156551   6.183   5.396  12.625  0.8175  2.6558  2.0897
11712TIP3    H256552   6.073   5.433  12.527 -1.2965  0.4185  3.4901
11713TIP3   OH256553   6.567   2.278   0.342 -0.2723  0.1810  0.7796
11713TIP3    H156554   6.593   2.321   0.260 -1.0406 -1.4457 -0.3701
11713TIP3    H256555   6.473   2.262   0.332 -0.3179 -0.3316  1.8539
11714TIP3   OH256556   5.029   3.603  13.709 -0.5229 -0.1025  0.1055
11714TIP3    H156557   5.090   3.533  13.688 -1.3441 -0.8471  0.1325
11714TIP3    H256558   4.948   3.578  13.665 -1.3961 -0.1559  1.6505
11715TIP3   OH256559   1.239   5.175   2.675 -0.5581 -0.2693 -0.2652
11715TIP3    H156560   1.279   5.214   2.753  1.5234  0.1538 -1.4484
11715TIP3    H256561   1.293   5.098   2.657 -1.8377 -1.1246 -0.5463
11716TIP3   OH256562   3.402   3.776   6.538 -0.1760  0.1150  0.2164
11716TIP3    H156563   3.340   3.768   6.465 -1.0289 -0.5483  1.0067
11716TIP3    H256564   3.418   3.687   6.566  2.7482  0.0612 -1.2512
11717TIP3   OH256565   5.048   0.452  15.373 -0.2948  0.2444  0.3689
11717TIP3    H156566   4.961   0.449  15.333  0.6630  0.1684 -1.8730
11717TIP3    H256567   5.084   0.365  15.358 -0.6392 -0.5424  3.4337
11718TIP3   OH256568   5.085   6.301  11.600 -0.1138 -0.1401  0.9374
11718TIP3    H156569   5.141   6.377  11.617  0.6774 -0.3602 -0.5190
11718TIP3    H256570   4.997   6.331  11.620  0.0448  1.5557 -0.6851
11719TIP3   OH256571   6.617   0.183  15.058  0.4789 -0.3777 -0.0381
11719TIP3    H156572   6.550   0.221  15.001 -1.1966 -3.0576 -0.0250
11719TIP3    H256573   6.690   0.163  15.000  0.6164  1.0151 -0.3705
11720TIP3   OH256574   3.479   5.655  14.422 -0.2269 -0.0085 -0.1817
11720TIP3    H156575   3.549   5.677  14.483 -0.3862  0.2694 -0.0953
11720TIP3    H256576   3.521   5.601  14.356 -0.0864 -0.4467  0.2591
11721TIP3   OH256577   3.192   0.244   4.493 -0.0370 -0.2615  0.0859
11721TIP3    H156578   3.280   0.207   4.495 -0.2810 -0.9309  3.0404
11721TIP3    H256579   3.149   0.199   4.420  1.8184 -0.4299 -0.9703
11722TIP3   OH256580   4.662   0.581   5.519 -0.6429  0.5360 -0.5293
11722TIP3    H156581   4.729   0.640   5.484  1.2791 -1.8670 -1.2183
11722TIP3    H256582   4.601   0.569   5.447  0.1423  0.0753 -1.1419
11723TIP3   OH256583   1.809   2.663   4.570 -0.3081  0.0875 -0.0116
11723TIP3    H156584   1.791   2.577   4.532  0.8971 -0.0108 -0.3941
11723TIP3    H256585   1.821   2.721   4.495 -0.9912  0.5763  0.2446
11724TIP3   OH256586   1.286   4.930  13.092  0.5212  0.5128 -0.0362
11724TIP3    H156587   1.227   4.993  13.051  0.4982  1.3329  1.2163
11724TIP3    H256588   1.374   4.960  13.066  0.5609  1.6165  1.2398
11725TIP3   OH256589   2.882   4.048   1.266  0.3483 -0.3003 -0.5414
11725TIP3    H156590   2.822   4.002   1.207  0.3660 -0.2482 -0.6008
11725TIP3    H256591   2.902   3.985   1.335 -3.1425  0.8929  1.9165
11726TIP3   OH256592   5.000   3.011   1.290  0.7878  0.1021 -0.4858
11726TIP3    H156593   5.008   3.005   1.385 -1.8825 -4.3306 -0.2599
11726TIP3    H256594   4.915   3.053   1.276  1.2525  0.9011 -0.9595
11727TIP3   OH256595   2.853   1.675  12.032  0.0399 -0.0749  0.9585
11727TIP3    H156596   2.857   1.583  12.060 -2.2140 -0.3017  0.6917
11727TIP3    H256597   2.880   1.673  11.940  0.1844 -0.4343  1.0068
11728TIP3   OH256598   1.187   0.967  12.102  0.0351  0.0068  0.0399
11728TIP3    H156599   1.229   0.886  12.072 -1.5396 -1.1560  0.8121
11728TIP3    H256600   1.116   0.982  12.039 -0.4378  0.0951  0.5851
11729TIP3   OH256601   0.020   2.202  15.760 -0.4934  0.0915  0.0886
11729TIP3    H156602   0.067   2.277  15.797 -0.9125  0.8040 -0.7966
11729TIP3    H256603  -0.006   2.230  15.673 -2.6611 -0.2433  0.5827
11730TIP3   OH256604   6.711   3.622   1.041 -0.6216 -0.5105 -0.3860
11730TIP3    H156605   6.772   3.605   0.970  0.2355  0.6816  0.0336
11730TIP3    H256606   6.679   3.536   1.068  0.4349 -1.0994 -0.9948
11731TIP3   OH256607   4.527   1.016   0.007 -0.8572 -0.5208 -0.3447
11731TIP3    H156608   4.614   0.992  -0.028 -1.3632 -0.6618 -1.5654
11731TIP3    H256609   4.473   1.026  -0.071 -1.8248  0.0482  0.3911
11732TIP3   OH256610   5.470   1.437   0.837 -0.4244  0.3712 -0.0248
11732TIP3    H156611   5.389   1.456   0.790  0.2783 -0.2485 -1.5419
11732TIP3    H256612   5.535   1.496   0.800  0.3552 -0.7440 -0.5064
11733TIP3   OH256613   4.391   1.424  13.384 -0.2643 -0.1424 -0.0890
11733TIP3    H156614   4.353   1.510  13.367 -1.5363 -0.2432  2.0377
11733TIP3    H256615   4.472   1.443  13.433 -0.3986 -0.1475  0.1343
11734TIP3   OH256616   3.493   4.200   5.668 -0.2751  0.0503  0.1104
11734TIP3    H156617   3.417   4.247   5.701  0.2108 -0.7732  2.6375
11734TIP3    H256618   3.507   4.234   5.579 -1.8534  2.2642  0.6489
11735TIP3   OH256619   2.485   0.381  14.642  0.2899 -0.7522  0.3979
11735TIP3    H156620   2.580   0.374  14.645  0.4805  1.4970  0.8525
11735TIP3    H256621   2.467   0.456  14.586 -1.0696  0.5789  2.4358
11736TIP3   OH256622   1.136   1.382  13.376 -0.4910 -0.2561  0.0633
11736TIP3    H156623   1.215   1.330  13.388  1.0919  2.0347  0.1699
11736TIP3    H256624   1.089   1.339  13.305 -0.0843 -2.6701  1.1749
11737TIP3   OH256625   2.699   0.509  15.159 -0.3386 -0.1747 -0.3697
11737TIP3    H156626   2.653   0.495  15.076 -0.0796 -1.4413 -0.3187
11737TIP3    H256627   2.638   0.562  15.211 -0.6699  0.2927 -1.2092
11738TIP3   OH256628   5.315   4.483   3.605  0.4899 -0.0138  0.7111
11738TIP3    H156629   5.316   4.575   3.629 -1.1332 -0.2207  1.7230
11738TIP3    H256630   5.343   4.481   3.514  2.3781  1.2698  1.2223
11739TIP3   OH256631   3.547   4.160  12.879  0.5723  0.0496 -0.2196
11739TIP3    H156632   3.574   4.212  12.802 -0.7994  1.5596  0.2555
11739TIP3    H256633   3.590   4.076  12.867  0.9543  0.4743 -2.3016
11740TIP3   OH256634   2.694   2.354  15.036 -0.6556  0.5323  0.3557
11740TIP3    H156635   2.707   2.380  15.127  0.9201  1.3100 -0.0594
11740TIP3    H256636   2.740   2.271  15.028  0.2873  1.0721 -0.0119
11741TIP3   OH256637   5.771   6.482  12.395 -0.1959 -0.2963 -0.4018
11741TIP3    H156638   5.763   6.543  12.468  2.8059  1.2416 -1.2089
11741TIP3    H256639   5.702   6.507  12.334  0.2022  1.5309 -0.1538
11742TIP3   OH256640   3.539   3.769  11.812  0.1936  0.0077  0.7100
11742TIP3    H156641   3.520   3.678  11.788 -0.5447  0.9086 -2.7058
11742TIP3    H256642   3.629   3.767  11.844  0.9280 -1.7121 -1.1757
11743TIP3   OH256643   1.488   6.635  16.051 -0.5405  0.3026 -0.1237
11743TIP3    H156644   1.395   6.635  16.074  0.1583 -0.8665  3.2084
11743TIP3    H256645   1.522   6.716  16.088 -0.0949  0.3772 -0.6913
11744TIP3   OH256646   3.103   6.384   0.244  0.3417  0.2632  0.4533
11744TIP3    H156647   3.025   6.348   0.287 -0.4326  0.1640 -0.9874
11744TIP3    H256648   3.082   6.384   0.151  1.5488  1.5335  0.1458
11745TIP3   OH256649   1.751   5.350  17.187 -0.2525 -0.4231  0.6350
11745TIP3    H156650   1.667   5.385  17.159 -0.5425 -1.7208 -0.1759
11745TIP3    H256651   1.805   5.352  17.108 -0.9317 -3.6845 -0.0515
11746TIP3   OH256652   2.398   3.092   3.280  0.2098  0.5415 -0.1077
11746TIP3    H156653   2.405   3.160   3.213 -1.6125 -0.9442 -1.9182
11746TIP3    H256654   2.432   3.013   3.238 -1.5330 -0.5607  0.4435
11747TIP3   OH256655   3.110   0.678  12.782  0.0254  0.1492  0.3176
11747TIP3    H156656   3.051   0.682  12.857  1.5688 -1.9999  1.7689
11747TIP3    H256657   3.052   0.672  12.706 -1.6984 -2.2324  1.6769
11748TIP3   OH256658   2.371   5.299   1.369  0.2643  0.3020  0.2197
11748TIP3    H156659   2.437   5.337   1.311 -0.9719  1.1026 -0.7081
11748TIP3    H256660   2.337   5.224   1.320  0.3148  0.0286  0.5968
11749TIP3   OH256661   4.285   2.681   3.077 -0.3863  0.6260 -0.3604
11749TIP3    H156662   4.205   2.667   3.025 -0.3692 -1.2496  0.0334
11749TIP3    H256663   4.270   2.630   3.157  0.9026  0.8875  0.0624
11750TIP3   OH256664   3.086   6.575   3.375  0.0462  0.2202  0.4511
11750TIP3    H156665   3.091   6.552   3.282 -2.8082  2.9311 -0.5893
11750TIP3    H256666   3.048   6.498   3.417  0.3048 -0.6548 -0.8484
11751TIP3   OH256667   1.838   0.863  11.280  0.2160  0.0506  0.4415
11751TIP3    H156668   1.796   0.789  11.324 -1.5175  0.1257 -0.9844
11751TIP3    H256669   1.883   0.911  11.350 -1.0211 -0.7548  1.8302
11752TIP3   OH256670   0.771   6.705  17.094  0.9028 -0.6965  0.2286
11752TIP3    H156671   0.728   6.724  17.177  2.0325 -1.3899  1.0084
11752TIP3    H256672   0.702   6.670  17.038 -0.1515  1.0237  0.4020
11753TIP3   OH256673   3.764   5.486   1.694  0.0244 -0.4965  0.3235
11753TIP3    H156674   3.792   5.515   1.780 -0.5405  0.9635  0.0343
11753TIP3    H256675   3.832   5.424   1.666  1.0815  0.2893  1.1004
11754TIP3   OH256676   6.096   2.417   5.015 -0.1465 -0.1546 -0.4277
11754TIP3    H156677   6.114   2.500   4.970 -0.0178 -0.0067 -0.1039
11754TIP3    H256678   6.000   2.414   5.021 -0.1706 -0.2486 -0.8474
11755TIP3   OH256679   2.902   6.127   3.925 -0.3309 -0.0404  0.3008
11755TIP3    H156680   2.917   6.221   3.916 -0.8473  0.0346  0.1992
11755TIP3    H256681   2.905   6.094   3.835  0.2910 -0.1965  0.3701
11756TIP3   OH256682   6.198   1.832   3.627  0.5010  0.6416  0.1044
11756TIP3    H156683   6.289   1.859   3.616  1.4579 -2.6736 -1.7401
11756TIP3    H256684   6.204   1.741   3.656 -2.1881 -0.1157 -1.3886
11757TIP3   OH256685   2.184   5.106   1.828 -0.0587  0.2593  0.0622
11757TIP3    H156686   2.259   5.113   1.769  0.5730  1.1410  0.9146
11757TIP3    H256687   2.221   5.068   1.908 -0.2439  1.7491  0.8920
11758TIP3   OH256688   3.393   0.799   4.111  0.3724 -0.1996 -0.0892
11758TIP3    H156689   3.330   0.788   4.182  0.2473  0.4715 -0.0821
11758TIP3    H256690   3.467   0.845   4.151  1.2905 -1.7777  0.1185
11759TIP3   OH256691   5.951   2.107   5.668 -0.4180 -0.3620 -0.2931
11759TIP3    H156692   6.030   2.144   5.628  0.3795 -1.2025  0.4399
11759TIP3    H256693   5.933   2.165   5.742  0.3183 -0.9066  0.3351
11760TIP3   OH256694   2.993   6.665   6.538  0.3022 -0.0792 -0.0931
11760TIP3    H156695   2.963   6.755   6.543  0.2260 -0.0942 -0.2702
11760TIP3    H256696   2.932   6.616   6.593  0.8006  0.0897  0.6215
11761TIP3   OH256697   2.236   4.734  12.675  0.0841  0.1822 -0.3115
11761TIP3    H156698   2.201   4.802  12.732  0.5647 -0.3023  0.5822
11761TIP3    H256699   2.191   4.654  12.702  0.5513 -0.1126 -0.3884
11762TIP3   OH256700   1.557   4.259  16.835  0.2372 -0.0062  0.3465
11762TIP3    H156701   1.477   4.220  16.800  0.7050  1.4236 -2.7126
11762TIP3    H256702   1.627   4.200  16.807  0.4394 -0.0214  0.8885
11763TIP3   OH256703   5.097   4.541   1.364 -0.4134  0.0093  0.0755
11763TIP3    H156704   5.095   4.637   1.359 -1.1256  0.0116  0.2406
11763TIP3    H256705   5.122   4.522   1.455 -0.8592  0.0496  0.2117
11764TIP3   OH256706   3.794   0.790  12.582  0.0802 -0.8498 -0.0823
11764TIP3    H156707   3.808   0.807  12.675 -2.1869  0.3260  0.0932
11764TIP3    H256708   3.716   0.735  12.579  0.1540 -0.9127 -1.3127
11765TIP3   OH256709   4.351   5.156  14.460 -0.7136 -0.5405  0.0928
11765TIP3    H156710   4.384   5.220  14.398 -1.8327 -2.6677 -2.9094
11765TIP3    H256711   4.299   5.207  14.522 -0.5175  1.5810 -1.3925
11766TIP3   OH256712   3.552   6.192   1.083  0.4724 -0.1688 -0.1331
11766TIP3    H156713   3.638   6.193   1.042  0.8932  1.2260  0.7466
11766TIP3    H256714   3.568   6.166   1.174 -0.2211 -1.2229 -0.2860
11767TIP3   OH256715   2.580   1.847  13.524 -0.2145 -0.8868  0.3057
11767TIP3    H156716   2.642   1.901  13.475 -0.4586 -0.0862  0.8718
11767TIP3    H256717   2.595   1.870  13.615 -0.4641 -1.6362  0.5426
11768TIP3   OH256718   1.716   6.367  11.287  0.3248 -0.3362  0.0412
11768TIP3    H156719   1.773   6.441  11.266 -1.1696  1.1554  1.0187
11768TIP3    H256720   1.728   6.307  11.213 -0.1495  1.9120 -2.0241
11769TIP3   OH256721   5.020   0.798  11.655  0.4294 -0.0343 -0.2948
11769TIP3    H156722   5.024   0.722  11.597  0.8541  0.5856 -1.0834
11769TIP3    H256723   4.927   0.820  11.660  0.1827 -1.1799  0.7154
11770TIP3   OH256724   3.549   3.548   3.121  0.7558 -0.0211  0.1594
11770TIP3    H156725   3.508   3.519   3.203  1.7030  0.7927  0.9358
11770TIP3    H256726   3.563   3.642   3.132  0.2696  0.2372 -1.2229
11771TIP3   OH256727   1.158   0.825   5.032  0.0238 -0.0109  0.2164
11771TIP3    H156728   1.157   0.914   4.997  0.5153  0.4887  1.4094
11771TIP3    H256729   1.073   0.789   5.009  1.1974 -0.6861 -3.7897
11772TIP3   OH256730   3.874   3.740   4.292 -0.7813  0.0030 -0.0860
11772TIP3    H156731   3.872   3.739   4.387 -0.2986 -2.6489 -0.0413
11772TIP3    H256732   3.781   3.740   4.267 -0.9153  0.0394  0.3973
11773TIP3   OH256733   1.645   2.599   2.031  0.4709  0.0280  0.4690
11773TIP3    H156734   1.568   2.626   1.983  0.5571  0.5361  0.6091
11773TIP3    H256735   1.623   2.513   2.066 -1.2647  1.3898  3.1037
11774TIP3   OH256736   5.248   5.920   2.550  0.8220  0.4382 -0.5374
11774TIP3    H156737   5.320   5.872   2.509  1.0836  1.2577 -1.0664
11774TIP3    H256738   5.268   5.918   2.644 -0.1655 -2.0944 -0.2951
11775TIP3   OH256739   4.125   4.940  17.191  0.1825  0.2244 -0.0619
11775TIP3    H156740   4.047   4.905  17.147 -0.4524  1.2013  0.2413
11775TIP3    H256741   4.091   5.013  17.244  1.2810  0.5487  0.2124
11776TIP3   OH256742   5.239   1.857  15.940  0.1742  0.0823  0.4084
11776TIP3    H156743   5.260   1.769  15.909  1.0078  0.6411 -0.6642
11776TIP3    H256744   5.324   1.899  15.953 -0.2123  0.6497  1.1449
11777TIP3   OH256745   4.448   0.604   0.837  0.3239 -0.4577 -0.4087
11777TIP3    H156746   4.472   0.606   0.930  0.4777  1.1985 -0.4426
11777TIP3    H256747   4.359   0.569   0.836  0.6907 -1.4544  0.2508
11778TIP3   OH256748   6.064   2.926  15.418 -0.7578 -0.1467 -0.3116
11778TIP3    H156749   6.086   2.963  15.332  0.7327  0.9974  0.5315
11778TIP3    H256750   6.130   2.961  15.477 -2.2773 -0.2005  1.5009
11779TIP3   OH256751   4.265   5.827  14.676 -0.4399 -0.3124  0.3254
11779TIP3    H156752   4.287   5.737  14.698 -0.1803  0.0500  1.6411
11779TIP3    H256753   4.229   5.822  14.587  1.8968 -1.3842 -0.6666
11780TIP3   OH256754   0.908   1.270   1.046 -0.0367 -0.0856  0.4681
11780TIP3    H156755   0.887   1.335   1.113 -2.3115 -0.4996  0.2451
11780TIP3    H256756   0.872   1.307   0.965  1.0916 -0.4109 -0.2111
11781TIP3   OH256757   4.235   3.929   2.590 -0.1235  0.3275  0.7008
11781TIP3    H156758   4.312   3.875   2.602 -0.4532  0.0010  1.3927
11781TIP3    H256759   4.161   3.872   2.612 -0.7121  0.0697 -1.6650
11782TIP3   OH256760   6.372   2.145   5.509 -0.2149  0.6155 -0.6001
11782TIP3    H156761   6.387   2.144   5.415  1.2688  2.4162 -0.4572
11782TIP3    H256762   6.287   2.187   5.520  0.5496  2.4124 -1.1300
11783TIP3   OH256763   2.752   3.122  17.011  0.1056 -0.0126  0.4515
11783TIP3    H156764   2.719   3.131  17.101  0.3146  0.2082  0.5076
11783TIP3    H256765   2.764   3.028  17.000 -2.3254 -0.3149 -0.2179
11784TIP3   OH256766   2.424   4.161  16.825 -0.4628 -0.1498 -0.2288
11784TIP3    H156767   2.483   4.235  16.808 -0.3860  0.0573  0.8403
11784TIP3    H256768   2.342   4.186  16.783  0.5469 -1.0373 -2.9146
11785TIP3   OH256769   2.882   2.267   2.905 -0.5737  0.0423  0.1691
11785TIP3    H156770   2.810   2.234   2.959  0.2543 -1.6024  0.3330
11785TIP3    H256771   2.954   2.283   2.967  0.8941 -3.2918 -0.4781
11786TIP3   OH256772   4.459   2.969  15.642 -0.2313  0.6621  0.1820
11786TIP3    H156773   4.407   3.032  15.592  0.6972  3.0175  1.9558
11786TIP3    H256774   4.550   2.991  15.623  0.1489 -0.9084  0.0150
11787TIP3   OH256775   1.668   3.506  14.603 -0.3874  0.6801 -0.0470
11787TIP3    H156776   1.665   3.472  14.692 -0.4707  0.6117 -0.0764
11787TIP3    H256777   1.747   3.561  14.601 -0.6693  1.1029  0.2185
11788TIP3   OH256778   3.061   1.874   4.839  0.0340 -0.0987  0.5038
11788TIP3    H156779   3.032   1.880   4.930 -0.3792 -0.0549  0.3733
11788TIP3    H256780   3.127   1.804   4.838 -1.1882 -1.2922  0.5319
11789TIP3   OH256781   2.297   3.889   0.474  0.3361 -0.6297 -0.4103
11789TIP3    H156782   2.311   3.980   0.447 -0.3333  0.8809  3.5978
11789TIP3    H256783   2.230   3.857   0.413 -1.3692  2.4847 -0.4170
11790TIP3   OH256784   1.643   5.117  13.571  0.6062 -0.5584 -0.4623
11790TIP3    H156785   1.717   5.161  13.529  0.5377 -0.5232 -0.5455
11790TIP3    H256786   1.631   5.036  13.522  1.6143 -1.3438  0.5482
11791TIP3   OH256787   5.747   0.450   4.253  0.0193 -0.6048 -0.1135
11791TIP3    H156788   5.797   0.448   4.171 -0.7514 -1.8623 -0.5676
11791TIP3    H256789   5.669   0.397   4.236 -1.0909  0.6432  0.8502
11792TIP3   OH256790   3.393   1.256   4.377 -0.3575  0.5103 -0.1217
11792TIP3    H156791   3.384   1.321   4.447  0.8375 -0.2659  0.8109
11792TIP3    H256792   3.402   1.308   4.297 -1.1948  1.4328  0.3585
11793TIP3   OH256793   0.487   0.268  12.894 -0.0519 -0.1956 -0.1811
11793TIP3    H156794   0.563   0.292  12.841  0.6081 -0.1711  0.7536
11793TIP3    H256795   0.412   0.304  12.846  0.6758  1.4131 -0.1865
11794TIP3   OH256796   4.387   2.054  12.942  0.1292 -0.2031 -0.3171
11794TIP3    H156797   4.401   2.143  12.974  1.6364 -0.7361  0.6535
11794TIP3    H256798   4.292   2.044  12.936 -0.0666  1.3257 -0.0616
11795TIP3   OH256799   0.997   1.391   2.209 -0.0048 -0.5427  0.4027
11795TIP3    H156800   0.990   1.487   2.201  0.9126 -0.6280 -1.9561
11795TIP3    H256801   0.909   1.363   2.235 -0.8445  0.7722 -0.8965
11796TIP3   OH256802   1.613   2.779   5.699  0.1204 -0.1158 -0.2599
11796TIP3    H156803   1.599   2.694   5.657  1.8952 -1.5575  1.8599
11796TIP3    H256804   1.689   2.816   5.654  0.6175 -0.6216  0.1474
11797TIP3   OH256805   3.973   3.622  13.427 -0.3248  0.1115  0.9465
11797TIP3    H156806   3.909   3.614  13.498  2.3180  0.2722  3.5862
11797TIP3    H256807   3.992   3.716  13.422  2.3977 -0.1669  3.0773
11798TIP3   OH256808   3.791   6.071   3.643 -0.8732 -0.4283  0.3094
11798TIP3    H156809   3.786   5.976   3.635  0.3913 -0.4005 -1.4778
11798TIP3    H256810   3.856   6.086   3.712 -3.0036 -0.7650  2.5677
11799TIP3   OH256811   4.255   2.499   0.071  0.3982  0.1773 -0.2758
11799TIP3    H156812   4.276   2.406   0.065  2.0545  0.3972  1.3756
11799TIP3    H256813   4.261   2.531  -0.019  0.4368 -1.1722 -0.7676
11800TIP3   OH256814   1.209   1.094  16.367  0.7552  0.0139  0.7016
11800TIP3    H156815   1.244   1.177  16.400  1.8205  0.7177 -1.9228
11800TIP3    H256816   1.275   1.064  16.305 -1.2482 -0.9514 -1.0763
11801TIP3   OH256817   4.257   5.400   2.043 -0.9482 -0.4425  0.0624
11801TIP3    H156818   4.332   5.376   2.097 -1.1806 -5.1349 -1.2612
11801TIP3    H256819   4.293   5.416   1.956 -1.2577 -0.7825 -0.1353
11802TIP3   OH256820   1.762   1.550   5.717  0.5028 -0.0142 -1.0261
11802TIP3    H156821   1.848   1.534   5.756 -0.2446  0.7709  1.0698
11802TIP3    H256822   1.711   1.472   5.738  0.2534  0.1780 -0.9126
11803TIP3   OH256823   0.346   3.533   2.454  0.4036  0.3866  0.1305
11803TIP3    H156824   0.427   3.582   2.469 -0.0705  1.2390  0.0240
11803TIP3    H256825   0.362   3.447   2.491  1.3798  0.5248  0.0491
11804TIP3   OH256826   6.295   4.149  15.662  0.4530 -0.2970  0.6543
11804TIP3    H156827   6.280   4.228  15.714  1.0031 -0.2323  0.7193
11804TIP3    H256828   6.345   4.092  15.720  0.0626 -0.6929  0.6038
11805TIP3   OH256829   5.935   3.509   0.265 -0.4622  0.2661 -0.5786
11805TIP3    H156830   5.872   3.578   0.286  1.1555  1.4257  0.8392
11805TIP3    H256831   5.971   3.483   0.350  0.1145 -1.2081 -1.2354
11806TIP3   OH256832   6.210   0.101  14.456 -0.2608 -0.1481  0.0050
11806TIP3    H156833   6.238   0.010  14.455 -0.7694 -0.4160 -3.5856
11806TIP3    H256834   6.116   0.097  14.438 -0.2623  1.0735 -0.3279
11807TIP3   OH256835   1.565   1.827   1.009  0.1889 -0.3170 -0.4496
11807TIP3    H156836   1.470   1.838   1.003  0.2422  0.2308 -0.3123
11807TIP3    H256837   1.579   1.775   1.088  0.1588  1.8950  1.0778
11808TIP3   OH256838   3.874   2.614   1.962 -1.0654 -0.2321  0.5032
11808TIP3    H156839   3.914   2.616   2.049  1.2275 -1.0731 -0.4472
11808TIP3    H256840   3.849   2.705   1.944  0.9652  0.4522  0.9605
11809TIP3   OH256841   0.339   3.877  16.752  0.2221  0.5686 -0.4874
11809TIP3    H156842   0.398   3.802  16.746 -0.2291 -0.2469  2.9813
11809TIP3    H256843   0.396   3.953  16.744  1.7549 -0.2037  1.9977
11810TIP3   OH256844   5.233   2.147   0.725 -0.2789 -0.1446  0.3654
11810TIP3    H156845   5.174   2.196   0.782 -1.5353 -0.6058 -0.5200
11810TIP3    H256846   5.179   2.080   0.684  0.8916 -0.7124 -0.3297
11811TIP3   OH256847   3.560   2.710  10.698  0.0289 -0.3354  0.2665
11811TIP3    H156848   3.496   2.682  10.763 -0.7148 -0.5569 -0.5383
11811TIP3    H256849   3.642   2.721  10.747 -0.2145 -1.7045  1.0182
11812TIP3   OH256850   2.530   4.181   4.338 -0.6330  0.0028 -0.0388
11812TIP3    H156851   2.488   4.267   4.335  0.1271  0.3616 -2.1931
11812TIP3    H256852   2.574   4.172   4.253  1.1158 -1.6235  0.9472
11813TIP3   OH256853   1.917   4.936   1.519  0.7310  0.4573  0.0268
11813TIP3    H156854   1.890   5.023   1.490  0.8112  0.8574  1.0740
11813TIP3    H256855   1.922   4.884   1.439 -1.2220  0.8792 -0.4309
11814TIP3   OH256856   4.822   2.523  16.244 -0.4892  0.0981  0.2302
11814TIP3    H156857   4.742   2.573  16.261  0.7524  2.1299  0.2517
11814TIP3    H256858   4.837   2.533  16.150  0.1586  0.3349  0.3605
11815TIP3   OH256859   5.738   3.474  17.053 -0.3929  0.1933  0.1256
11815TIP3    H156860   5.739   3.417  16.976 -0.9725  0.7705 -0.3248
11815TIP3    H256861   5.821   3.457  17.097  0.7450  1.0853 -1.5578
11816TIP3   OH256862   6.464   3.156   5.759 -0.0058  0.3257  0.0532
11816TIP3    H156863   6.517   3.105   5.698 -0.8278 -1.2120  0.5584
11816TIP3    H256864   6.374   3.143   5.729 -0.3405  0.3316  1.0207
11817TIP3   OH256865   1.997   2.424  16.858 -0.0765  0.1024 -0.6014
11817TIP3    H156866   1.957   2.392  16.777  0.0042 -1.2996 -0.1024
11817TIP3    H256867   1.997   2.349  16.917 -1.6881  1.4931  1.3170
11818TIP3   OH256868   6.346   2.761  17.191 -0.3306  0.0619 -0.2515
11818TIP3    H156869   6.388   2.734  17.273 -0.9318  0.4043  0.1699
11818TIP3    H256870   6.408   2.823  17.152  0.9488 -1.6675 -1.1030
11819TIP3   OH256871   3.672   2.325   5.384 -0.3573  0.3127  0.2649
11819TIP3    H156872   3.729   2.383   5.334  1.1606 -2.8469 -1.9650
11819TIP3    H256873   3.589   2.325   5.335  0.1925 -0.6078 -0.7026
11820TIP3   OH256874   5.702   2.404  16.782 -0.1410 -0.3478  0.1602
11820TIP3    H156875   5.691   2.319  16.741 -0.2408 -0.6100  0.7204
11820TIP3    H256876   5.697   2.386  16.876 -1.6590  0.4598  0.2786
11821TIP3   OH256877   6.148   3.916   1.398  0.2191 -0.1755  0.5463
11821TIP3    H156878   6.186   3.890   1.481 -0.3461  1.2404  1.2766
11821TIP3    H256879   6.084   3.983   1.420 -0.0030  0.1771 -1.0211
11822TIP3   OH256880   5.478   2.497   5.521 -0.3580 -0.2660 -0.2338
11822TIP3    H156881   5.407   2.539   5.569 -2.1294 -2.5523 -0.6674
11822TIP3    H256882   5.482   2.408   5.556  2.7460 -0.0896  0.1559
11823TIP3   OH256883   3.652   1.937   4.205 -0.3981 -0.0051  0.5567
11823TIP3    H156884   3.646   2.000   4.277 -1.6218  0.2935  0.2157
11823TIP3    H256885   3.667   1.991   4.128 -0.4085 -0.2117  0.4118
11824TIP3   OH256886   2.068   3.576  12.278 -0.2331  0.2756 -0.0443
11824TIP3    H156887   2.096   3.668  12.278 -1.0046  0.5180 -0.0690
11824TIP3    H256888   2.123   3.534  12.344  0.2101  0.7241 -0.1180
11825TIP3   OH256889   6.170   6.119  12.408 -0.6679  0.1805  0.1776
11825TIP3    H156890   6.262   6.109  12.431 -0.2723 -0.5776 -1.5524
11825TIP3    H256891   6.124   6.121  12.492  0.8614 -0.0436  1.0544
11826TIP3   OH256892   3.893   4.592  15.128  0.3807  0.3664 -0.0102
11826TIP3    H156893   3.981   4.584  15.092  0.2707 -0.0992 -0.1850
11826TIP3    H256894   3.847   4.648  15.067 -0.9692 -3.4450 -2.9032
11827TIP3   OH256895   2.897   0.077  13.389 -0.0891  0.3146  0.0013
11827TIP3    H156896   2.847   0.090  13.470  0.2555  0.4994  0.1855
11827TIP3    H256897   2.882   0.157  13.339 -2.2782 -0.7490 -1.2088
11828TIP3   OH256898   1.710   2.370   4.676 -0.5788  0.0500 -0.0758
11828TIP3    H156899   1.706   2.292   4.620  1.9297 -0.6164  0.5709
11828TIP3    H256900   1.768   2.346   4.748 -0.5724  2.1881  0.7154
11829TIP3   OH256901   6.456   0.860  12.248  0.0767  0.4746 -0.7139
11829TIP3    H156902   6.471   0.926  12.316  1.1536 -0.5479  0.0718
11829TIP3    H256903   6.377   0.891  12.203 -1.2803  0.6650  1.6175
11830TIP3   OH256904   2.443   5.901  14.733 -0.3295 -0.3635 -0.0370
11830TIP3    H156905   2.371   5.953  14.698 -0.8030 -0.5557  0.6221
11830TIP3    H256906   2.522   5.951  14.712 -0.5128 -0.8152 -2.0043
11831TIP3   OH256907   1.448   3.830   2.594  0.0788 -0.1881 -0.2218
11831TIP3    H156908   1.521   3.806   2.537 -0.0614 -1.4685  0.1171
11831TIP3    H256909   1.457   3.772   2.670 -1.0290 -0.0489  0.0314
11832TIP3   OH256910   5.174   2.387   2.811 -0.3306 -0.1710  0.2913
11832TIP3    H156911   5.224   2.359   2.735 -0.5276  0.6667 -0.1537
11832TIP3    H256912   5.228   2.455   2.852 -1.0478  0.6616 -0.1318
11833TIP3   OH256913   1.149   1.479  11.713  0.0175 -0.0498  0.1771
11833TIP3    H156914   1.213   1.459  11.645  0.9747  2.3128  0.3045
11833TIP3    H256915   1.066   1.486  11.667  0.3362 -0.2743 -0.4494
11834TIP3   OH256916   3.770   0.258   2.851  0.7222  0.2551  0.1190
11834TIP3    H156917   3.806   0.267   2.763  1.2638  0.7254  0.3786
11834TIP3    H256918   3.774   0.165   2.870 -2.5733 -0.4421 -1.6530
11835TIP3   OH256919   2.993   6.618   2.984 -0.1973 -0.4785 -0.5272
11835TIP3    H156920   3.022   6.695   2.934 -1.5268  0.2964 -0.1513
11835TIP3    H256921   3.014   6.544   2.927 -1.8655  0.3828 -2.4167
11836TIP3   OH256922   3.841   1.010   0.600 -0.4801 -0.0502 -0.1736
11836TIP3    H156923   3.812   0.923   0.627  0.3476 -1.1240 -2.5300
11836TIP3    H256924   3.936   1.008   0.609 -0.5099  0.9155  0.5187
11837TIP3   OH256925   4.885   6.200   1.041 -0.0100  0.2770  0.1877
11837TIP3    H156926   4.924   6.287   1.051 -0.0884  0.4842 -1.1002
11837TIP3    H256927   4.792   6.217   1.030 -0.1511 -0.0457  0.8559
11838TIP3   OH256928   6.673   2.708   4.159 -0.2428 -0.2061 -0.2218
11838TIP3    H156929   6.760   2.740   4.133  0.1352 -0.2574  0.8997
11838TIP3    H256930   6.612   2.757   4.106  0.2479  2.9677  1.8572
11839TIP3   OH256931   5.051   2.147  16.803  0.1948 -0.2299  1.0413
11839TIP3    H156932   4.957   2.156  16.811  0.3358  0.8381  1.5735
11839TIP3    H256933   5.063   2.092  16.725 -0.8429  0.1582  0.5928
11840TIP3   OH256934   1.952   2.220  11.541  0.1366 -0.5111  0.2856
11840TIP3    H156935   1.988   2.291  11.594 -0.4259 -0.0786  0.0852
11840TIP3    H256936   1.917   2.263  11.463  0.8854 -1.1299 -0.4182
11841TIP3   OH256937   3.721   3.380  13.849  0.1737 -0.0945  0.2088
11841TIP3    H156938   3.630   3.380  13.879  0.6385 -1.6281  1.7890
11841TIP3    H256939   3.771   3.409  13.925  1.0830  0.0589 -0.4275
11842TIP3   OH256940   1.442   2.852  11.028  0.4916 -0.0529  0.7037
11842TIP3    H156941   1.352   2.872  11.053  0.1494 -1.1319  0.3913
11842TIP3    H256942   1.442   2.856  10.933  0.6237 -0.5944  0.6744
11843TIP3   OH256943   4.876   5.947   0.423 -0.7667  0.7446 -0.0848
11843TIP3    H156944   4.954   5.898   0.397 -1.6241  0.0603 -1.5147
11843TIP3    H256945   4.899   5.987   0.507  1.0838  0.5066 -0.4397
11844TIP3   OH256946   2.115   6.055   3.263  0.2082  0.0171 -0.4355
11844TIP3    H156947   2.164   5.977   3.236 -1.3455 -1.2269  0.1633
11844TIP3    H256948   2.060   6.024   3.335 -0.3046  1.7399 -0.0635
11845TIP3   OH256949   5.224   1.225  11.245 -0.0767 -0.0626 -0.1989
11845TIP3    H156950   5.300   1.271  11.279  0.2236  0.3008 -1.3042
11845TIP3    H256951   5.151   1.284  11.261  0.2591  0.6942 -1.3215
11846TIP3   OH256952   0.787   6.560  15.867  0.3156 -0.1486  0.2983
11846TIP3    H156953   0.730   6.633  15.841  0.6949 -0.2770 -0.9570
11846TIP3    H256954   0.780   6.557  15.963 -0.4310  0.9373  0.2959
11847TIP3   OH256955   0.423   4.554  15.655  0.7232 -0.3945 -0.3216
11847TIP3    H156956   0.420   4.566  15.750  1.4768  0.1655 -0.3548
11847TIP3    H256957   0.501   4.603  15.628  2.6735 -3.4919 -0.7822
11848TIP3   OH256958   4.511   5.929  16.929  0.3939 -0.0837  0.0126
11848TIP3    H156959   4.558   5.859  16.975  2.4630 -0.2845 -2.2410
11848TIP3    H256960   4.568   5.953  16.856 -1.3306  2.3657 -0.6580
11849TIP3   OH256961   5.495   5.954  17.081  0.8969  0.4078 -0.5523
11849TIP3    H156962   5.468   5.947  16.990 -0.5645  0.2698 -0.1384
11849TIP3    H256963   5.429   5.904  17.129  0.4160  2.2320  0.7829
11850TIP3   OH256964   5.408   6.699   1.821 -0.0635  0.6753  0.5330
11850TIP3    H156965   5.320   6.663   1.825  0.4314 -0.9665 -1.4714
11850TIP3    H256966   5.465   6.624   1.804  1.8083  1.6310  2.1591
11851TIP3   OH256967   0.199   5.759  16.546 -0.4210  0.1950  0.3791
11851TIP3    H156968   0.130   5.725  16.489  1.4088 -2.9448 -0.1784
11851TIP3    H256969   0.162   5.759  16.633 -1.1036 -1.6267  0.1142
11852TIP3   OH256970   1.555   0.532   6.463  1.0858  0.2161  0.3288
11852TIP3    H156971   1.546   0.625   6.485  0.9904  0.7974 -1.8626
11852TIP3    H256972   1.599   0.532   6.378  0.6257 -1.7237  0.0398
11853TIP3   OH256973   0.760   1.405   2.929 -0.3439 -0.3103 -0.4294
11853TIP3    H156974   0.705   1.451   2.992  1.1727 -1.9228  2.2675
11853TIP3    H256975   0.824   1.358   2.983  1.4109 -1.3839 -3.2328
11854TIP3   OH256976   3.060   4.234   1.297  0.6204 -0.1987  0.0235
11854TIP3    H156977   2.979   4.184   1.294  0.0387  0.4851  2.2581
11854TIP3    H256978   3.097   4.213   1.383  1.6638  1.2181 -0.0530
11855TIP3   OH256979   2.816   3.074  16.440 -0.0177 -0.3259  0.5644
11855TIP3    H156980   2.774   3.109  16.519 -0.2391 -1.7164  1.0841
11855TIP3    H256981   2.744   3.055  16.381  0.0816 -0.1716  0.3924
11856TIP3   OH256982   5.380   6.787  12.916 -0.1591  0.1387 -0.8293
11856TIP3    H156983   5.402   6.837  12.837 -0.7282 -1.9051 -2.3767
11856TIP3    H256984   5.287   6.766  12.906 -0.7578  1.4275  1.3751
11857TIP3   OH256985   4.019   5.423   5.050 -0.2263  0.2660 -0.4021
11857TIP3    H156986   4.031   5.329   5.066 -0.2046  0.1978 -0.7993
11857TIP3    H256987   4.019   5.462   5.137  3.7670  0.4068 -0.2522
11858TIP3   OH256988   0.544   5.738   4.216  0.3676 -0.2512 -0.1567
11858TIP3    H156989   0.500   5.653   4.220  0.3047 -0.2169 -0.1045
11858TIP3    H256990   0.588   5.739   4.131 -2.3337  0.9545 -1.6860
11859TIP3   OH256991   3.857   1.736  13.395 -0.6905  0.4154 -0.2448
11859TIP3    H156992   3.764   1.754  13.407 -1.0030 -1.3814  0.3688
11859TIP3    H256993   3.897   1.758  13.479 -1.6742 -4.8316  2.0079
11860TIP3   OH256994   1.950   2.401   2.500  0.0888 -0.1168 -0.0893
11860TIP3    H156995   1.916   2.411   2.589  0.8116 -0.0636  0.1942
11860TIP3    H256996   1.888   2.449   2.445 -1.5666 -1.9441  0.0907
11861TIP3   OH256997   4.161   6.185  13.191  0.5701 -0.8143 -0.6226
11861TIP3    H156998   4.117   6.230  13.263  2.7638  0.2230  0.1574
11861TIP3    H256999   4.126   6.096  13.193 -0.5508 -0.3709  0.7164
11862TIP3   OH257000   3.347   3.753  11.285 -0.3951 -0.5931 -0.7625
11862TIP3    H157001   3.384   3.828  11.239 -0.8162  0.3220  0.3415
11862TIP3    H257002   3.256   3.749  11.256 -0.7898  0.2658  0.2797
11863TIP3   OH257003   1.341   1.122  12.819 -0.6475 -0.4019  0.1874
11863TIP3    H157004   1.426   1.104  12.779 -1.6884  0.2063 -2.4353
11863TIP3    H257005   1.340   1.217  12.831 -0.8872 -0.4343  0.4251
11864TIP3   OH257006   5.293   0.506  13.442  0.4319 -0.1041  0.0059
11864TIP3    H157007   5.310   0.516  13.349  3.0736  0.2336  0.4396
11864TIP3    H257008   5.272   0.595  13.472  0.4993 -0.0515 -0.1027
11865TIP3   OH257009   2.881   4.186  12.867  0.3620 -0.3724 -0.5135
11865TIP3    H157010   2.878   4.123  12.795  1.5094 -0.0055 -0.8990
11865TIP3    H257011   2.958   4.240  12.849 -1.2313  1.9320 -0.8520
11866TIP3   OH257012   1.381   5.538   3.193 -0.6405 -0.3826 -0.4145
11866TIP3    H157013   1.432   5.555   3.272 -1.0845  1.6416 -0.5166
11866TIP3    H257014   1.443   5.494   3.134  0.6453  0.9386 -0.0953
11867TIP3   OH257015   0.201   2.371   5.142 -0.0129  0.4786 -0.1644
11867TIP3    H157016   0.127   2.338   5.091 -0.9103  2.3144 -0.1125
11867TIP3    H257017   0.174   2.359   5.233  0.3317 -0.0437 -0.1230
11868TIP3   OH257018   6.439   4.500   0.288 -0.0757 -0.2619  0.2310
11868TIP3    H157019   6.494   4.565   0.331  1.1277 -0.8746 -0.3065
11868TIP3    H257020   6.415   4.539   0.204 -0.7484  0.1401  0.6070
11869TIP3   OH257021   5.595   0.874  14.365 -0.5456  0.2761 -0.7334
11869TIP3    H157022   5.517   0.890  14.313 -0.6042  0.7177 -0.5186
11869TIP3    H257023   5.616   0.782  14.351 -1.2657  0.0860 -0.5682
11870TIP3   OH257024   1.055   2.074   4.046  0.7864  0.0190  0.1827
11870TIP3    H157025   1.043   2.019   3.969  2.2056 -2.3861  1.5707
11870TIP3    H257026   1.087   2.157   4.011  1.2061 -0.9279 -1.8402
11871TIP3   OH257027   0.598   4.404  14.159 -0.6623  0.9284  0.4032
11871TIP3    H157028   0.586   4.498  14.153  1.4865  1.1863 -1.6206
11871TIP3    H257029   0.665   4.392  14.226 -0.5164  0.8989  0.2530
11872TIP3   OH257030   0.839   3.891   3.665  0.2596 -0.4704 -0.7491
11872TIP3    H157031   0.915   3.948   3.658  0.9450 -1.2451  0.0547
11872TIP3    H257032   0.765   3.945   3.640  0.5064  1.5879  2.4844
11873TIP3   OH257033   1.640   2.128   4.186  0.2248 -0.1385  0.4577
11873TIP3    H157034   1.612   2.037   4.200 -0.3486  0.0504  0.5751
11873TIP3    H257035   1.641   2.166   4.274  0.4888 -0.0378  0.4105
11874TIP3   OH257036   3.569   2.687  14.462  0.6028 -0.3001  0.0128
11874TIP3    H157037   3.565   2.756  14.396 -1.3773  0.1180  0.4927
11874TIP3    H257038   3.551   2.606  14.414  0.0194 -0.0978 -0.1258
11875TIP3   OH257039   3.589   1.007   0.723  0.1623  0.3007  0.6344
11875TIP3    H157040   3.549   1.082   0.766 -0.1413  1.1743 -1.0610
11875TIP3    H257041   3.634   1.044   0.646 -0.5648 -1.2867 -0.6313
11876TIP3   OH257042   6.546   4.296  15.894 -0.1305  0.4110 -0.3706
11876TIP3    H157043   6.483   4.234  15.930  0.5652 -1.5492 -2.2894
11876TIP3    H257044   6.492   4.362  15.849 -0.8879  1.5445  2.0261
11877TIP3   OH257045   3.282   6.245  16.179  0.5590 -0.2670 -0.5147
11877TIP3    H157046   3.357   6.187  16.168 -0.2987 -1.1533 -2.0049
11877TIP3    H257047   3.285   6.303  16.103 -0.5933 -0.7137 -0.9233
11878TIP3   OH257048   5.576   5.093  10.901  0.1789  0.4125 -0.0221
11878TIP3    H157049   5.518   5.144  10.844 -0.0490  1.0755  0.7740
11878TIP3    H257050   5.664   5.123  10.879  0.1455  0.1504 -0.5175
11879TIP3   OH257051   5.468   1.371  11.165  0.5395  0.3256 -0.1565
11879TIP3    H157052   5.528   1.298  11.179  0.9246  0.2650 -1.9387
11879TIP3    H257053   5.430   1.356  11.079 -0.3488  1.5511 -0.0081
11880TIP3   OH257054   5.014   4.718  13.935 -0.0493  0.4121 -0.3280
11880TIP3    H157055   5.054   4.637  13.967 -1.3884 -0.4641 -0.7755
11880TIP3    H257056   4.987   4.764  14.015  0.1076  0.0899 -0.0838
11881TIP3   OH257057   2.751   1.463   2.933  0.1218  0.4996  0.0332
11881TIP3    H157058   2.843   1.445   2.911  0.2251  0.4026  0.5274
11881TIP3    H257059   2.734   1.407   3.009 -0.2865  0.6814  0.0758
11882TIP3   OH257060   5.765   4.562  11.617  0.0424 -0.1734 -0.4629
11882TIP3    H157061   5.859   4.558  11.635  0.1274  2.6131  0.1601
11882TIP3    H257062   5.729   4.481  11.656  2.2034 -1.6224 -1.3111
11883TIP3   OH257063   2.349   3.668  13.280  0.0344  0.7991 -0.0987
11883TIP3    H157064   2.255   3.683  13.275  0.2844  2.3193 -0.8375
11883TIP3    H257065   2.365   3.649  13.373 -0.9589  0.7849  0.0856
11884TIP3   OH257066   5.248   6.001   2.823 -0.1821  0.0300  0.5084
11884TIP3    H157067   5.299   5.954   2.889  0.2694 -0.3041 -0.0667
11884TIP3    H257068   5.296   6.083   2.809  0.1284 -0.2281  0.0590
11885TIP3   OH257069   4.902   1.633   4.004 -0.0958  0.0359 -0.0038
11885TIP3    H157070   4.960   1.696   3.961  2.5806 -0.9890  1.8808
11885TIP3    H257071   4.827   1.685   4.032  1.0841  1.9882 -0.2686
11886TIP3   OH257072   2.674   1.713   2.894  0.1180  0.1737 -0.0378
11886TIP3    H157073   2.664   1.709   2.799 -2.6059  0.1585  0.1473
11886TIP3    H257074   2.718   1.632   2.918  0.1891 -0.1573 -1.2457
11887TIP3   OH257075   3.819   1.332  15.031  0.2177 -0.3086  0.3719
11887TIP3    H157076   3.782   1.348  15.118  1.6380 -0.4847  1.0425
11887TIP3    H257077   3.754   1.279  14.986 -0.0842 -1.1229  1.7194
11888TIP3   OH257078   3.932   5.745   5.966  0.0722 -0.0599 -0.3393
11888TIP3    H157079   4.023   5.746   5.937  0.3567 -2.6932  0.1571
11888TIP3    H257080   3.928   5.673   6.029 -1.9989  1.1043  0.9748
11889TIP3   OH257081   3.411   0.614   6.383 -0.2673 -0.5938 -0.0927
11889TIP3    H157082   3.427   0.706   6.402 -1.2608 -0.4650  0.1709
11889TIP3    H257083   3.374   0.614   6.294 -0.2778 -0.7394 -0.0892
11890TIP3   OH257084   3.426   3.741  12.712  0.1027  0.3991  0.4359
11890TIP3    H157085   3.337   3.724  12.741 -0.2188  1.6716  0.2538
11890TIP3    H257086   3.417   3.772  12.622  0.9283 -1.6339 -0.4094
11891TIP3   OH257087   1.027   3.315  13.221  0.1079  0.8647 -0.2609
11891TIP3    H157088   0.989   3.276  13.299  2.2216 -0.9025 -0.0298
11891TIP3    H257089   0.970   3.284  13.149  0.1726 -0.4217  0.2195
11892TIP3   OH257090   5.516   0.986  11.710 -0.4029  0.0007 -0.6985
11892TIP3    H157091   5.568   0.925  11.762 -0.0362  0.7765 -0.1232
11892TIP3    H257092   5.555   0.982  11.623  1.1386  1.0888 -0.1134
11893TIP3   OH257093   3.121   2.596  16.217  0.1003 -0.7417  0.1024
11893TIP3    H157094   3.208   2.561  16.196 -0.5939 -3.0710  0.7791
11893TIP3    H257095   3.068   2.575  16.140  0.1956  1.0694 -0.4947
11894TIP3   OH257096   3.152   1.821  13.280 -0.2431 -0.1424 -0.0102
11894TIP3    H157097   3.178   1.815  13.372 -1.4266  0.0959  0.3545
11894TIP3    H257098   3.121   1.733  13.258 -1.6426  0.2246  0.3694
11895TIP3   OH257099   0.248   3.242   3.102 -0.7046 -0.6561 -0.2500
11895TIP3    H157100   0.270   3.334   3.115 -0.8669 -0.4948 -1.0906
11895TIP3    H257101   0.274   3.199   3.184 -1.2923  0.2482  0.4275
11896TIP3   OH257102   4.513   2.594   4.915  0.2171  0.1991  0.2893
11896TIP3    H157103   4.520   2.649   4.993  0.3397  0.8077 -0.1432
11896TIP3    H257104   4.496   2.656   4.844 -0.2892 -0.3830 -0.1079
11897TIP3   OH257105   4.895   0.816   2.254 -0.0796 -0.4876 -0.4252
11897TIP3    H157106   4.922   0.891   2.307  2.0992 -2.2445  1.1574
11897TIP3    H257107   4.808   0.793   2.287 -0.1859  0.5052  0.0092
11898TIP3   OH257108   1.680   5.199  14.898 -0.2700  0.1898 -0.2577
11898TIP3    H157109   1.738   5.158  14.961 -2.4461 -0.9974  1.1199
11898TIP3    H257110   1.735   5.261  14.851  2.2817 -1.5021  0.2835
11899TIP3   OH257111   2.680   1.444   1.478 -0.5449  0.9729 -0.0763
11899TIP3    H157112   2.624   1.508   1.522 -0.9855 -0.2347  1.1864
11899TIP3    H257113   2.748   1.423   1.542 -0.3555  0.2412 -0.5050
11900TIP3   OH257114   0.712   3.440  11.855 -0.0913  0.2137  0.0054
11900TIP3    H157115   0.738   3.524  11.817  0.0108 -0.6581 -1.9085
11900TIP3    H257116   0.777   3.378  11.824 -1.9332 -1.1811 -1.3033
11901TIP3   OH257117   5.369   5.657   5.867 -0.0172 -0.1022  0.4095
11901TIP3    H157118   5.390   5.735   5.815 -0.2935 -0.5942 -0.4486
11901TIP3    H257119   5.419   5.669   5.948  0.8069  0.4511 -0.1553
11902TIP3   OH257120   3.590   6.702   4.999 -0.3982 -0.2160  0.3543
11902TIP3    H157121   3.595   6.678   4.907 -1.4636  1.1143 -0.0802
11902TIP3    H257122   3.500   6.682   5.024 -0.3758  0.2948  0.8604
11903TIP3   OH257123   1.656   2.900  15.474 -0.1894  0.1779 -0.6007
11903TIP3    H157124   1.648   2.874  15.566 -1.9045  1.9696 -0.1775
11903TIP3    H257125   1.744   2.937  15.468 -0.0238 -0.0283  0.2931
11904TIP3   OH257126   6.405   3.174   1.894 -0.0376  0.7870  0.7944
11904TIP3    H157127   6.474   3.227   1.935 -0.0935  1.6905 -0.2261
11904TIP3    H257128   6.416   3.190   1.800  1.2187 -2.5685  0.2196
11905TIP3   OH257129   3.151   6.349  14.507 -0.0814  0.7010 -1.0522
11905TIP3    H157130   3.209   6.367  14.433 -0.0510 -0.5445 -1.3637
11905TIP3    H257131   3.101   6.272  14.479  1.3657 -1.0994  0.9925
11906TIP3   OH257132   1.810   3.568  12.808  0.1640 -0.3396  0.0154
11906TIP3    H157133   1.779   3.488  12.765  0.9575 -0.9222  0.5048
11906TIP3    H257134   1.731   3.606  12.848 -0.2785 -0.6852 -0.5143
11907TIP3   OH257135   4.396   1.068  16.990  0.4597 -0.2090 -0.1715
11907TIP3    H157136   4.355   1.025  16.915 -2.1444  2.5249 -0.5387
11907TIP3    H257137   4.436   1.147  16.954 -1.7620  1.7220  1.2842
11908TIP3   OH257138   3.787   3.293   2.290  0.1625 -0.1104  0.1431
11908TIP3    H157139   3.789   3.372   2.344 -1.7719 -0.0806  0.2249
11908TIP3    H257140   3.776   3.222   2.353  1.0897 -0.3933  0.0026
11909TIP3   OH257141   1.289   4.473  10.342  0.1162  0.3019 -0.2508
11909TIP3    H157142   1.319   4.481  10.433 -0.2733  0.6650 -0.1498
11909TIP3    H257143   1.228   4.400  10.343  1.0299 -0.4788 -0.4689
11910TIP3   OH257144   5.780   4.120  15.268 -0.4665  0.1874  0.2556
11910TIP3    H157145   5.738   4.036  15.250 -1.5655  0.7499  0.1724
11910TIP3    H257146   5.773   4.168  15.186  1.2231 -0.0557 -0.0742
11911TIP3   OH257147   5.048   6.292   6.666  0.2040  0.2877  1.0257
11911TIP3    H157148   4.996   6.222   6.625 -0.5488  1.9251 -0.9694
11911TIP3    H257149   5.134   6.253   6.679 -0.3602 -1.2105  0.5114
11912TIP3   OH257150   3.130   4.274  12.953 -0.5128  0.3579 -0.1460
11912TIP3    H157151   3.179   4.193  12.968 -2.0920 -0.1181  4.0271
11912TIP3    H257152   3.197   4.339  12.934  1.3828 -1.0286  1.3453
11913TIP3   OH257153   2.490   4.812  12.656  0.2467 -0.4360  0.2386
11913TIP3    H157154   2.402   4.776  12.669  0.7081 -2.0019 -0.7694
11913TIP3    H257155   2.548   4.753  12.703  0.8777 -0.1149 -0.1186
11914TIP3   OH257156   2.536   2.173  15.650  0.2363 -0.2913 -0.0824
11914TIP3    H157157   2.605   2.233  15.623  0.5128 -0.5351  0.0806
11914TIP3    H257158   2.570   2.086  15.630  0.3367 -0.4599  0.7875
11915TIP3   OH257159   3.292   6.419  10.852  0.6545 -0.6340  0.0261
11915TIP3    H157160   3.373   6.462  10.879  0.7206 -0.6032 -0.2223
11915TIP3    H257161   3.278   6.351  10.919  1.6405 -1.5714 -0.6815
11916TIP3   OH257162   3.091   5.166   1.285 -0.2930  0.3117 -0.1492
11916TIP3    H157163   3.166   5.200   1.334 -0.1294 -0.5686  0.2421
11916TIP3    H257164   3.041   5.116   1.349 -0.1655 -0.7286 -0.8286
11917TIP3   OH257165   1.332   0.267  11.404 -0.0560 -0.6826  0.1473
11917TIP3    H157166   1.324   0.236  11.314  0.6604 -1.6962  0.4102
11917TIP3    H257167   1.425   0.255  11.425 -0.1112  0.0413  0.8455
11918TIP3   OH257168   2.758   5.851  11.731  0.4202 -0.3211  0.0935
11918TIP3    H157169   2.708   5.933  11.734  1.1020  0.0928  0.3984
11918TIP3    H257170   2.797   5.850  11.643  0.0132 -0.5689 -0.0886
11919TIP3   OH257171   5.932   3.312  15.375  0.0932  0.2798  0.3405
11919TIP3    H157172   5.958   3.270  15.457 -1.0332 -0.5704  0.2781
11919TIP3    H257173   6.002   3.375  15.357  0.6383  0.0746  1.6517
11920TIP3   OH257174   1.927   6.575  11.326  0.6386 -0.1070  0.2276
11920TIP3    H157175   1.872   6.604  11.399 -1.4495 -0.8111 -0.9624
11920TIP3    H257176   1.968   6.655  11.294  0.2089  0.4740  1.0791
11921TIP3   OH257177   1.208   1.244  14.229  0.4128 -0.1076 -0.2581
11921TIP3    H157178   1.205   1.171  14.291  0.6704  0.0844 -0.0159
11921TIP3    H257179   1.116   1.264  14.212  0.3374 -0.1333  0.1014
11922TIP3   OH257180   2.513   6.504   4.317 -0.6762 -0.4174 -0.2021
11922TIP3    H157181   2.432   6.526   4.364 -0.3141  0.3154  0.0831
11922TIP3    H257182   2.491   6.425   4.268 -1.6598 -0.0497 -0.3691
11923TIP3   OH257183   0.499   2.185   5.017 -0.1743  0.6893 -0.7179
11923TIP3    H157184   0.447   2.118   5.061  1.5735 -0.4932 -0.3097
11923TIP3    H257185   0.470   2.268   5.056 -0.8993 -0.0418  0.3567
11924TIP3   OH257186   5.402   0.857   0.176  0.2850  0.1474  0.2943
11924TIP3    H157187   5.320   0.902   0.159  1.5086  2.2530 -0.3532
11924TIP3    H257188   5.413   0.861   0.271 -0.7232 -0.9063  0.4803
11925TIP3   OH257189   3.411   0.154   3.122  0.6225 -0.2480  0.3933
11925TIP3    H157190   3.457   0.176   3.041 -0.6055 -0.1178 -0.2969
11925TIP3    H257191   3.397   0.060   3.118  0.2047 -0.1822  0.2553
11926TIP3   OH257192   6.161   0.868  15.901 -0.1023  0.4332  0.1137
11926TIP3    H157193   6.217   0.932  15.857  0.9023 -1.0440 -0.8461
11926TIP3    H257194   6.095   0.843  15.836  0.6901 -0.8995 -0.2309
11927TIP3   OH257195   1.133   5.201   2.116  0.0680  0.2859  0.5802
11927TIP3    H157196   1.175   5.158   2.042  1.0619  1.8672  0.1656
11927TIP3    H257197   1.202   5.210   2.182 -0.2076  0.8931  0.7963
11928TIP3   OH257198   1.292   6.695  14.363 -0.2365 -0.1340  0.6518
11928TIP3    H157199   1.344   6.771  14.337 -0.7983  0.3806  1.0271
11928TIP3    H257200   1.201   6.721  14.347 -0.5114 -0.2904  1.8693
11929TIP3   OH257201   2.592   3.180  15.744  0.8384 -0.4516  0.6126
11929TIP3    H157202   2.518   3.210  15.692  1.3256 -1.1639 -0.5397
11929TIP3    H257203   2.669   3.209  15.696  1.3377  0.7581  2.0781
11930TIP3   OH257204   0.919   0.442  12.274  0.4495  0.2506  0.2800
11930TIP3    H157205   0.827   0.458  12.293  0.6804 -0.0455  1.7400
11930TIP3    H257206   0.920   0.410  12.183 -0.8232  0.6760  0.1010
11931TIP3   OH257207   3.072   4.257  14.489  0.0130  0.0416  0.6252
11931TIP3    H157208   3.101   4.170  14.461  0.7902  0.1763  0.9755
11931TIP3    H257209   3.001   4.280  14.429  0.3986 -0.4643 -0.0304
11932TIP3   OH257210   2.617   3.283  11.680  0.0432  0.3949 -0.1349
11932TIP3    H157211   2.653   3.303  11.594 -0.5675  0.8915 -0.2852
11932TIP3    H257212   2.683   3.228  11.722 -0.4249 -1.3337 -1.5647
11933TIP3   OH257213   3.610   4.646   4.282  0.1974  0.2971  0.4160
11933TIP3    H157214   3.621   4.556   4.251  1.2300  0.6864 -0.4151
11933TIP3    H257215   3.517   4.654   4.301 -0.1379 -0.5719 -0.7255
11934TIP3   OH257216   3.372   2.452   4.519  0.2708 -0.5315  0.2497
11934TIP3    H157217   3.310   2.478   4.587  0.0913 -0.6892  0.1496
11934TIP3    H257218   3.338   2.368   4.487 -0.7291  0.4100 -1.3476
11935TIP3   OH257219   1.014   2.834   2.205  0.1058 -0.4916 -0.1419
11935TIP3    H157220   1.041   2.819   2.114 -2.0929 -0.8201 -0.8183
11935TIP3    H257221   1.066   2.773   2.256  1.6916 -0.0126 -1.0943
11936TIP3   OH257222   6.026   1.694   4.693 -0.1302 -0.1368 -0.2778
11936TIP3    H157223   5.966   1.663   4.626  1.0706 -1.0161 -0.9830
11936TIP3    H257224   6.044   1.785   4.669 -1.0996  0.1152 -0.0896
11937TIP3   OH257225   3.150   1.818  12.544  0.3191 -0.1362  0.1124
11937TIP3    H157226   3.232   1.867  12.536  0.7973 -0.4911  2.2673
11937TIP3    H257227   3.083   1.884  12.557  0.3235  0.1238 -1.0653
11938TIP3   OH257228   5.029   1.109  11.711 -0.4702  0.0727  0.5071
11938TIP3    H157229   5.040   1.060  11.630 -2.0379 -0.3471  0.5246
11938TIP3    H257230   5.066   1.195  11.692 -0.4437 -0.1481 -0.5103
11939TIP3   OH257231   2.027   0.036  16.712 -1.1020  0.1252  0.7042
11939TIP3    H157232   1.936   0.047  16.684 -1.1616  0.9526  1.2163
11939TIP3    H257233   2.045  -0.057  16.696 -1.9132  0.0337  0.2463
11940TIP3   OH257234   4.499   3.305  12.500  0.1824 -0.3435  0.0661
11940TIP3    H157235   4.512   3.219  12.459  1.1552  0.3878 -1.2256
11940TIP3    H257236   4.405   3.322  12.490 -0.0342 -1.2738  0.4003
11941TIP3   OH257237   0.390   2.915  10.888 -0.6657  0.0454 -0.1503
11941TIP3    H157238   0.457   2.927  10.821  1.1452 -3.2216  0.8468
11941TIP3    H257239   0.308   2.934  10.843  0.6130  0.2970 -2.5856
11942TIP3   OH257240   4.841   5.903   4.165 -0.9022 -0.1754 -0.4202
11942TIP3    H157241   4.900   5.949   4.225 -1.0322 -0.9911  0.3578
11942TIP3    H257242   4.888   5.903   4.081 -1.1639  1.8725 -0.6183
11943TIP3   OH257243   4.215   5.993  14.103 -0.2210 -0.2831  0.6428
11943TIP3    H157244   4.271   6.038  14.167  1.4384 -0.7831 -0.3915
11943TIP3    H257245   4.261   5.911  14.085 -1.9534 -1.3072  0.6703
11944TIP3   OH257246   5.133   1.561   2.331  0.0391  0.3485  0.2104
11944TIP3    H157247   5.215   1.609   2.318  0.7719 -0.6233  1.0260
11944TIP3    H257248   5.150   1.475   2.292  0.0188 -0.4181  1.8077
11945TIP3   OH257249   5.147   5.742  16.652 -0.5956  0.3093  0.9115
11945TIP3    H157250   5.231   5.723  16.695  0.4506  0.0295 -1.1387
11945TIP3    H257251   5.155   5.833  16.625 -1.2280  0.4650  1.2273
11946TIP3   OH257252   5.155   2.396  13.625 -0.5438 -0.4564 -0.7100
11946TIP3    H157253   5.124   2.309  13.652 -1.7552 -0.0305 -0.6718
11946TIP3    H257254   5.075   2.444  13.603  0.1985  0.2078 -2.0760
11947TIP3   OH257255   1.799   1.331  15.062  0.9884  0.1887  0.1968
11947TIP3    H157256   1.882   1.292  15.091  1.2700 -0.0466 -0.8788
11947TIP3    H257257   1.756   1.261  15.013 -0.3085 -0.0096  1.5531
11948TIP3   OH257258   6.741   1.741  16.408  0.0756 -0.0764 -0.0606
11948TIP3    H157259   6.683   1.791  16.349 -1.7717 -0.4271  1.3707
11948TIP3    H257260   6.724   1.650  16.385  1.3811 -0.1611 -0.7809
11949TIP3   OH257261   2.585   5.927   0.103  0.4454  0.1396 -0.1361
11949TIP3    H157262   2.573   5.890   0.191 -0.4776  0.3956 -0.1451
11949TIP3    H257263   2.658   5.988   0.113  0.1894  0.3475  0.5139
11950TIP3   OH257264   0.458   3.736  13.098 -0.4359 -0.3384 -0.5226
11950TIP3    H157265   0.517   3.795  13.052 -0.1077 -1.0528 -1.0281
11950TIP3    H257266   0.374   3.748  13.054 -0.1960 -0.7904 -1.1048
11951TIP3   OH257267   3.580   3.402  13.510  0.1688  0.0989 -0.7676
11951TIP3    H157268   3.607   3.479  13.461  1.9308  0.4667  0.6509
11951TIP3    H257269   3.589   3.428  13.602 -1.3211 -1.1094 -0.2304
11952TIP3   OH257270   6.367   4.697   2.839  0.2487 -0.0291 -0.7081
11952TIP3    H157271   6.386   4.611   2.801  1.9368  0.3333 -0.7632
11952TIP3    H257272   6.393   4.689   2.930  1.6759  0.7760 -1.0126
11953TIP3   OH257273   2.577   0.840  13.542  0.0380  0.0535  0.2738
11953TIP3    H157274   2.645   0.787  13.501 -0.8064 -1.5826  0.8753
11953TIP3    H257275   2.502   0.833  13.483 -0.3695 -0.1921  0.8098
11954TIP3   OH257276   1.344   1.133   2.492  0.0261 -0.1049  0.4626
11954TIP3    H157277   1.357   1.094   2.405  1.9531  0.0548  0.6397
11954TIP3    H257278   1.307   1.220   2.474 -2.1721 -1.0691 -0.0270
11955TIP3   OH257279   5.733   0.469   2.891  0.8756  0.6224  0.2796
11955TIP3    H157280   5.741   0.428   2.805  2.1541 -0.2341  0.7909
11955TIP3    H257281   5.776   0.553   2.882  0.6044  0.7306 -0.0335
11956TIP3   OH257282   2.767   5.075   2.391 -0.0674  0.1917 -0.5416
11956TIP3    H157283   2.709   5.143   2.426 -2.3552 -1.8478 -0.0451
11956TIP3    H257284   2.720   5.042   2.313  1.8370  0.3327 -1.8031
11957TIP3   OH257285   4.964   2.971   6.299  0.6785  0.5471  0.6153
11957TIP3    H157286   5.052   2.952   6.331  0.9198  1.9194  0.8101
11957TIP3    H257287   4.945   3.059   6.331  0.2811  1.3267 -1.6135
11958TIP3   OH257288   5.548   0.607  16.992 -0.5365  0.3298 -0.3717
11958TIP3    H157289   5.470   0.569  16.953 -0.4383  1.1309 -1.4022
11958TIP3    H257290   5.528   0.614  17.085 -1.3011 -0.3789 -0.4759
11959TIP3   OH257291   3.443   3.409   3.691  0.5219  0.4302  0.0456
11959TIP3    H157292   3.476   3.379   3.607  1.0177 -0.5425  0.5781
11959TIP3    H257293   3.484   3.352   3.756  1.4697  2.1982  1.1022
11960TIP3   OH257294   3.396   1.461   4.559  0.0300 -0.4126 -0.4670
11960TIP3    H157295   3.458   1.533   4.548  1.6121 -1.6569 -0.2118
11960TIP3    H257296   3.392   1.448   4.654 -0.0453 -0.8077 -0.5237
11961TIP3   OH257297   6.483   4.317   0.960  0.2354  0.3120 -0.1211
11961TIP3    H157298   6.572   4.332   0.992  0.2165  1.0884 -0.4097
11961TIP3    H257299   6.427   4.362   1.022  0.0080 -0.5670  0.3152
11962TIP3   OH257300   1.584   1.155   3.047 -0.7159 -0.2036 -0.1828
11962TIP3    H157301   1.678   1.150   3.028 -0.6724  0.9674 -0.3592
11962TIP3    H257302   1.545   1.182   2.964 -1.0617  0.5352  0.2157
11963TIP3   OH257303   4.583   5.935  12.754  0.3029 -0.3966  0.2185
11963TIP3    H157304   4.596   5.982  12.836  0.0710 -0.3002  0.1989
11963TIP3    H257305   4.558   5.846  12.781  1.8778 -0.8682  0.2783
11964TIP3   OH257306   2.757   4.596  16.160  0.2980  0.6543 -0.0972
11964TIP3    H157307   2.719   4.509  16.175  1.1729  0.5896  2.1164
11964TIP3    H257308   2.784   4.595  16.068 -1.6067 -0.6195 -0.7037
11965TIP3   OH257309   6.534   0.174  13.509  0.0512 -0.1814  0.5817
11965TIP3    H157310   6.582   0.202  13.587  0.3956  0.6995  0.0695
11965TIP3    H257311   6.586   0.206  13.436 -0.6225 -0.3950 -0.0041
11966TIP3   OH257312   2.677   3.105  12.793  0.0445  0.3920  0.2537
11966TIP3    H157313   2.674   3.016  12.828  1.4820  0.7958  1.4935
11966TIP3    H257314   2.753   3.106  12.735 -0.6993  0.4836 -0.7296
11967TIP3   OH257315   3.046   2.762   0.295 -0.5252 -0.0647  0.7123
11967TIP3    H157316   3.108   2.774   0.367  0.6049 -0.3778 -0.1766
11967TIP3    H257317   3.009   2.675   0.311 -0.5815  0.0316  1.1323
11968TIP3   OH257318   3.452   6.739   2.107 -0.3838 -0.0879  0.1883
11968TIP3    H157319   3.376   6.789   2.077 -0.1222 -0.2951 -0.8765
11968TIP3    H257320   3.431   6.714   2.196 -0.7643  1.4413  0.5533
11969TIP3   OH257321   2.966   1.964   0.515  0.4150  0.9410 -0.5515
11969TIP3    H157322   2.982   2.046   0.468  0.9291  0.4904 -1.1843
11969TIP3    H257323   3.020   1.900   0.469 -0.2637  0.1724 -0.2829
11970TIP3   OH257324   6.446   2.349  11.531 -0.4248 -0.1799  0.0081
11970TIP3    H157325   6.420   2.427  11.579 -1.1043 -0.1640 -0.3643
11970TIP3    H257326   6.368   2.293  11.532  0.1227 -0.9502  0.4592
11971TIP3   OH257327   5.002   1.908  16.280 -0.1460  0.0723 -0.4007
11971TIP3    H157328   5.097   1.902  16.294  0.0408  0.8739 -1.2053
11971TIP3    H257329   4.979   1.994  16.315 -0.8842 -0.7959  1.3264
11972TIP3   OH257330   1.927   0.743   4.961 -0.1249  0.0629  0.0154
11972TIP3    H157331   2.020   0.743   4.984 -0.0876  0.3586 -0.1398
11972TIP3    H257332   1.886   0.801   5.024 -0.0337  0.8188 -0.6101
11973TIP3   OH257333   0.198   2.801   5.515 -0.0438  0.7165 -1.0918
11973TIP3    H157334   0.120   2.752   5.540 -0.3860  0.4443 -2.5658
11973TIP3    H257335   0.185   2.888   5.553 -0.0698  0.0897  0.4059
11974TIP3   OH257336   3.509   3.644   2.557 -0.3105  0.0052 -0.1676
11974TIP3    H157337   3.520   3.555   2.523 -1.1267  0.5498 -1.9773
11974TIP3    H257338   3.420   3.669   2.532  0.0969  1.5409 -0.2113
11975TIP3   OH257339   4.829   1.861  16.702  0.1303 -0.7215  0.0287
11975TIP3    H157340   4.846   1.814  16.784 -0.2791 -1.1642 -0.1354
11975TIP3    H257341   4.742   1.898  16.713  0.8007  0.7647  0.5033
11976TIP3   OH257342   3.993   6.185  14.567  0.1953  0.1313 -0.2555
11976TIP3    H157343   3.917   6.242  14.565  1.0336  1.4014  1.5013
11976TIP3    H257344   3.993   6.147  14.655  1.7045  0.3586 -0.1256
11977TIP3   OH257345   5.238   3.108   2.449 -0.0926  0.7914 -0.3164
11977TIP3    H157346   5.327   3.089   2.420  0.1159 -0.6942  1.1822
11977TIP3    H257347   5.248   3.174   2.517 -0.0562  0.0807  0.3754
11978TIP3   OH257348   4.912   3.230   5.471  0.5110 -0.2331  0.6143
11978TIP3    H157349   4.877   3.141   5.458 -0.7693  0.5323 -1.9296
11978TIP3    H257350   4.835   3.285   5.484  0.9751  0.9515 -1.2482
11979TIP3   OH257351   1.116   5.011  16.216 -0.3038 -0.2325  0.2165
11979TIP3    H157352   1.146   5.055  16.137 -0.6475 -1.4711 -0.6283
11979TIP3    H257353   1.020   5.015  16.211 -0.3308  0.1369  0.8525
11980TIP3   OH257354   2.029   5.102  16.245  0.2486 -0.1557 -0.0961
11980TIP3    H157355   2.061   5.167  16.182 -1.5310  0.3843 -0.4843
11980TIP3    H257356   1.987   5.034  16.191  0.4853 -0.7149  0.4100
11981TIP3   OH257357   3.748   1.864   3.079 -0.7644 -0.4187  0.0281
11981TIP3    H157358   3.696   1.944   3.089 -0.6219 -0.3399  0.1460
11981TIP3    H257359   3.684   1.798   3.051 -0.7296 -0.0579 -0.9559
11982TIP3   OH257360   2.600   0.108   0.143  0.0488  0.2388 -0.3492
11982TIP3    H157361   2.626   0.200   0.151  1.9066 -0.2151 -0.7206
11982TIP3    H257362   2.680   0.062   0.119 -0.7870 -1.5333  0.0565
11983TIP3   OH257363   5.702   2.056   1.031  0.0233  0.6730 -0.5660
11983TIP3    H157364   5.618   2.020   1.003  1.1407 -0.0601 -3.3458
11983TIP3    H257365   5.739   2.093   0.951  1.6876  2.4275  0.9212
11984TIP3   OH257366   1.381   0.815   0.188  0.0327  0.7095 -0.3478
11984TIP3    H157367   1.303   0.803   0.133 -1.1451  3.5895  0.4754
11984TIP3    H257368   1.355   0.782   0.274 -0.2521  1.4879 -0.1237
11985TIP3   OH257369   6.618   6.319   1.819 -0.1193 -0.1372 -0.3512
11985TIP3    H157370   6.543   6.339   1.764 -0.1309 -3.0958 -1.6294
11985TIP3    H257371   6.594   6.236   1.862  1.2719  0.3546  1.4822
11986TIP3   OH257372   6.603   3.146   5.057  0.2442 -0.2311 -0.0954
11986TIP3    H157373   6.665   3.107   4.995  0.7240  1.8009 -0.9944
11986TIP3    H257374   6.616   3.240   5.047 -3.0261  0.3140 -0.3668
11987TIP3   OH257375   6.150   2.137   5.881 -0.2568 -0.2404 -0.0641
11987TIP3    H157376   6.226   2.157   5.826 -0.8543 -0.7300 -1.0915
11987TIP3    H257377   6.167   2.183   5.963  0.7132  0.3982 -0.6078
11988TIP3   OH257378   0.799   3.953  14.708 -0.2931 -0.1654  0.6882
11988TIP3    H157379   0.892   3.964  14.692 -0.2049  0.2041  1.4119
11988TIP3    H257380   0.762   3.929  14.622  0.0713  2.2017 -0.2106
11989TIP3   OH257381   3.807   4.714  13.101 -0.1295 -0.9020 -0.2815
11989TIP3    H157382   3.725   4.688  13.143 -0.2571 -1.5618 -0.9256
11989TIP3    H257383   3.783   4.732  13.011  0.0240  1.1427  0.0401
11990TIP3   OH257384   6.605   6.365   4.853 -0.2409  0.1143  0.1600
11990TIP3    H157385   6.588   6.403   4.767 -0.2362  1.4411  0.7250
11990TIP3    H257386   6.568   6.277   4.848 -1.2700  0.5785 -0.8220
11991TIP3   OH257387   3.704   6.655   2.020  0.3115  0.2076  0.4505
11991TIP3    H157388   3.708   6.560   2.028  1.4650 -0.0086 -1.7530
11991TIP3    H257389   3.616   6.678   2.048  0.0388 -1.5027  1.0885
11992TIP3   OH257390   5.477   2.638   4.091 -0.2957 -0.1399 -0.2628
11992TIP3    H157391   5.457   2.558   4.041 -2.0184  0.6623 -0.9171
11992TIP3    H257392   5.528   2.606   4.166  1.0577 -1.5595 -1.7108
11993TIP3   OH257393   3.852   2.856   4.301  0.5082  0.0071  0.5950
11993TIP3    H157394   3.862   2.832   4.393 -0.3389 -4.6427 -0.3064
11993TIP3    H257395   3.927   2.816   4.257 -0.1955  0.3628 -0.9955
11994TIP3   OH257396   6.232   6.474  12.952  0.1342  0.9483  0.4779
11994TIP3    H157397   6.228   6.498  13.044  1.3537  2.4800  0.1789
11994TIP3    H257398   6.195   6.549  12.906 -1.6892 -0.3364 -0.2606
11995TIP3   OH257399   3.748   5.735  16.822  0.5716  0.6614  0.1761
11995TIP3    H157400   3.841   5.758  16.826  0.8918  0.2456 -2.7162
11995TIP3    H257401   3.707   5.810  16.778 -0.0368 -0.2018 -0.7437
11996TIP3   OH257402   6.641   4.578  16.834 -0.1186  0.2544  0.8576
11996TIP3    H157403   6.549   4.566  16.857 -0.8075 -0.7789 -1.9172
11996TIP3    H257404   6.661   4.503  16.777  2.8254 -0.2149  2.3082
11997TIP3   OH257405   5.542   4.198   4.378  0.3951 -0.1162  0.3393
11997TIP3    H157406   5.592   4.118   4.397 -0.6078 -0.3994  1.9136
11997TIP3    H257407   5.478   4.170   4.312  0.6803 -0.3719  0.1665
11998TIP3   OH257408   1.183   2.010   3.463 -0.2332  0.1174 -0.4571
11998TIP3    H157409   1.216   1.937   3.410 -0.9736 -0.5318 -0.0397
11998TIP3    H257410   1.141   2.068   3.400 -1.3586 -0.7862 -0.5796
11999TIP3   OH257411   6.589   1.437   0.163  0.5988  0.2298  0.0687
11999TIP3    H157412   6.652   1.433   0.091  1.1347  1.1574  0.4585
11999TIP3    H257413   6.642   1.423   0.241  0.3293  0.9541  0.3969
12000TIP3   OH257414   5.406   2.473  13.345  0.1940  0.3637 -0.1799
12000TIP3    H157415   5.314   2.480  13.320 -0.4506 -0.0096  1.8976
12000TIP3    H257416   5.404   2.435  13.433  2.3720 -0.2166 -0.3279
12001TIP3   OH257417   2.214   5.068   4.846 -0.1461 -0.1468  0.1222
12001TIP3    H157418   2.267   5.141   4.877 -1.0707  0.2269  0.8504
12001TIP3    H257419   2.161   5.106   4.776 -0.4754 -0.1625  0.3606
12002TIP3   OH257420   2.650   0.492   5.201 -0.8097  0.3076 -0.0004
12002TIP3    H157421   2.689   0.405   5.197  1.7292  1.3959 -1.0729
12002TIP3    H257422   2.577   0.483   5.263 -0.6929 -2.5579 -0.1533
12003TIP3   OH257423   5.180   5.153   4.557  0.2006  1.0581 -0.5117
12003TIP3    H157424   5.215   5.173   4.470  1.2285  1.3578 -0.0539
12003TIP3    H257425   5.149   5.237   4.590  0.2795  1.0410 -0.3936
12004TIP3   OH257426   4.006   0.860  17.082 -0.4304  0.0053  0.8840
12004TIP3    H157427   3.937   0.834  17.144 -0.1265 -0.9060  0.8564
12004TIP3    H257428   4.088   0.846  17.130 -0.2330  0.2404  0.6166
12005TIP3   OH257429   1.661   5.663   2.988  0.0341 -0.3624  0.2469
12005TIP3    H157430   1.667   5.568   3.001 -0.1484 -0.3301  0.5738
12005TIP3    H257431   1.741   5.685   2.940  0.4117 -0.5781  0.7709
12006TIP3   OH257432   2.736   5.975   4.908  0.1225  0.3028 -0.0388
12006TIP3    H157433   2.828   5.962   4.934  0.1302  0.1982 -0.1160
12006TIP3    H257434   2.704   6.044   4.967 -0.6118 -1.6957  2.0744
12007TIP3   OH257435   5.801   3.909  14.115  0.2154 -0.2447  0.1438
12007TIP3    H157436   5.848   3.872  14.040  0.0545  0.2421 -0.2031
12007TIP3    H257437   5.722   3.948  14.077  0.2294  0.1804  0.5440
12008TIP3   OH257438   1.861   0.963  11.802 -1.0711  0.8030 -0.1495
12008TIP3    H157439   1.900   1.050  11.794  1.0604 -0.1315 -0.5308
12008TIP3    H257440   1.891   0.916  11.724 -1.5182 -0.5228  0.4486
12009TIP3   OH257441   1.286   4.607  11.644 -0.2758  0.8167 -0.1635
12009TIP3    H157442   1.380   4.609  11.629 -0.1068 -0.6951  0.4826
12009TIP3    H257443   1.251   4.551  11.575 -0.7194  1.4522 -0.4611
12010TIP3   OH257444   0.984   6.137   2.905 -0.1848 -0.0453 -0.6169
12010TIP3    H157445   0.948   6.050   2.917  0.2762 -0.0061  1.4567
12010TIP3    H257446   1.068   6.135   2.951 -0.0570  1.4151 -0.7239
12011TIP3   OH257447   5.382   2.031  15.085 -0.1531 -0.0711 -0.1162
12011TIP3    H157448   5.336   2.021  15.168  1.9267  1.0292  1.2758
12011TIP3    H257449   5.320   2.076  15.028 -0.7176  1.7637  1.8114
12012TIP3   OH257450   2.405   2.970  12.894 -0.0311  0.0397  0.1700
12012TIP3    H157451   2.405   2.967  12.989 -0.3474 -0.7563  0.1519
12012TIP3    H257452   2.332   2.914  12.868  0.3082 -0.0878 -0.5497
12013TIP3   OH257453   1.994   1.272  13.383 -0.4945  0.4965 -0.3116
12013TIP3    H157454   2.076   1.320  13.369 -0.5567  0.8656  0.5620
12013TIP3    H257455   1.987   1.264  13.478 -0.7278 -0.8301 -0.4259
12014TIP3   OH257456   1.965   3.769  15.822 -0.0341 -0.0393 -0.0453
12014TIP3    H157457   1.906   3.743  15.893  0.0707  1.0105  0.4442
12014TIP3    H257458   1.990   3.859  15.843  0.3410  0.1450 -1.1895
12015TIP3   OH257459   1.500   5.657   4.087  0.1983 -0.2085  0.5332
12015TIP3    H157460   1.565   5.628   4.023  0.3335 -0.4404  0.7726
12015TIP3    H257461   1.547   5.654   4.171 -0.8405 -3.0155  1.1458
12016TIP3   OH257462   2.183   5.711  16.784  0.1050 -0.9388  0.1676
12016TIP3    H157463   2.273   5.679  16.789 -0.4037 -2.7622 -1.3667
12016TIP3    H257464   2.164   5.713  16.690 -1.7950 -1.6489  0.5046
12017TIP3   OH257465   6.409   6.367  12.771  0.1881  0.4431  0.1294
12017TIP3    H157466   6.360   6.400  12.847 -0.7367 -0.5741 -0.0006
12017TIP3    H257467   6.366   6.284  12.749 -1.0469  1.7416 -2.9113
12018TIP3   OH257468   5.732   0.877   2.163  0.0642  0.5301  0.4961
12018TIP3    H157469   5.662   0.812   2.171 -0.8464  1.6345  1.8923
12018TIP3    H257470   5.723   0.912   2.075  0.5860 -1.2153 -0.3021
12019TIP3   OH257471   0.225   3.779   4.942  0.1122  0.4209  0.1796
12019TIP3    H157472   0.226   3.724   4.864  1.7932  0.7825 -0.1048
12019TIP3    H257473   0.291   3.846   4.925 -0.3374  1.2243  1.4252
12020TIP3   OH257474   0.647   0.415  11.938  0.0533  0.4237  0.1262
12020TIP3    H157475   0.615   0.411  12.028  1.0178 -1.5217  0.4381
12020TIP3    H257476   0.580   0.369  11.887 -0.0740  0.7601 -0.0096
12021TIP3   OH257477   1.853   5.139   2.694  0.2877  0.6604 -0.3786
12021TIP3    H157478   1.830   5.167   2.783 -2.5212  0.8056 -1.0447
12021TIP3    H257479   1.923   5.199   2.668  1.3831  0.4221  1.7975
12022TIP3   OH257480   1.450   4.941   4.957 -0.2414  0.0610  0.1648
12022TIP3    H157481   1.482   4.859   4.995 -0.3440  0.6715  1.6310
12022TIP3    H257482   1.530   4.988   4.930  0.1635  1.1648  2.9473
12023TIP3   OH257483   1.207   1.430   4.785  0.5246  0.2429 -0.5421
12023TIP3    H157484   1.252   1.432   4.869  1.8072 -2.4139 -1.0529
12023TIP3    H257485   1.250   1.499   4.733  0.6475  0.9774  0.5074
12024TIP3   OH257486   3.221   5.277  15.749 -0.1717 -0.1788 -1.0411
12024TIP3    H157487   3.152   5.319  15.698 -0.3196  2.5428  1.1926
12024TIP3    H257488   3.175   5.212  15.802 -1.7337  3.1941  2.2252
12025TIP3   OH257489   5.646   2.946  10.454 -0.3703  0.3111 -0.1864
12025TIP3    H157490   5.602   2.900  10.382  0.0842  1.2995 -1.1225
12025TIP3    H257491   5.732   2.904  10.459 -0.5967 -0.1159  0.1379
12026TIP3   OH257492   6.295   2.670   0.582 -0.7895 -0.3697 -0.3604
12026TIP3    H157493   6.333   2.601   0.527 -0.0251 -1.2314  1.1772
12026TIP3    H257494   6.363   2.687   0.648 -0.3338  2.8741 -1.4666
12027TIP3   OH257495   6.299   1.224  15.443 -0.6262 -0.1210 -0.1204
12027TIP3    H157496   6.262   1.312  15.438  1.1488  0.6441 -0.8132
12027TIP3    H257497   6.283   1.186  15.356  1.5631  0.8552 -1.0347
12028TIP3   OH257498   1.191   2.036  16.758  0.0389 -0.6408 -0.2882
12028TIP3    H157499   1.154   1.950  16.735 -1.3088  0.0222 -0.6725
12028TIP3    H257500   1.144   2.098  16.703 -1.1884  0.6877  2.1379
12029TIP3   OH257501   4.402   5.939   5.756  0.9362  0.2842 -0.7662
12029TIP3    H157502   4.433   5.870   5.698  0.6692 -0.2324 -0.3021
12029TIP3    H257503   4.320   5.968   5.717  1.1369  0.4689 -1.0585
12030TIP3   OH257504   6.180   5.783  13.685  0.7744  0.2332  0.3086
12030TIP3    H157505   6.265   5.814  13.716  1.4730 -0.8216 -0.4729
12030TIP3    H257506   6.186   5.788  13.590  1.0257 -2.4391  0.1197
12031TIP3   OH257507   2.078   4.021   3.205 -0.3971 -0.4711 -0.1966
12031TIP3    H157508   2.057   3.943   3.256 -1.5397 -0.6195 -0.8673
12031TIP3    H257509   2.066   4.094   3.266 -1.8166 -0.6383 -0.2556
12032TIP3   OH257510   4.137   5.430  12.496  0.2089  0.8984  0.6066
12032TIP3    H157511   4.152   5.508  12.549 -0.2232  0.8781  0.7650
12032TIP3    H257512   4.043   5.414  12.504 -0.5218  2.7274 -2.7125
12033TIP3   OH257513   3.730   0.233  16.229 -0.0770  0.0531  0.3177
12033TIP3    H157514   3.778   0.150  16.224  0.3760  0.2863  0.6841
12033TIP3    H257515   3.650   0.217  16.180 -0.7361 -1.1117  1.7064
12034TIP3   OH257516   5.721   6.668  11.557 -0.1145 -0.0011 -0.8612
12034TIP3    H157517   5.792   6.611  11.527 -0.2482  0.5625 -2.3566
12034TIP3    H257518   5.763   6.727  11.621  0.3001 -0.9465 -0.2444
12035TIP3   OH257519   2.904   5.295   3.004 -0.5623 -0.5806  0.0386
12035TIP3    H157520   2.912   5.204   3.032 -2.4667 -1.3650 -1.6546
12035TIP3    H257521   2.975   5.307   2.941 -1.1512 -1.3768 -0.7959
12036TIP3   OH257522   3.399   1.030  10.950  1.0581 -0.0416 -0.0615
12036TIP3    H157523   3.368   0.960  10.893  2.4279  0.0128 -0.9115
12036TIP3    H257524   3.333   1.099  10.942  0.0135 -0.9838  0.3120
12037TIP3   OH257525   0.832   1.482  16.349  0.1728  0.0687 -0.2716
12037TIP3    H157526   0.810   1.508  16.438  0.1258 -0.7131 -0.0466
12037TIP3    H257527   0.760   1.425  16.321 -0.6170  1.5721 -1.4077
12038TIP3   OH257528   6.520   5.732   3.307 -0.5671  0.2362  0.4413
12038TIP3    H157529   6.584   5.767   3.245 -0.1820 -0.3008  0.5307
12038TIP3    H257530   6.435   5.752   3.268 -0.3246 -0.3378 -0.3966
12039TIP3   OH257531   6.626   2.597  11.695  0.4496 -0.1918 -0.5864
12039TIP3    H157532   6.538   2.571  11.669  0.7201 -0.0926 -1.6342
12039TIP3    H257533   6.612   2.661  11.765 -0.2439 -2.2869  1.3205
12040TIP3   OH257534   2.858   4.510   3.179 -0.2964  0.3660 -0.3728
12040TIP3    H157535   2.923   4.467   3.235 -2.3841  0.0952  2.0431
12040TIP3    H257536   2.800   4.555   3.240 -1.1925  2.3976 -2.5446
12041TIP3   OH257537   1.146   3.905  11.886  0.0453  0.1657 -0.0307
12041TIP3    H157538   1.100   3.821  11.882  1.0117 -0.3372 -1.0846
12041TIP3    H257539   1.176   3.920  11.797  1.7069  0.5831  0.5696
12042TIP3   OH257540   1.643   3.230  10.342  0.3818  0.4974 -0.2899
12042TIP3    H157541   1.564   3.255  10.390  0.4083  2.0479 -0.9806
12042TIP3    H257542   1.699   3.308  10.346  1.0355  0.1191 -1.5016
12043TIP3   OH257543   5.000   0.977  15.446 -0.6067  0.3034  0.3920
12043TIP3    H157544   4.995   1.010  15.535 -0.0879  0.6436  0.2967
12043TIP3    H257545   5.049   0.895  15.453  0.9277  1.1666  0.2109
12044TIP3   OH257546   1.634   6.081   2.736 -0.4321  0.2425  0.2316
12044TIP3    H157547   1.619   5.996   2.695 -0.4730 -0.0442  0.8276
12044TIP3    H257548   1.566   6.138   2.699  1.0064  0.6655 -1.9348
12045TIP3   OH257549   1.174   1.389  15.206  0.5886  0.3067 -0.2735
12045TIP3    H157550   1.109   1.436  15.258  0.0216 -1.2851  0.5080
12045TIP3    H257551   1.202   1.453  15.140 -1.1669  1.2927 -0.1334
12046TIP3   OH257552   5.698   3.291   5.870  0.0141  0.3910  0.7370
12046TIP3    H157553   5.622   3.349   5.879  0.3160  0.8628  0.3029
12046TIP3    H257554   5.767   3.348   5.837  0.4931 -0.0875  0.9102
12047TIP3   OH257555   4.776   0.310   1.973 -0.3918 -0.2039  0.3023
12047TIP3    H157556   4.736   0.388   2.012 -1.7905 -0.9128  0.3451
12047TIP3    H257557   4.833   0.276   2.042 -0.0944  0.5455  0.4370
12048TIP3   OH257558   4.246   4.190  11.417  0.2633 -0.6006 -0.0335
12048TIP3    H157559   4.296   4.151  11.344  0.2551  0.3519 -0.5647
12048TIP3    H257560   4.232   4.280  11.390 -1.0988 -0.6492  0.4627
12049TIP3   OH257561   0.702   2.030  14.197  0.3326  0.0412 -0.8052
12049TIP3    H157562   0.724   1.983  14.117  1.2531  0.0830 -0.5945
12049TIP3    H257563   0.638   2.096  14.170  0.5722  0.0004 -1.4941
12050TIP3   OH257564   6.008   0.408   3.336  0.2279 -0.8731  0.2661
12050TIP3    H157565   6.065   0.453   3.399 -1.7904  1.2304  0.7128
12050TIP3    H257566   6.007   0.465   3.259 -1.8251 -0.4602  0.5569
12051TIP3   OH257567   2.094   6.538   3.072  0.5008  0.2053 -0.2672
12051TIP3    H157568   2.068   6.606   3.134  0.1250 -0.4651  0.3346
12051TIP3    H257569   2.148   6.478   3.124 -0.8463 -1.0402 -0.2259
12052TIP3   OH257570   0.480   1.043   0.020  0.2244 -0.7116 -0.5202
12052TIP3    H157571   0.475   1.113   0.086 -1.1470 -1.7221  0.5166
12052TIP3    H257572   0.469   1.088  -0.063 -0.3667  0.3635  0.1041
12053TIP3   OH257573   0.049   2.285  13.506 -0.1305  0.4584 -0.2429
12053TIP3    H157574   0.104   2.207  13.496  0.1996  0.9226 -2.4473
12053TIP3    H257575  -0.039   2.256  13.480 -0.5152  0.2876  1.1415
12054TIP3   OH257576   2.226   6.678   0.688  1.0901  0.1809 -1.3902
12054TIP3    H157577   2.221   6.679   0.592 -2.5973 -0.5183 -1.3769
12054TIP3    H257578   2.183   6.596   0.712  0.4209  1.1305  0.8609
12055TIP3   OH257579   2.929   1.844  16.485 -0.5592 -0.1905 -0.1078
12055TIP3    H157580   2.892   1.769  16.438  0.2083 -0.9868  0.5075
12055TIP3    H257581   2.999   1.806  16.538  1.2341  1.2392 -1.3194
12056TIP3   OH257582   4.989   0.067   1.462 -0.0907  0.0149 -0.1141
12056TIP3    H157583   5.003   0.147   1.513 -0.7730  0.4328 -0.5648
12056TIP3    H257584   4.917   0.023   1.506 -0.9300  0.5596 -0.9087
12057TIP3   OH257585   2.540   2.274  12.600  0.7833 -0.8897 -0.2776
12057TIP3    H157586   2.595   2.222  12.542  0.7635 -1.0540 -0.1487
12057TIP3    H257587   2.450   2.251  12.577  0.5475  2.0913 -3.1164
12058TIP3   OH257588   3.659   4.366  14.366 -0.1704  0.0323 -0.0191
12058TIP3    H157589   3.589   4.432  14.361 -1.1456 -0.9733 -0.1413
12058TIP3    H257590   3.714   4.395  14.438  0.6532  2.1142 -1.3918
12059TIP3   OH257591   4.398   0.144  13.990 -0.1644  0.3855  0.5127
12059TIP3    H157592   4.459   0.093  14.044 -0.6389  0.4890  1.1560
12059TIP3    H257593   4.418   0.235  14.011  0.4551  0.4726 -0.3901
12060TIP3   OH257594   2.352   0.091   5.669 -0.0251  0.3953 -0.0883
12060TIP3    H157595   2.402   0.084   5.588 -0.1003  0.8514 -0.1797
12060TIP3    H257596   2.381   0.017   5.723 -0.1279 -0.0339 -0.6141
12061TIP3   OH257597   1.422   4.437  16.359 -0.4103 -0.0552 -0.5244
12061TIP3    H157598   1.454   4.350  16.382  0.5667  0.2253 -0.7822
12061TIP3    H257599   1.441   4.490  16.436 -1.9587 -0.2846  0.0455
12062TIP3   OH257600   2.055   3.973   1.487  0.1209  0.0119 -0.5195
12062TIP3    H157601   2.149   3.980   1.475  0.1378  3.8239  0.5435
12062TIP3    H257602   2.037   4.016   1.570 -2.5246 -1.2268 -0.3347
12063TIP3   OH257603   5.536   3.934   2.848 -0.0271  0.1165  0.3330
12063TIP3    H157604   5.458   3.888   2.880 -0.6699  0.1346 -1.1490
12063TIP3    H257605   5.609   3.890   2.893 -0.5401 -2.8304 -1.4197
12064TIP3   OH257606   2.521   5.280  15.369  0.1917 -0.4620  0.4149
12064TIP3    H157607   2.545   5.342  15.438 -0.4385 -0.4394  0.6159
12064TIP3    H257608   2.437   5.311  15.336  0.1459 -0.8782  0.1243
12065TIP3   OH257609   3.366   1.273   5.290  0.3717  0.0836  0.1102
12065TIP3    H157610   3.366   1.367   5.308 -1.4482  0.5430 -1.8684
12065TIP3    H257611   3.426   1.262   5.216 -0.4749 -0.0503 -0.5787
12066TIP3   OH257612   0.527   3.278   2.205 -0.8200 -0.0914  0.5961
12066TIP3    H157613   0.507   3.266   2.298 -0.8231  0.2421  0.6392
12066TIP3    H257614   0.442   3.287   2.163 -0.8448  3.2040  1.0225
12067TIP3   OH257615   6.709   0.467   2.386  0.0628 -0.6549  0.2115
12067TIP3    H157616   6.780   0.414   2.351  1.2032  0.4845  0.7553
12067TIP3    H257617   6.729   0.476   2.479 -0.0178  0.8443  0.1060
12068TIP3   OH257618   4.011   2.171   5.224  0.6639  0.2153  0.3449
12068TIP3    H157619   4.024   2.149   5.132 -0.8387 -1.2729  0.4319
12068TIP3    H257620   4.012   2.266   5.227  1.6679  0.2753 -1.0470
12069TIP3   OH257621   5.887   1.439   3.776 -0.4276  0.0074  0.2754
12069TIP3    H157622   5.810   1.439   3.719 -0.7177 -0.5987  0.6516
12069TIP3    H257623   5.932   1.357   3.757  0.2327  0.4380 -0.0669
12070TIP3   OH257624   4.033   3.232  11.449  0.1358 -0.5114 -0.5393
12070TIP3    H157625   4.053   3.139  11.457  1.2395 -0.1405  2.5448
12070TIP3    H257626   4.098   3.266  11.387  1.8613 -1.3090  0.7519
12071TIP3   OH257627   3.312   2.619   2.466 -0.4314 -0.4378 -0.3876
12071TIP3    H157628   3.336   2.677   2.394 -1.0087  1.0776  0.6031
12071TIP3    H257629   3.385   2.625   2.527  0.2416 -2.0278 -0.9635
12072TIP3   OH257630   5.217   1.580   2.985 -0.2490  0.2055 -0.1171
12072TIP3    H157631   5.266   1.522   3.044 -1.1438 -0.8993 -0.4071
12072TIP3    H257632   5.130   1.540   2.980  0.1731 -0.5509 -3.2776
12073TIP3   OH257633   6.212   5.030   1.215 -0.2217 -0.0172  0.1407
12073TIP3    H157634   6.262   5.093   1.267 -0.4379  0.5520 -0.3309
12073TIP3    H257635   6.262   4.949   1.220  0.8603  0.5932 -0.4873
12074TIP3   OH257636   2.868   4.158   0.702  0.0050  0.0579  0.3922
12074TIP3    H157637   2.797   4.105   0.666 -0.0750  0.4109  0.0113
12074TIP3    H257638   2.924   4.096   0.749  0.9936 -0.7061 -1.6821
12075TIP3   OH257639   0.304   1.483  12.983  0.0212 -0.2957 -0.1890
12075TIP3    H157640   0.309   1.453  12.892 -0.8856 -1.3917  0.0864
12075TIP3    H257641   0.366   1.427  13.030  0.8846  0.6274 -0.1999
12076TIP3   OH257642   0.701   2.469   2.124 -0.4328  0.3224 -0.6261
12076TIP3    H157643   0.718   2.563   2.132  0.4695  0.1649 -0.6030
12076TIP3    H257644   0.736   2.446   2.038 -0.2088 -0.0823 -0.4283
12077TIP3   OH257645   3.019   3.428  13.675  0.4159  0.0995  0.5608
12077TIP3    H157646   3.026   3.415  13.769 -0.1037 -0.5903  0.5082
12077TIP3    H257647   2.926   3.450  13.660  0.7560  1.5514  0.3589
12078TIP3   OH257648   6.756   4.361  14.567  0.5988  0.9273  0.0242
12078TIP3    H157649   6.753   4.329  14.476 -0.7680  1.4023 -0.1097
12078TIP3    H257650   6.719   4.449  14.563  0.1282  0.7938  1.1092
12079TIP3   OH257651   4.962   0.513  14.748  0.1322  0.0053  0.6304
12079TIP3    H157652   5.011   0.457  14.687  2.7225  1.0006  1.6772
12079TIP3    H257653   4.932   0.453  14.816 -0.8288 -0.7509 -0.4314
12080TIP3   OH257654   3.920   4.879  14.246  0.2790 -0.4077  0.2392
12080TIP3    H157655   3.894   4.792  14.278  0.7546 -0.8762 -0.6070
12080TIP3    H257656   3.839   4.931  14.249 -0.2234 -1.1532 -0.1464
12081TIP3   OH257657   4.818   4.963   2.971  0.1877  0.2940 -0.0826
12081TIP3    H157658   4.853   5.019   3.040  0.6812  1.4976 -1.2768
12081TIP3    H257659   4.755   5.018   2.925  0.8226 -0.0388 -1.3970
12082TIP3   OH257660   1.452   5.886  15.409  0.2026  0.3962 -0.2948
12082TIP3    H157661   1.411   5.831  15.476 -1.1398 -0.5259 -1.7940
12082TIP3    H257662   1.519   5.830  15.370  1.9251  1.3870  1.1225
12083TIP3   OH257663   5.965   3.585   6.657  0.5584 -0.0837 -0.7863
12083TIP3    H157664   6.037   3.639   6.623  0.9130  1.6675  2.3992
12083TIP3    H257665   5.930   3.635   6.730 -4.7050 -0.3359 -2.7524
12084TIP3   OH257666   6.752   5.391   1.469  0.3189  0.1853 -0.5106
12084TIP3    H157667   6.683   5.367   1.530  1.8007 -1.4909  0.6125
12084TIP3    H257668   6.771   5.483   1.489 -0.6321  0.2622  0.0927
12085TIP3   OH257669   3.444   5.748   5.736 -0.0727  0.7339 -0.2674
12085TIP3    H157670   3.533   5.769   5.764  0.8339 -1.4431 -1.3148
12085TIP3    H257671   3.447   5.655   5.711 -3.0994  0.0073  1.5188
12086TIP3   OH257672   6.102   5.222   0.496  0.1304  0.0511 -0.3656
12086TIP3    H157673   6.084   5.250   0.407  0.1971  0.6897 -0.1797
12086TIP3    H257674   6.122   5.302   0.544 -0.2975 -0.2367  0.3200
12087TIP3   OH257675   5.996   3.255  15.897 -0.0921  0.2935 -0.3860
12087TIP3    H157676   5.967   3.287  15.983  2.2905 -0.4454  0.8036
12087TIP3    H257677   6.092   3.263  15.901  0.1445 -0.9478 -2.5084
12088TIP3   OH257678   4.300   4.735  12.948 -0.4560  0.3935 -0.0798
12088TIP3    H157679   4.227   4.683  12.984  0.4028  0.5950  2.0930
12088TIP3    H257680   4.265   4.824  12.943 -0.4901  0.4212  0.5851
12089TIP3   OH257681   1.089   3.681   2.498 -0.5596 -0.1211 -0.1198
12089TIP3    H157682   1.103   3.587   2.516 -2.6710 -0.4520  0.0626
12089TIP3    H257683   1.019   3.683   2.433 -0.2933  1.3377 -0.3884
12090TIP3   OH257684   5.512   5.417  15.393 -0.9333  0.3459  0.6347
12090TIP3    H157685   5.432   5.380  15.357 -0.9599  0.4619  0.5714
12090TIP3    H257686   5.579   5.399  15.326 -1.2293  1.6190 -0.0458
12091TIP3   OH257687   2.491   5.519   2.659 -0.2347 -0.4792  0.2209
12091TIP3    H157688   2.400   5.543   2.640 -0.0957 -0.6685 -0.6943
12091TIP3    H257689   2.525   5.486   2.577  0.6979 -0.3293  0.5398
12092TIP3   OH257690   0.522   0.898  12.398 -0.1886 -0.3898 -0.4952
12092TIP3    H157691   0.545   0.914  12.490 -1.9743  0.4436 -0.1540
12092TIP3    H257692   0.430   0.872  12.400 -0.2118 -0.5267 -2.0487
12093TIP3   OH257693   0.202   3.380   1.350  0.3729 -0.3284 -0.0563
12093TIP3    H157694   0.191   3.329   1.430 -0.9424 -0.3584 -0.2367
12093TIP3    H257695   0.190   3.471   1.378 -1.3486 -0.4176 -0.3961
12094TIP3   OH257696   5.065   2.320   5.192 -0.6083 -0.0117  0.2775
12094TIP3    H157697   5.090   2.375   5.118  2.1263 -0.5936  0.6690
12094TIP3    H257698   5.086   2.374   5.269 -0.3185 -0.6345  0.6394
12095TIP3   OH257699   4.364   2.520  17.047  0.0859 -0.0200 -0.0604
12095TIP3    H157700   4.432   2.582  17.070 -0.1432  0.9226 -1.7851
12095TIP3    H257701   4.411   2.438  17.029  0.8639  0.7762 -1.8268
12096TIP3   OH257702   0.281   0.057  12.178 -0.3086  0.2858 -0.6217
12096TIP3    H157703   0.335   0.091  12.249  0.9047  0.0232 -1.3885
12096TIP3    H257704   0.343   0.015  12.118 -1.4969 -1.3192 -0.8174
12097TIP3   OH257705   5.589   0.945   6.931  0.4010 -0.5510 -0.4706
12097TIP3    H157706   5.612   1.026   6.977  3.6728 -1.9564  0.6553
12097TIP3    H257707   5.526   0.973   6.864  1.4066  2.9375 -0.1726
12098TIP3   OH257708   2.916   5.882   0.503 -1.1485 -0.4372  0.0134
12098TIP3    H157709   2.950   5.902   0.415  0.9503  0.0178  0.8676
12098TIP3    H257710   2.916   5.966   0.549  1.5845 -1.1923  1.6267
12099TIP3   OH257711   5.672   2.800  14.459 -0.1554  0.6128 -0.0528
12099TIP3    H157712   5.717   2.879  14.488 -1.4577  0.5919  2.2443
12099TIP3    H257713   5.581   2.813  14.487 -0.0222 -2.5019  2.2800
12100TIP3   OH257714   6.594   3.958  11.074 -0.1502  0.8621  0.2322
12100TIP3    H157715   6.554   3.914  10.999 -0.8947 -1.1011  1.7038
12100TIP3    H257716   6.631   4.038  11.038 -2.8054  1.3196 -1.7549
12101TIP3   OH257717   6.137   0.563   5.814 -0.2404  0.0624  0.2323
12101TIP3    H157718   6.044   0.579   5.830 -0.0411  0.6165  0.8919
12101TIP3    H257719   6.182   0.631   5.864  0.4687  1.0887 -1.7001
12102TIP3   OH257720   3.887   2.884   2.438 -0.6286 -0.2968 -0.2466
12102TIP3    H157721   3.890   2.943   2.362 -1.2335 -1.6285 -1.3368
12102TIP3    H257722   3.801   2.901   2.477 -1.1518 -1.0455 -1.0566
12103TIP3   OH257723   2.351   4.190   2.444  0.0059  0.4156  0.6656
12103TIP3    H157724   2.433   4.163   2.402 -0.9157  0.9258 -1.5762
12103TIP3    H257725   2.357   4.285   2.448 -1.0029  0.5771 -0.7911
12104TIP3   OH257726   4.506   5.190   3.059 -0.1247  0.3134 -0.2518
12104TIP3    H157727   4.485   5.278   3.091  0.0032  0.0329  0.6224
12104TIP3    H257728   4.588   5.167   3.104  0.0934 -0.0705 -0.8305
12105TIP3   OH257729   2.982   5.789  14.775 -1.0549 -0.9036  0.1047
12105TIP3    H157730   3.000   5.725  14.706 -2.2267 -1.7295  0.5362
12105TIP3    H257731   2.898   5.828  14.750 -0.9611 -0.4276  0.5082
12106TIP3   OH257732   1.178   3.804   5.608 -0.3558  0.0144 -0.2834
12106TIP3    H157733   1.155   3.879   5.553 -1.0718 -0.1198 -0.1743
12106TIP3    H257734   1.166   3.728   5.552 -3.6048 -0.3689  0.6953
12107TIP3   OH257735   2.959   5.586  12.777 -0.3167 -0.5303  0.2006
12107TIP3    H157736   2.938   5.600  12.869 -0.2666 -0.1484  0.1598
12107TIP3    H257737   2.875   5.579  12.733 -0.4001 -3.9392  0.6919
12108TIP3   OH257738   0.228   2.476  15.306  0.0975  0.0984 -0.1194
12108TIP3    H157739   0.311   2.524  15.310  0.4325 -0.5635  1.8158
12108TIP3    H257740   0.253   2.385  15.290 -0.4840  0.3337 -2.7880
12109TIP3   OH257741   1.674   2.930   4.901 -0.1480 -0.0040  0.5967
12109TIP3    H157742   1.633   2.949   4.986  0.5545  0.2597  0.8832
12109TIP3    H257743   1.607   2.881   4.853 -0.7203  0.2298  1.1348
12110TIP3   OH257744   5.303   4.043  16.270  0.5465  0.6594  0.7801
12110TIP3    H157745   5.325   4.111  16.333 -0.4864  0.4493  1.3874
12110TIP3    H257746   5.229   4.078  16.221 -1.0995 -0.6569  2.2282
12111TIP3   OH257747   5.511   5.289   3.539  0.3154 -0.3898 -0.3262
12111TIP3    H157748   5.482   5.200   3.559  0.2007 -0.4462 -0.7294
12111TIP3    H257749   5.442   5.345   3.575  1.3382 -0.3512  1.6835
12112TIP3   OH257750   4.586   5.964   5.279  0.3776  0.3951 -0.4037
12112TIP3    H157751   4.601   5.988   5.188 -0.9847 -0.3990 -0.8601
12112TIP3    H257752   4.495   5.988   5.296  0.8452  1.2586  0.9973
12113TIP3   OH257753   2.448   1.391  11.573 -0.3092  0.2563  0.4126
12113TIP3    H157754   2.443   1.295  11.566 -2.0429  0.3766 -0.6577
12113TIP3    H257755   2.372   1.415  11.626 -1.3471  1.1660 -1.3893
12114TIP3   OH257756   3.205   5.767  16.524  0.3758  0.3322  0.3173
12114TIP3    H157757   3.184   5.856  16.553  1.3299  0.7493 -0.2057
12114TIP3    H257758   3.263   5.780  16.448 -1.1945 -0.7202 -1.1342
12115TIP3   OH257759   2.133   5.458   1.273  0.7141 -0.3416  0.2349
12115TIP3    H157760   2.194   5.411   1.331  3.6330  0.5435 -1.8616
12115TIP3    H257761   2.155   5.550   1.284 -0.4127  0.0266 -0.4439
12116TIP3   OH257762   5.338   0.721   4.310 -0.3527 -0.1935 -0.3016
12116TIP3    H157763   5.420   0.711   4.261  1.3830  1.6562  2.0208
12116TIP3    H257764   5.323   0.635   4.348  0.7371 -0.4542 -0.4188
12117TIP3   OH257765   5.680   0.908   6.303  0.1369  0.2151 -0.1539
12117TIP3    H157766   5.707   0.828   6.349 -3.1228 -1.2862 -0.5815
12117TIP3    H257767   5.635   0.960   6.370 -1.3021 -0.2347 -0.7389
12118TIP3   OH257768   2.946   5.960  16.646  0.0493 -0.0698  0.0398
12118TIP3    H157769   2.882   6.031  16.645  0.7462  0.6577  1.9387
12118TIP3    H257770   3.012   5.986  16.583 -0.7023 -0.0524 -0.7650
12119TIP3   OH257771   6.606   4.263  15.015  0.0576  0.3408  0.2053
12119TIP3    H157772   6.584   4.217  14.934 -0.6499 -1.9194  1.5890
12119TIP3    H257773   6.522   4.274  15.060  0.5979  0.1800  1.2966
12120TIP3   OH257774   5.758   5.609  13.548  0.3482 -0.8637 -0.2303
12120TIP3    H157775   5.851   5.619  13.531 -0.0326  1.0168 -1.5474
12120TIP3    H257776   5.751   5.597  13.642  1.8733  0.0617  0.0304
12121TIP3   OH257777   3.794   1.524  15.240 -0.0134  0.1583  0.0437
12121TIP3    H157778   3.735   1.483  15.303 -1.1605  1.8375  0.1541
12121TIP3    H257779   3.755   1.610  15.225  3.1600  1.9372  1.1557
12122TIP3   OH257780   0.449   1.590   3.460  0.1737 -0.7577 -0.2322
12122TIP3    H157781   0.378   1.548   3.412 -0.6358  1.9793 -1.6724
12122TIP3    H257782   0.433   1.568   3.551 -2.3984 -0.4836 -0.5449
12123TIP3   OH257783   5.533   6.391  10.559  0.0391 -0.0914  0.2190
12123TIP3    H157784   5.508   6.346  10.478  1.8551  0.7266 -0.8698
12123TIP3    H257785   5.462   6.452  10.576 -0.6683 -0.7241 -0.4044
12124TIP3   OH257786   2.131   6.396   2.610  0.0128 -0.3224  0.9608
12124TIP3    H157787   2.104   6.468   2.552 -0.7728 -0.6976  0.8421
12124TIP3    H257788   2.172   6.439   2.684  2.5068  0.1318 -0.5710
12125TIP3   OH257789   4.056   0.233  14.622  0.3452  0.1819  0.1801
12125TIP3    H157790   4.058   0.257  14.530 -1.4247  1.8032  0.4894
12125TIP3    H257791   4.146   0.243  14.652  0.9804 -0.5352 -1.3755
12126TIP3   OH257792   5.031   0.990   4.514 -0.6163  0.0779 -0.5116
12126TIP3    H157793   5.058   0.955   4.599  1.4949  0.6111 -0.9009
12126TIP3    H257794   5.029   1.085   4.526 -2.2557  0.0651 -0.5539
12127TIP3   OH257795   1.682   2.625   4.082  0.2926  0.1280  0.2248
12127TIP3    H157796   1.721   2.586   4.161  2.2802  1.4361 -0.0602
12127TIP3    H257797   1.588   2.610   4.093  0.3495  1.4000  3.4999
12128TIP3   OH257798   1.806   1.855   1.715 -0.1116  0.9602  0.7774
12128TIP3    H157799   1.812   1.924   1.781  0.3611  1.1098  0.5874
12128TIP3    H257800   1.744   1.791   1.751 -0.6619  1.5480  0.8947
12129TIP3   OH257801   5.604   5.345   0.087 -0.4242 -0.3344 -0.7414
12129TIP3    H157802   5.597   5.250   0.095 -0.2413 -0.6494 -3.2872
12129TIP3    H257803   5.515   5.375   0.068 -0.5315  0.0615  0.3339
12130TIP3   OH257804   6.287   0.148   5.665  0.5586  0.2071 -0.4199
12130TIP3    H157805   6.328   0.179   5.584  0.3805  1.6704  0.0234
12130TIP3    H257806   6.323   0.205   5.733  1.7734 -1.8648  0.7874
12131TIP3   OH257807   3.350   5.742  15.809 -0.7304  0.0802  0.2114
12131TIP3    H157808   3.306   5.688  15.874 -1.3705 -0.4550 -0.6475
12131TIP3    H257809   3.279   5.777  15.754 -0.2413  0.8865  0.0727
12132TIP3   OH257810   6.261   2.353   3.969 -0.0107 -0.3437 -0.3386
12132TIP3    H157811   6.339   2.410   3.973 -0.4932  0.3856 -1.0110
12132TIP3    H257812   6.199   2.394   4.030 -0.7152  0.4369 -1.5337
12133TIP3   OH257813   5.690   2.974   5.951  0.1313  0.3616 -0.2407
12133TIP3    H157814   5.618   2.969   6.014 -0.0756 -0.3773 -0.5286
12133TIP3    H257815   5.690   3.065   5.922  0.1679  0.6916  0.7514
12134TIP3   OH257816   6.542   1.707   1.942  0.0914 -0.3226 -0.6367
12134TIP3    H157817   6.479   1.740   1.877 -0.0362 -0.9054 -0.8124
12134TIP3    H257818   6.519   1.754   2.022 -1.9041 -1.9542 -0.1602
12135TIP3   OH257819   5.577   0.763  11.558 -0.7685  0.2686  0.6687
12135TIP3    H157820   5.602   0.759  11.650  0.6421 -0.6557  0.2692
12135TIP3    H257821   5.624   0.691  11.517 -0.0701  1.6348 -1.0767
12136TIP3   OH257822   2.395   6.558   5.528  0.0211  0.5478  0.2027
12136TIP3    H157823   2.444   6.482   5.494  0.0177  0.6107  0.0591
12136TIP3    H257824   2.463   6.622   5.549 -0.1085  1.8732 -2.9016
12137TIP3   OH257825   2.440   3.577  14.581  0.2523  0.1044 -0.0893
12137TIP3    H157826   2.499   3.632  14.633  1.5498 -1.0951 -0.2285
12137TIP3    H257827   2.486   3.493  14.574 -0.2838 -0.0678 -2.3991
12138TIP3   OH257828   5.429   3.101   5.903  0.6015 -0.0925  0.0878
12138TIP3    H157829   5.360   3.051   5.946  2.3948 -1.2134  1.7998
12138TIP3    H257830   5.489   3.125   5.974  1.7101  1.3124 -1.2568
12139TIP3   OH257831   4.381   6.250   2.652 -0.3330 -0.2132  0.1219
12139TIP3    H157832   4.346   6.173   2.696  0.4392 -0.2312  0.7131
12139TIP3    H257833   4.303   6.298   2.623 -0.8954  0.0934  1.9962
12140TIP3   OH257834   6.679   5.672  13.197  0.3299 -0.7097 -0.0754
12140TIP3    H157835   6.612   5.643  13.259 -1.1808  1.5001 -0.5607
12140TIP3    H257836   6.680   5.767  13.206  3.0481 -0.6108 -0.5167
12141TIP3   OH257837   1.279   2.980   4.835  0.3072 -0.4200  0.5253
12141TIP3    H157838   1.271   3.044   4.764  0.9557 -1.3066 -0.3729
12141TIP3    H257839   1.353   2.925   4.810 -2.1248 -3.6099 -0.4777
12142TIP3   OH257840   1.848   3.179  11.337  0.1611  0.0395  0.0550
12142TIP3    H157841   1.785   3.230  11.285 -0.3543 -0.9536 -0.3342
12142TIP3    H257842   1.934   3.208  11.305 -0.0935  1.1476  0.3337
12143TIP3   OH257843   0.661   2.331  14.287  0.0501 -0.1789  0.1154
12143TIP3    H157844   0.697   2.344  14.199  0.7029 -0.9150  0.2651
12143TIP3    H257845   0.728   2.367  14.345 -0.6946  0.9616  0.2983
12144TIP3   OH257846   5.399   4.907   2.053 -0.2046 -0.1002 -0.1068
12144TIP3    H157847   5.309   4.925   2.026 -0.0167  0.9725 -0.0771
12144TIP3    H257848   5.390   4.863   2.138 -0.6994  1.9241  0.9726
12145TIP3   OH257849   3.564   0.886  11.105 -0.3839 -0.1382  0.1287
12145TIP3    H157850   3.494   0.939  11.067  0.9690  1.0898 -0.7417
12145TIP3    H257851   3.545   0.797  11.076 -1.3364  0.2382 -0.4592
12146TIP3   OH257852   3.438   0.324   2.023 -0.6557  0.7078 -0.2672
12146TIP3    H157853   3.396   0.271   2.091  0.3248  1.2838  0.8273
12146TIP3    H257854   3.371   0.388   1.998 -0.4213  1.7841  1.6399
12147TIP3   OH257855   2.703   2.712   1.082  0.1165  0.4764 -0.2937
12147TIP3    H157856   2.633   2.665   1.128  0.2219 -0.0152 -0.6293
12147TIP3    H257857   2.696   2.802   1.113  0.3502  0.1071  0.8977
12148TIP3   OH257858   2.775   3.972   3.415 -0.5078  0.5517  0.0746
12148TIP3    H157859   2.837   4.027   3.461 -0.1011  0.2293 -0.0845
12148TIP3    H257860   2.694   4.023   3.414 -0.8166  0.1440  2.0021
12149TIP3   OH257861   5.765   5.857  11.733 -0.5466 -0.1381 -0.2725
12149TIP3    H157862   5.723   5.785  11.780  0.7893 -0.6972  0.1179
12149TIP3    H257863   5.816   5.903  11.800  1.8287 -1.2733 -1.2085
12150TIP3   OH257864   0.732   4.853  10.891 -0.0363  0.3260 -0.2957
12150TIP3    H157865   0.818   4.853  10.848  1.3001  1.4112  2.2154
12150TIP3    H257866   0.672   4.826  10.822  2.5050 -2.3532 -1.7198
12151TIP3   OH257867   1.105   2.387  15.800 -0.5290  0.2497  0.8361
12151TIP3    H157868   1.171   2.439  15.754  0.0405 -1.2850 -0.1309
12151TIP3    H257869   1.150   2.354  15.878 -0.4909  0.1169  0.7578
12152TIP3   OH257870   1.670   2.174   0.663  0.4948  0.1361 -0.5431
12152TIP3    H157871   1.687   2.148   0.572  2.9315 -1.5781  0.2862
12152TIP3    H257872   1.661   2.091   0.710  0.2851  0.9633  0.9400
12153TIP3   OH257873   3.461   5.605  12.668  0.2916 -0.6495  0.5431
12153TIP3    H157874   3.378   5.557  12.658  1.0395 -1.8285 -0.3312
12153TIP3    H257875   3.497   5.571  12.750 -0.2479  0.1383  1.1179
12154TIP3   OH257876   6.470   1.889   3.566  0.1124 -0.3977  0.6373
12154TIP3    H157877   6.494   1.828   3.496 -0.6934 -0.2057  0.1774
12154TIP3    H257878   6.512   1.854   3.644  1.4588 -0.3376 -0.0298
12155TIP3   OH257879   6.158   4.872   3.119  0.1732 -0.0119  0.4200
12155TIP3    H157880   6.139   4.877   3.212 -2.2317  0.8759 -0.0549
12155TIP3    H257881   6.236   4.817   3.113  0.7865  0.4553  2.9734
12156TIP3   OH257882   1.147   0.164  15.001  0.3144  0.1525  0.3502
12156TIP3    H157883   1.064   0.211  14.998 -0.9226 -1.8753  1.0917
12156TIP3    H257884   1.143   0.111  15.081  2.0163 -0.5465  0.0295
12157TIP3   OH257885   1.269   4.630   4.814  0.1529 -0.2719  0.6414
12157TIP3    H157886   1.272   4.538   4.840  1.6074 -0.1765  0.8998
12157TIP3    H257887   1.358   4.662   4.830  0.0229  0.8330 -0.6846
12158TIP3   OH257888   6.037   5.703  16.712 -0.0440 -0.6917  0.0132
12158TIP3    H157889   6.035   5.688  16.806 -2.3077 -0.8972 -0.0012
12158TIP3    H257890   6.126   5.683  16.685  0.9412  0.3763  2.2586
12159TIP3   OH257891   2.283   3.488  17.094 -0.0323 -0.2157 -0.3431
12159TIP3    H157892   2.331   3.567  17.115  0.4163 -0.3251 -0.9304
12159TIP3    H257893   2.344   3.435  17.042 -0.0275 -1.3101  0.7386
12160TIP3   OH257894   4.647   3.267  12.736 -0.4426  0.3009 -0.4678
12160TIP3    H157895   4.618   3.255  12.646  0.1063  0.4331 -0.6669
12160TIP3    H257896   4.641   3.362  12.751 -0.8360  0.2436 -0.2617
12161TIP3   OH257897   1.512   3.199  15.458 -0.2292  0.0299  0.0023
12161TIP3    H157898   1.469   3.232  15.537 -1.6311 -1.6913  0.0163
12161TIP3    H257899   1.603   3.226  15.468  0.3326 -2.4319  3.6487
12162TIP3   OH257900   6.048   4.097   4.630 -0.2527 -0.1273 -0.1382
12162TIP3    H157901   6.017   4.008   4.650 -2.2235  0.2279 -1.3428
12162TIP3    H257902   6.140   4.085   4.606 -0.0193 -1.5950  1.3030
12163TIP3   OH257903   5.129   1.354   1.843  0.4412  0.0749 -0.2340
12163TIP3    H157904   5.081   1.424   1.889  1.3589 -0.4917  1.6633
12163TIP3    H257905   5.205   1.398   1.806  0.0782  0.4006 -0.6083
12164TIP3   OH257906   5.388   2.704   1.259 -0.5129  0.2622 -0.1283
12164TIP3    H157907   5.342   2.621   1.247 -1.4655  0.7904 -0.2744
12164TIP3    H257908   5.473   2.680   1.294 -0.2706 -0.8596 -1.4270
12165TIP3   OH257909   1.311   6.513   3.308 -0.5782  0.2696 -0.3236
12165TIP3    H157910   1.283   6.422   3.305  1.3212 -0.3723  0.1151
12165TIP3    H257911   1.337   6.534   3.218  1.3557 -0.4536  0.0309
12166TIP3   OH257912   2.707   5.877  14.971  0.3053 -0.6473  0.1117
12166TIP3    H157913   2.622   5.856  15.009  1.1828 -1.0136  1.9617
12166TIP3    H257914   2.757   5.795  14.975  1.1977 -0.1132  0.3068
12167TIP3   OH257915   1.102   1.318  11.342 -0.4232  0.4476  0.3643
12167TIP3    H157916   1.158   1.240  11.343 -0.8135  0.1731  0.7863
12167TIP3    H257917   1.115   1.355  11.255  0.9372  0.7617  0.6737
12168TIP3   OH257918   1.319   2.962  17.026  0.4096 -0.2861  0.2218
12168TIP3    H157919   1.338   2.913  16.945  0.3072  1.2498 -0.7740
12168TIP3    H257920   1.282   3.045  16.995  0.5681  0.4199  1.8540
12169TIP3   OH257921   3.811   3.662  12.497 -0.2036  0.2144 -0.2581
12169TIP3    H157922   3.786   3.754  12.507 -1.7120  0.0389 -1.9804
12169TIP3    H257923   3.886   3.651  12.556 -0.0906  2.4954  0.1042
12170TIP3   OH257924   5.434   3.173  11.479 -0.3937  1.0233 -0.4397
12170TIP3    H157925   5.472   3.118  11.547  1.3826 -0.3599 -2.3993
12170TIP3    H257926   5.354   3.127  11.452 -0.1404  0.6064 -0.4878
12171TIP3   OH257927   3.597   0.731  12.943 -0.4853 -0.4065 -0.5731
12171TIP3    H157928   3.562   0.787  13.012 -0.1387  1.5799 -1.9371
12171TIP3    H257929   3.692   0.737  12.954 -0.4416 -0.4719 -0.9219
12172TIP3   OH257930   2.019   1.627   4.782 -0.5010 -0.2522  0.2264
12172TIP3    H157931   2.078   1.683   4.732 -1.2898  1.4316  1.0975
12172TIP3    H257932   2.076   1.562   4.823  0.7427  1.2058  0.8845
12173TIP3   OH257933   6.503   6.223  14.212  0.1258 -0.4820 -0.4262
12173TIP3    H157934   6.420   6.272  14.212 -0.1776 -0.9818 -1.0544
12173TIP3    H257935   6.561   6.275  14.156  0.5219  0.3105  0.6796
12174TIP3   OH257936   6.303   3.551   6.398 -0.0417 -0.1854  0.0988
12174TIP3    H157937   6.397   3.563   6.410  0.1445 -1.5566  0.2377
12174TIP3    H257938   6.294   3.528   6.305 -0.1549 -0.7397  0.2457
12175TIP3   OH257939   4.564   1.267  15.527  0.1157  0.0583  0.1022
12175TIP3    H157940   4.574   1.359  15.550 -3.0418  1.1194 -1.9986
12175TIP3    H257941   4.609   1.258  15.442  0.1290 -0.2694  0.1403
12176TIP3   OH257942   3.703   5.826   5.743  0.0727 -0.0736  0.2231
12176TIP3    H157943   3.757   5.814   5.820 -0.1214  0.1160  0.3907
12176TIP3    H257944   3.731   5.910   5.706  1.3417 -0.9403 -0.8784
12177TIP3   OH257945   6.692   6.287   4.461 -0.0083  0.0280 -0.4934
12177TIP3    H157946   6.616   6.325   4.505  1.0781  2.6399 -0.6759
12177TIP3    H257947   6.699   6.198   4.496 -2.9593 -0.2051 -0.2984
12178TIP3   OH257948   2.615   0.827  15.944 -0.6139 -0.5466 -0.6343
12178TIP3    H157949   2.675   0.793  15.877 -1.7189 -0.5355 -1.6732
12178TIP3    H257950   2.534   0.847  15.895 -1.0178  0.6838  0.4866
12179TIP3   OH257951   3.479   5.755   4.794  0.0339  0.4977 -0.0890
12179TIP3    H157952   3.403   5.702   4.819  0.5330  0.4802  1.4956
12179TIP3    H257953   3.553   5.695   4.800  0.0005 -0.2068 -4.0824
12180TIP3   OH257954   2.923   6.558  13.094  0.2436 -0.0566  0.0084
12180TIP3    H157955   3.005   6.511  13.108  1.5163  0.8873 -3.3650
12180TIP3    H257956   2.869   6.496  13.044  0.4971  0.7086 -1.2456
12181TIP3   OH257957   3.559   3.692  15.848 -0.3539 -0.1667 -0.0489
12181TIP3    H157958   3.527   3.605  15.825  3.5406 -1.2446 -2.3431
12181TIP3    H257959   3.492   3.752  15.816 -1.5838 -2.2330 -1.5516
12182TIP3   OH257960   5.606   4.076   5.975 -0.2595 -0.0753 -0.0599
12182TIP3    H157961   5.629   4.017   6.046 -1.2598 -0.1633  0.2115
12182TIP3    H257962   5.551   4.143   6.016 -0.8479 -0.1281 -0.7390
12183TIP3   OH257963   0.309   1.930   1.193 -0.2737  0.2640 -0.1318
12183TIP3    H157964   0.276   2.007   1.237 -0.1259  0.4099 -0.2724
12183TIP3    H257965   0.308   1.953   1.100 -2.1013 -0.6095 -0.3701
12184TIP3   OH257966   5.783   3.328   2.610 -0.0364 -0.3095  0.6869
12184TIP3    H157967   5.694   3.306   2.637 -0.3074 -0.4956 -0.3165
12184TIP3    H257968   5.795   3.280   2.528  0.7198  0.3077  0.4288
12185TIP3   OH257969   3.820   5.106  14.988 -0.5412 -0.0377 -0.0952
12185TIP3    H157970   3.832   5.150  15.071 -0.4159 -1.7528  0.8543
12185TIP3    H257971   3.897   5.128  14.937 -0.2835  0.4819  0.5156
12186TIP3   OH257972   0.985   0.374  13.663 -0.1907  0.4281  0.1561
12186TIP3    H157973   1.029   0.290  13.674 -1.4465 -0.4350 -1.0928
12186TIP3    H257974   1.008   0.402  13.574 -2.3498 -0.2289 -0.6789
12187TIP3   OH257975   2.162   5.439   4.049 -0.3729  0.0778 -0.1829
12187TIP3    H157976   2.253   5.465   4.043  0.0138 -1.2977 -0.6388
12187TIP3    H257977   2.162   5.363   4.107 -0.9108 -1.2279 -1.7966
12188TIP3   OH257978   2.811   2.822   0.480 -0.0332 -0.1248  0.2979
12188TIP3    H157979   2.869   2.897   0.475  0.1255 -0.1990  0.9944
12188TIP3    H257980   2.831   2.771   0.401 -0.6421  0.9089 -0.5406
12189TIP3   OH257981   0.165   4.601   5.657 -0.7353  0.0129 -0.1881
12189TIP3    H157982   0.158   4.693   5.681 -0.2000  0.4153 -1.5038
12189TIP3    H257983   0.075   4.568   5.660 -0.8011  0.2335  1.4725
12190TIP3   OH257984   1.037   3.419  17.220 -0.0279  0.0085  0.1304
12190TIP3    H157985   1.045   3.392  17.311 -0.8616  0.0317  0.2244
12190TIP3    H257986   1.023   3.513  17.224 -2.2735 -0.2519  0.1584
12191TIP3   OH257987   6.714   0.079   4.510  0.6682 -0.5175  0.0929
12191TIP3    H157988   6.778   0.140   4.473  2.0736 -1.7829  0.3527
12191TIP3    H257989   6.745  -0.007   4.484 -2.0254 -1.1243 -1.4296
12192TIP3   OH257990   0.622   5.229   4.986  0.2991 -0.3946  0.5445
12192TIP3    H157991   0.715   5.230   4.966  1.0991 -2.5058  3.4070
12192TIP3    H257992   0.593   5.320   4.976  2.6873  0.3279 -0.2821
12193TIP3   OH257993   0.780   3.517  12.969 -1.0642 -0.4306 -0.0347
12193TIP3    H157994   0.864   3.476  12.986  0.1893  1.0233 -2.2142
12193TIP3    H257995   0.752   3.552  13.054  0.8106 -0.4348  0.6241
12194TIP3   OH257996   0.712   4.040   0.707 -0.0864 -0.3477  0.2679
12194TIP3    H157997   0.673   4.115   0.663 -2.0253 -1.6824 -0.4430
12194TIP3    H257998   0.643   3.974   0.708  1.6338 -2.2635  0.5143
12195TIP3   OH257999   4.070   1.145  14.107 -0.9197  0.2443  0.4210
12195TIP3    H158000   4.128   1.194  14.049 -1.9745 -1.6987 -2.5099
12195TIP3    H258001   4.090   1.053  14.089 -1.9544 -0.4632  2.5392
12196TIP3   OH258002   6.441   0.170   0.511  0.0752  0.1267 -0.2064
12196TIP3    H158003   6.509   0.237   0.519 -1.0746  1.1857  1.4414
12196TIP3    H258004   6.367   0.214   0.470 -0.1010 -0.6365 -0.7405
12197TIP3   OH258005   4.063   2.407  11.422  0.3470  0.1777  0.1380
12197TIP3    H158006   3.979   2.409  11.377 -0.3566 -0.8629  1.3272
12197TIP3    H258007   4.120   2.465  11.371 -1.5684  2.3202  0.2999
12198TIP3   OH258008   4.171   5.853  11.240 -0.1396 -0.0621 -0.7956
12198TIP3    H158009   4.264   5.862  11.222  0.4329 -0.9070  1.4544
12198TIP3    H258010   4.144   5.938  11.274  0.1473 -0.1923 -0.2219
12199TIP3   OH258011   5.468   2.560   6.430  0.0930 -0.1942  0.5617
12199TIP3    H158012   5.374   2.547   6.445  0.3313  0.2436  2.8309
12199TIP3    H258013   5.474   2.590   6.339 -2.0938  1.0929  0.7674
12200TIP3   OH258014   4.117   1.003  14.615 -0.0761  0.7754 -0.0426
12200TIP3    H158015   4.103   0.965  14.528 -0.1083  0.2322  0.1962
12200TIP3    H258016   4.073   1.088  14.611  1.1847  1.4236 -1.0427
12201TIP3   OH258017   3.478   2.059  13.460  0.0064  0.0593  0.1690
12201TIP3    H158018   3.416   2.060  13.534 -1.4185 -0.1466 -0.9678
12201TIP3    H258019   3.427   2.093  13.386  0.8000 -1.4920 -1.1581
12202TIP3   OH258020   0.445   2.618   0.195 -0.5757 -0.5781 -0.3454
12202TIP3    H158021   0.497   2.538   0.185 -0.5615 -0.5370 -0.5958
12202TIP3    H258022   0.495   2.685   0.148  0.1459 -0.0935  1.0485
12203TIP3   OH258023   3.936   3.969   5.624 -0.3923 -0.6041  0.1555
12203TIP3    H158024   3.924   3.931   5.711  2.0220 -1.6680  0.1208
12203TIP3    H258025   3.997   3.909   5.580 -0.5215  0.6060 -1.7962
12204TIP3   OH258026   5.299   1.101   3.651 -0.3053  0.7609 -0.1130
12204TIP3    H158027   5.292   1.196   3.659 -1.4750  0.5416  2.8213
12204TIP3    H258028   5.369   1.077   3.713 -0.7029 -0.3448 -0.0702
12205TIP3   OH258029   6.222   5.201  13.579  0.7905 -0.0866 -0.3995
12205TIP3    H158030   6.283   5.231  13.646  1.2031  0.0609 -0.8362
12205TIP3    H258031   6.273   5.141  13.525  0.7145  0.4414 -1.0812
12206TIP3   OH258032   1.454   1.991   4.692  0.0132 -0.1083  0.4546
12206TIP3    H158033   1.413   2.032   4.767 -0.0020 -0.8629  0.8683
12206TIP3    H258034   1.384   1.982   4.627  0.4890  2.5726 -0.5637
12207TIP3   OH258035   0.249   3.293   1.745 -0.1860  0.7407 -0.1180
12207TIP3    H158036   0.248   3.212   1.693  0.7933  0.2269  0.6493
12207TIP3    H258037   0.226   3.362   1.682 -1.2099 -0.1366 -0.7476
12208TIP3   OH258038   1.328   3.387   4.420  0.0738 -0.0387 -0.2895
12208TIP3    H158039   1.236   3.403   4.442 -0.1395 -0.6366 -0.7088
12208TIP3    H258040   1.325   3.354   4.330  0.4275 -2.5885  0.5448
12209TIP3   OH258041   0.258   1.104   4.472  0.7036  0.3591 -0.4725
12209TIP3    H158042   0.269   1.103   4.377  1.5520 -0.1497 -0.3826
12209TIP3    H258043   0.304   1.184   4.500  1.0184  0.1646 -0.4320
12210TIP3   OH258044   1.900   0.798   2.732 -0.7185  0.0918 -0.0958
12210TIP3    H158045   1.890   0.733   2.663  0.1492  0.2023 -0.3438
12210TIP3    H258046   1.942   0.872   2.688  1.7916 -0.6218  0.9635
12211TIP3   OH258047   2.229   6.288  14.694 -0.1596 -0.0047  1.0158
12211TIP3    H158048   2.293   6.257  14.630  2.0510  2.0384  2.0674
12211TIP3    H258049   2.213   6.212  14.750  0.6878 -0.8058  0.2243
12212TIP3   OH258050   2.673   2.130   2.624 -0.1243  0.1531  0.2678
12212TIP3    H158051   2.695   2.114   2.716  1.0475  2.0724  0.3799
12212TIP3    H258052   2.591   2.180   2.627 -0.3875 -0.2645  0.2161
12213TIP3   OH258053   3.231   1.440  15.380  0.2542 -0.1199 -0.3013
12213TIP3    H158054   3.136   1.430  15.366 -0.1408  1.9804  0.6074
12213TIP3    H258055   3.246   1.409  15.469  0.6402 -1.3734 -0.7674
12214TIP3   OH258056   1.777   3.177  14.034  0.2615 -0.4158 -0.0839
12214TIP3    H158057   1.707   3.235  14.006  1.1234  2.4627  3.0113
12214TIP3    H258058   1.738   3.122  14.102  0.8332  1.1580  1.6097
12215TIP3   OH258059   0.984   3.107   5.252  0.2622 -0.0403 -0.3494
12215TIP3    H158060   0.966   3.014   5.268 -2.4249  0.5677  0.7483
12215TIP3    H258061   1.035   3.135   5.328 -1.7149  0.0344  1.0244
12216TIP3   OH258062   3.036   0.126   2.230 -0.5354  0.4272  0.2684
12216TIP3    H158063   3.056   0.070   2.305 -0.2310  1.0072  0.6316
12216TIP3    H258064   3.114   0.120   2.175  0.0155  1.4332  0.9038
12217TIP3   OH258065   2.124   6.440  12.876  0.3718  0.2749  0.0796
12217TIP3    H158066   2.130   6.350  12.909  1.5611 -0.0181 -0.8672
12217TIP3    H258067   2.182   6.490  12.933  0.7700  0.1810 -0.2453
12218TIP3   OH258068   0.698   4.589   2.955 -0.3781  0.5685 -0.5040
12218TIP3    H158069   0.762   4.526   2.923 -0.9881  0.5027 -1.6280
12218TIP3    H258070   0.636   4.537   3.006 -0.2571  0.4376 -0.4916
12219TIP3   OH258071   5.821   2.164  11.391  0.5959 -0.2861 -0.7434
12219TIP3    H158072   5.794   2.251  11.362 -3.3697 -0.8281  0.7294
12219TIP3    H258073   5.823   2.111  11.312  0.5368  0.5540 -1.3229
12220TIP3   OH258074   2.479   1.760  16.587  0.6353  0.4592  0.6426
12220TIP3    H158075   2.539   1.832  16.568  0.8273  0.8447  2.4813
12220TIP3    H258076   2.535   1.683  16.593  0.4266  0.1003 -1.3495
12221TIP3   OH258077   3.770   2.523  14.770  0.0586  0.3761  0.2103
12221TIP3    H158078   3.776   2.434  14.736  1.6321  1.2172 -1.9831
12221TIP3    H258079   3.856   2.541  14.808  1.0940  2.0304 -2.5816
12222TIP3   OH258080   5.680   2.024  15.617  0.5455  0.1169 -0.0257
12222TIP3    H158081   5.716   2.080  15.548  0.2494  0.4024  0.0491
12222TIP3    H258082   5.720   2.056  15.697  0.6113  0.0230 -0.0218
12223TIP3   OH258083   2.583   5.357  17.168 -0.3235 -0.0352  0.0381
12223TIP3    H158084   2.569   5.424  17.234  1.0866 -0.4439  0.7831
12223TIP3    H258085   2.674   5.330  17.179 -0.4888 -1.1686 -1.0850
12224TIP3   OH258086   2.873   3.959   4.124 -0.2325 -0.2549 -0.0633
12224TIP3    H158087   2.815   3.941   4.198 -1.4553  1.7799 -0.4621
12224TIP3    H258088   2.832   3.914   4.050 -0.8042  0.4007 -0.1519
12225TIP3   OH258089   2.326   3.641  10.839 -0.3592 -0.1485 -0.5707
12225TIP3    H158090   2.336   3.730  10.805 -0.2120 -0.7461 -2.2022
12225TIP3    H258091   2.280   3.652  10.922  0.8177  1.5300 -0.0977
12226TIP3   OH258092   5.475   2.688   0.775  0.2849  0.1937  0.7786
12226TIP3    H158093   5.467   2.624   0.845  2.0457 -2.9658 -1.6147
12226TIP3    H258094   5.564   2.722   0.784 -0.6778  2.5958  2.1106
12227TIP3   OH258095   4.721   2.581   0.518 -0.2865 -0.0446  0.3328
12227TIP3    H158096   4.757   2.507   0.567  0.0491  1.0383  1.8026
12227TIP3    H258097   4.702   2.647   0.585 -1.7329  0.7456 -0.7974
12228TIP3   OH258098   4.521   0.734  12.598 -0.1561  0.0633 -0.8028
12228TIP3    H158099   4.465   0.767  12.668 -0.6896  0.0052 -1.1871
12228TIP3    H258100   4.583   0.804  12.580  1.6207 -0.8342  1.4061
12229TIP3   OH258101   6.295   6.117  15.999  0.1704  0.2716  0.3845
12229TIP3    H158102   6.333   6.038  16.039  0.3798 -0.1507 -0.6114
12229TIP3    H258103   6.367   6.180  15.997 -0.2423  0.8454  2.0412
12230TIP3   OH258104   5.874   4.766  13.717 -0.4049  0.1907 -0.0699
12230TIP3    H158105   5.905   4.856  13.709  0.9037 -0.2770 -0.5065
12230TIP3    H258106   5.954   4.714  13.726 -1.0473 -1.0866 -1.3627
12231TIP3   OH258107   6.538   2.471  12.853 -0.3177  0.0801 -0.4171
12231TIP3    H158108   6.570   2.560  12.869  1.3461 -0.0033 -2.8296
12231TIP3    H258109   6.583   2.417  12.918  0.9583  0.6148 -0.8409
12232TIP3   OH258110   2.346   6.019  16.540  0.0071 -0.0240  0.2020
12232TIP3    H158111   2.380   6.006  16.451 -2.1374 -1.3200 -0.4922
12232TIP3    H258112   2.425   6.032  16.594  1.6883 -3.0539 -1.2538
12233TIP3   OH258113   2.116   5.613  14.771  0.4838 -0.0308  0.8733
12233TIP3    H158114   2.153   5.581  14.853  0.2980 -2.2350  0.1700
12233TIP3    H258115   2.164   5.693  14.752  1.8714 -0.5216  2.1424
12234TIP3   OH258116   1.013   3.908   4.497  0.4695 -0.3401  0.1041
12234TIP3    H158117   0.975   3.965   4.564  0.6064  2.2348 -1.8170
12234TIP3    H258118   0.962   3.828   4.502 -0.3268  0.2191  2.4214
12235TIP3   OH258119   4.899   3.221  16.535  0.2485  0.3164 -0.0970
12235TIP3    H158120   4.905   3.147  16.596 -0.1583  1.2058  1.0682
12235TIP3    H258121   4.947   3.291  16.578 -1.6035  1.5296  0.1204
12236TIP3   OH258122   3.237   0.640  16.186 -0.1600  0.4949 -0.2463
12236TIP3    H158123   3.149   0.603  16.184 -0.5095  1.1313  1.6994
12236TIP3    H258124   3.295   0.563  16.185 -0.8034 -0.0267  0.8922
12237TIP3   OH258125   1.336   0.031  11.676  0.4639 -0.7543 -0.1407
12237TIP3    H158126   1.391   0.099  11.715  0.5007 -0.4542 -0.7140
12237TIP3    H258127   1.356   0.034  11.583 -0.0320 -1.0961 -0.2608
12238TIP3   OH258128   6.085   0.423  16.957  0.3639 -0.5455  0.2076
12238TIP3    H158129   6.042   0.405  17.040 -0.7866 -0.4984 -0.3599
12238TIP3    H258130   6.043   0.365  16.894 -0.1988  0.8342 -0.7358
12239TIP3   OH258131   0.488   4.203   3.290  0.3416 -0.4989 -0.1847
12239TIP3    H158132   0.404   4.163   3.268 -0.0218  0.5999 -0.8922
12239TIP3    H258133   0.475   4.243   3.376  0.6217 -1.6343  0.3978
12240TIP3   OH258134   2.086   4.070   4.288  0.5069  0.5360 -0.5983
12240TIP3    H158135   2.172   4.067   4.245  0.9413 -1.5212  0.2821
12240TIP3    H258136   2.093   4.006   4.359 -2.1745 -0.7557 -1.3627
12241TIP3   OH258137   4.729   1.170   2.847 -0.1833  0.4155  0.3343
12241TIP3    H158138   4.777   1.091   2.875 -0.6498 -0.3778 -1.0303
12241TIP3    H258139   4.715   1.157   2.754 -1.4175  1.5278  0.3489
12242TIP3   OH258140   6.336   0.481   2.054  0.1203 -0.2112 -0.4207
12242TIP3    H158141   6.414   0.431   2.030 -0.1269  0.8534 -3.9614
12242TIP3    H258142   6.367   0.571   2.065 -0.2833 -0.1770  0.6038
12243TIP3   OH258143   1.282   5.977  16.718  0.1087 -0.3738  0.0988
12243TIP3    H158144   1.272   6.070  16.698  1.0965 -0.8173 -3.0708
12243TIP3    H258145   1.377   5.966  16.732  0.3783 -1.2473 -2.1108
12244TIP3   OH258146   2.448   1.342   1.056 -0.1208 -0.2836 -0.3475
12244TIP3    H158147   2.498   1.319   1.134 -0.9846 -0.4502  0.1725
12244TIP3    H258148   2.495   1.301   0.984  0.7095 -0.0983  0.0739
12245TIP3   OH258149   5.725   0.818   1.701  0.3710  0.0430 -0.2211
12245TIP3    H158150   5.802   0.768   1.729  0.1029  0.5449  1.5256
12245TIP3    H258151   5.697   0.865   1.780 -0.2640  1.7938 -1.4353
12246TIP3   OH258152   3.880   2.072   3.395  0.3100  0.0721  0.4373
12246TIP3    H158153   3.914   2.073   3.305 -0.8676  0.5416 -0.0243
12246TIP3    H258154   3.921   1.996   3.435  0.4598 -0.4514 -0.6694
12247TIP3   OH258155   0.638   2.796  14.184 -0.0070 -0.0636  1.0884
12247TIP3    H158156   0.642   2.793  14.280 -3.7620 -0.3457  1.4040
12247TIP3    H258157   0.553   2.837  14.165 -0.6772 -2.5148 -2.0566
12248TIP3   OH258158   1.873   0.186   3.805 -0.9145  0.7503 -0.2321
12248TIP3    H158159   1.853   0.092   3.807  4.3496 -0.7314 -0.8805
12248TIP3    H258160   1.937   0.198   3.875  0.3613  3.3017 -1.6792
12249TIP3   OH258161   0.878   3.984  15.864 -0.4008 -0.0206  0.1434
12249TIP3    H158162   0.846   3.900  15.829 -0.5603 -0.4840  1.3537
12249TIP3    H258163   0.803   4.019  15.913 -0.5722  1.1870 -0.9307
12250TIP3   OH258164   1.195   1.182   5.184  0.0022 -0.7502 -0.1778
12250TIP3    H158165   1.120   1.155   5.238 -1.0245 -0.3768 -1.3695
12250TIP3    H258166   1.264   1.120   5.206 -0.0723 -0.0721  2.2272
12251TIP3   OH258167   5.365   5.798   6.359  0.2616  0.6288 -0.4181
12251TIP3    H158168   5.347   5.870   6.419  3.4545  1.4952 -0.3306
12251TIP3    H258169   5.372   5.721   6.416 -2.3260  0.2871 -0.4246
12252TIP3   OH258170   0.845   1.182   1.350  0.1915 -0.4222 -0.5289
12252TIP3    H158171   0.859   1.122   1.424 -1.4240 -1.2431 -0.8370
12252TIP3    H258172   0.836   1.124   1.274 -1.0971  0.2138 -0.8814
12253TIP3   OH258173   1.762   0.225   4.599  0.3514 -0.3786  0.2580
12253TIP3    H158174   1.705   0.149   4.591 -0.2477 -0.1530  1.9717
12253TIP3    H258175   1.844   0.198   4.557  0.2705 -2.1113  1.1230
12254TIP3   OH258176   3.160   3.963  13.707 -0.1142  0.5439  0.2472
12254TIP3    H158177   3.184   4.055  13.706 -0.4800  0.7001 -3.1074
12254TIP3    H258178   3.242   3.916  13.721  0.0351  1.3120  2.2351
12255TIP3   OH258179   3.640   5.586   2.914  0.0596 -0.0913 -0.2906
12255TIP3    H158180   3.736   5.587   2.920 -0.0045 -1.2297  1.6981
12255TIP3    H258181   3.616   5.494   2.928 -1.3566  0.3740  0.5692
12256TIP3   OH258182   4.508   0.007   1.234  0.2388  0.6791 -0.3411
12256TIP3    H158183   4.431  -0.048   1.252  0.9832 -0.4542 -0.4703
12256TIP3    H258184   4.513   0.067   1.307 -0.3103  0.2217  0.0840
12257TIP3   OH258185   6.297   3.725   3.847  0.1789  0.3841  0.8497
12257TIP3    H158186   6.318   3.738   3.755 -0.7222 -0.1209  0.5667
12257TIP3    H258187   6.226   3.785   3.865  0.4771  0.6165  1.2707
12258TIP3   OH258188   2.046   5.183   3.289  0.1043  0.8077  0.3865
12258TIP3    H158189   1.968   5.238   3.294 -0.6248  0.1198 -2.0363
12258TIP3    H258190   2.018   5.099   3.327 -1.2120 -0.2194 -2.5573
12259TIP3   OH258191   0.960   1.424   3.895 -0.1840  0.4170  0.1725
12259TIP3    H158192   1.008   1.350   3.932  0.8828  1.3744  0.8030
12259TIP3    H258193   0.868   1.407   3.916 -0.0115 -0.9278 -0.0899
12260TIP3   OH258194   0.038   5.993   2.433  0.0655  0.1420  0.0057
12260TIP3    H158195   0.112   6.050   2.455 -0.0357  0.7540 -1.1420
12260TIP3    H258196   0.058   5.910   2.476  0.4363  0.8956  1.3527
12261TIP3   OH258197   4.081   1.196  15.921 -0.0171  0.0667  0.3210
12261TIP3    H158198   4.086   1.192  15.825  0.8653  0.1582  0.3536
12261TIP3    H258199   4.136   1.123  15.951 -1.5638 -0.9531  0.7630
12262TIP3   OH258200   0.326   0.983  13.299  0.0743 -0.4819 -0.8357
12262TIP3    H158201   0.285   0.974  13.385 -1.0179 -0.3101 -1.3226
12262TIP3    H258202   0.408   1.029  13.316 -0.6578  0.5552 -0.0200
12263TIP3   OH258203   5.888   4.573   1.689  0.2329  0.6182 -0.0667
12263TIP3    H158204   5.975   4.541   1.711  0.6081  1.6092 -0.0594
12263TIP3    H258205   5.845   4.588   1.773  0.0987  0.2461 -0.0686
12264TIP3   OH258206   2.147   0.900   0.360 -0.6513 -0.0066  0.6491
12264TIP3    H158207   2.180   0.937   0.442 -1.0340  0.0877  0.7633
12264TIP3    H258208   2.166   0.807   0.366  0.2814  0.1591  0.3773
12265TIP3   OH258209   0.406   4.658  14.425 -0.1561  0.3738 -0.9736
12265TIP3    H158210   0.401   4.718  14.500  2.1533  1.3542 -1.5250
12265TIP3    H258211   0.319   4.663  14.386 -0.9707  0.9625  0.7861
12266TIP3   OH258212   5.500   0.182   3.179  0.1673  0.1129  0.2810
12266TIP3    H158213   5.446   0.189   3.100 -1.9013  0.2379  1.6412
12266TIP3    H258214   5.579   0.232   3.158 -0.3678  0.2424 -1.6585
12267TIP3   OH258215   6.344   4.451  13.329  0.1378 -0.6813 -0.5758
12267TIP3    H158216   6.349   4.359  13.301  1.2998 -0.7662 -0.1489
12267TIP3    H258217   6.316   4.498  13.251 -0.8350 -1.4406 -0.7037
12268TIP3   OH258218   4.158   6.376   2.576  0.2657 -0.0423  0.1365
12268TIP3    H158219   4.138   6.469   2.577 -0.0133 -0.0433 -1.8635
12268TIP3    H258220   4.114   6.342   2.498 -2.5273 -2.5687  2.5518
12269TIP3   OH258221   0.333   5.948  13.825 -0.7982 -0.4306  0.4811
12269TIP3    H158222   0.255   5.930  13.878 -1.1989  2.2837  0.9604
12269TIP3    H258223   0.298   5.981  13.742 -0.1399 -1.0855 -0.0650
12270TIP3   OH258224   0.429   2.440   1.206 -0.1478  0.4563 -0.3997
12270TIP3    H158225   0.471   2.404   1.128  0.6341  0.6433 -0.0655
12270TIP3    H258226   0.494   2.499   1.244 -0.5882  0.4989  0.3019
12271TIP3   OH258227   2.113   4.435  11.503  0.4017  0.1671  0.1181
12271TIP3    H158228   2.134   4.429  11.410 -3.8597 -0.1063 -1.0705
12271TIP3    H258229   2.112   4.345  11.534  1.6088  0.2419  0.4009
12272TIP3   OH258230   0.262   0.760  14.121  0.5027  0.4359  0.0794
12272TIP3    H158231   0.226   0.761  14.033  1.2013 -0.4830 -0.2332
12272TIP3    H258232   0.236   0.844  14.159 -0.4826  0.5097 -0.7165
12273TIP3   OH258233   3.774   5.605  12.354  0.1737  0.0456 -0.0429
12273TIP3    H158234   3.761   5.515  12.324  1.3519  0.2746 -1.3523
12273TIP3    H258235   3.756   5.659  12.277 -0.6623  0.9495  0.7631
12274TIP3   OH258236   5.189   1.489  11.529  0.0664  0.1769  0.0607
12274TIP3    H158237   5.096   1.473  11.548  0.1602 -0.5056 -0.0496
12274TIP3    H258238   5.198   1.584  11.536  0.0522  0.0357  3.1824
12275TIP3   OH258239   0.307   4.906   0.785 -0.1562  0.1235  0.6283
12275TIP3    H158240   0.294   4.991   0.827 -0.8772 -0.2951  1.2806
12275TIP3    H258241   0.395   4.910   0.749 -0.7944  1.8113 -0.8928
12276TIP3   OH258242   0.482   4.392   2.207 -0.2848  0.0489  0.2028
12276TIP3    H158243   0.525   4.420   2.288  0.8968  2.1143 -1.0590
12276TIP3    H258244   0.405   4.447   2.201 -0.6677 -0.4820  0.1666
12277TIP3   OH258245   4.469   4.751  16.782  0.0074 -0.0771  0.1666
12277TIP3    H158246   4.414   4.680  16.817 -0.7744  0.0617 -0.7632
12277TIP3    H258247   4.451   4.752  16.688  0.8389  0.6521 -0.0010
12278TIP3   OH258248   6.435   5.729   5.126 -0.4639  0.5561  0.6387
12278TIP3    H158249   6.349   5.689   5.119 -0.5012  0.6288  0.6845
12278TIP3    H258250   6.488   5.664   5.172  0.1422 -0.5013 -1.4216
12279TIP3   OH258251   4.933   2.744  16.609  0.6861 -0.4255 -0.5563
12279TIP3    H158252   4.950   2.838  16.618 -1.2950 -0.2193  2.1449
12279TIP3    H258253   5.008   2.702  16.651  0.4796  0.0576  0.3286
12280TIP3   OH258254   4.939   4.381   2.157  0.1512  0.0217 -0.1697
12280TIP3    H158255   4.865   4.437   2.182  0.6693  0.5942  0.1138
12280TIP3    H258256   5.007   4.403   2.220 -0.3279 -2.5032  1.3581
12281TIP3   OH258257   0.222   4.525   5.220 -0.0190 -0.6978 -0.2854
12281TIP3    H158258   0.144   4.557   5.174 -0.3821 -1.6946 -0.4034
12281TIP3    H258259   0.193   4.514   5.310  0.6907  1.2496  0.2284
12282TIP3   OH258260   2.500   3.578   3.276  0.5862  0.0161  0.7792
12282TIP3    H158261   2.560   3.651   3.261  1.7667 -0.7765  1.4409
12282TIP3    H258262   2.415   3.609   3.244  1.3037  1.2400 -0.0078
12283TIP3   OH258263   2.576   0.961  15.233  0.3369  0.0946 -0.5156
12283TIP3    H158264   2.554   0.979  15.141  1.1451  1.2632 -0.5189
12283TIP3    H258265   2.558   1.044  15.278 -2.7332 -1.2500  0.9736
12284TIP3   OH258266   6.495   0.832   3.032 -0.2162 -0.4018  0.7626
12284TIP3    H158267   6.446   0.789   3.102  0.5342 -1.2556  0.7926
12284TIP3    H258268   6.575   0.863   3.075 -0.3613  0.2628  0.5562
12285TIP3   OH258269   4.181   2.886   6.299  0.0724  0.0457  0.1392
12285TIP3    H158270   4.259   2.910   6.349  4.1128 -0.8415 -4.9233
12285TIP3    H258271   4.163   2.795   6.324  1.3234 -0.0668  0.6661
12286TIP3   OH258272   3.052   4.448  13.186 -0.6683 -0.8344  0.3454
12286TIP3    H158273   2.993   4.512  13.147 -0.4848 -1.2646 -0.6760
12286TIP3    H258274   3.051   4.374  13.125 -0.1442 -1.4099  1.0200
12287TIP3   OH258275   4.571   0.897   2.708 -0.2181  1.0722  0.6520
12287TIP3    H158276   4.551   0.988   2.689 -2.0698  0.4827 -0.5883
12287TIP3    H258277   4.489   0.851   2.690  0.6555 -0.8232  1.2908
12288TIP3   OH258278   6.091   4.408   1.786  0.2350 -0.4527 -1.0246
12288TIP3    H158279   6.167   4.436   1.736  1.3144 -0.5066  0.5126
12288TIP3    H258280   6.108   4.439   1.875 -1.3985 -0.7493 -0.5663
12289TIP3   OH258281   0.226   3.783   1.556  0.1357  0.3487 -0.2205
12289TIP3    H158282   0.205   3.871   1.589 -0.7173 -0.4288  1.4489
12289TIP3    H258283   0.321   3.779   1.557  0.1547  0.6930  1.3165
12290TIP3   OH258284   5.498   3.564  17.120 -0.1668  0.5149 -0.2395
12290TIP3    H158285   5.458   3.497  17.067  0.5259  0.7583 -1.0928
12290TIP3    H258286   5.590   3.565  17.093  0.1946  0.6886  0.9107
12291TIP3   OH258287   2.377   5.872   5.020  0.1101  1.1330  0.9384
12291TIP3    H158288   2.293   5.887   5.063 -0.3542  1.3348 -0.0257
12291TIP3    H258289   2.406   5.786   5.053 -1.0940  0.4613  0.2948
12292TIP3   OH258290   3.459   1.785  12.802  0.1150 -0.0378 -0.0204
12292TIP3    H158291   3.380   1.776  12.855 -0.4527 -0.7558 -0.9449
12292TIP3    H258292   3.487   1.875  12.816 -0.5395  0.0585  0.7646
12293TIP3   OH258293   0.670   6.057  15.271  0.5142 -0.1347  0.5435
12293TIP3    H158294   0.672   6.047  15.366  1.0981  0.1174  0.5615
12293TIP3    H258295   0.758   6.087  15.248  0.2792  0.1189 -0.0430
12294TIP3   OH258296   4.737   1.622  14.195 -0.5512 -0.3462 -0.0197
12294TIP3    H158297   4.769   1.676  14.266 -2.6571  1.2733 -0.2055
12294TIP3    H258298   4.779   1.658  14.116 -2.7852  1.9146 -0.2949
12295TIP3   OH258299   1.387   4.048  15.141 -0.1880 -0.8253 -0.4175
12295TIP3    H158300   1.385   3.983  15.071  1.5159 -0.0442 -1.2498
12295TIP3    H258301   1.318   4.110  15.118  0.6754 -0.3083 -1.7289
12296TIP3   OH258302   5.980   0.210   5.781 -0.1125 -0.2342 -0.2798
12296TIP3    H158303   5.994   0.276   5.714 -0.7877  0.5201  0.3044
12296TIP3    H258304   5.976   0.259   5.863 -2.8397 -0.6835 -0.0313
12297TIP3   OH258305   4.144   0.726   3.681  0.0131  0.5893  0.4868
12297TIP3    H158306   4.124   0.693   3.768 -0.9133  1.4175  0.5971
12297TIP3    H258307   4.059   0.727   3.636  0.2614  1.4812  0.0315
12298TIP3   OH258308   4.265   6.120  14.480  0.5176  0.2592 -0.2678
12298TIP3    H158309   4.181   6.160  14.499  0.5625 -0.3632  1.4224
12298TIP3    H258310   4.243   6.034  14.443  0.4020  0.0625  0.2523
12299TIP3   OH258311   4.970   0.771  11.325  0.2697  0.2703 -0.0368
12299TIP3    H158312   4.946   0.706  11.391 -1.1029 -0.2459 -1.0058
12299TIP3    H258313   4.907   0.842  11.337  0.0666  0.2121 -0.7218
12300TIP3   OH258314   4.458   0.476   5.368  0.1191  0.2305 -0.3310
12300TIP3    H158315   4.416   0.547   5.416  0.8784  1.5346 -1.5139
12300TIP3    H258316   4.401   0.400   5.383 -0.4255  0.9244  1.3990
12301TIP3   OH258317   6.621   6.368   0.615  0.2276 -0.6105 -0.7831
12301TIP3    H158318   6.581   6.331   0.536 -0.9785 -0.7317 -0.1446
12301TIP3    H258319   6.674   6.297   0.651  0.5723 -0.6388 -1.3409
12302TIP3   OH258320   5.192   0.897   5.608  0.5249 -0.0447 -0.2280
12302TIP3    H158321   5.119   0.938   5.562 -2.3448 -2.3025  1.9778
12302TIP3    H258322   5.211   0.957   5.680 -0.1451 -0.1165  0.0149
12303TIP3   OH258323   6.127   1.381   5.148  0.1532  0.1845  0.2672
12303TIP3    H158324   6.076   1.448   5.194  2.0613  1.9834 -0.0494
12303TIP3    H258325   6.083   1.372   5.064  0.7399  2.3228 -0.3393
12304TIP3   OH258326   4.290   3.821   2.032  0.7751 -0.5661 -0.0836
12304TIP3    H158327   4.277   3.795   1.941  0.0321 -1.3356  0.2309
12304TIP3    H258328   4.272   3.915   2.033 -0.5278 -0.7957 -0.4946
12305TIP3   OH258329   5.871   6.012   4.155 -0.3001 -0.6669  0.1721
12305TIP3    H158330   5.823   6.020   4.237  2.0829 -0.4194  1.6409
12305TIP3    H258331   5.906   6.100   4.139 -0.9407 -0.6508 -1.2790
12306TIP3   OH258332   2.446   2.881   0.931 -0.0810 -0.9819  0.3480
12306TIP3    H158333   2.409   2.861   1.017  2.3906  0.4430  1.8665
12306TIP3    H258334   2.514   2.815   0.918  1.4451  0.4140  0.8634
12307TIP3   OH258335   0.213   0.114   6.103 -0.4984  0.4758  0.3610
12307TIP3    H158336   0.225   0.097   6.196 -0.2368 -2.1092 -0.0543
12307TIP3    H258337   0.256   0.040   6.060  0.1042  2.0243 -1.8552
12308TIP3   OH258338   5.096   3.828  10.496 -0.0275  0.5500 -0.0032
12308TIP3    H158339   5.033   3.892  10.464  2.2378  2.2485 -1.3958
12308TIP3    H258340   5.088   3.754  10.436 -0.2685  1.0242 -0.5650
12309TIP3   OH258341   2.581   3.601   3.553 -0.4550  0.8251  0.0965
12309TIP3    H158342   2.543   3.535   3.610 -2.0588  1.2015 -0.4970
12309TIP3    H258343   2.533   3.592   3.470  1.2292  0.8584 -0.9377
12310TIP3   OH258344   4.073   2.202  14.794  0.4333 -0.4261 -0.3955
12310TIP3    H158345   4.030   2.224  14.876  2.2567  1.1229  0.2167
12310TIP3    H258346   4.027   2.254  14.728  0.5406  0.2648  0.0568
12311TIP3   OH258347   4.154   2.277  13.680 -0.0204 -0.5039 -0.1539
12311TIP3    H158348   4.132   2.185  13.664 -0.3113 -0.2771 -1.1250
12311TIP3    H258349   4.075   2.325  13.655 -0.0298 -0.0101  0.7673
12312TIP3   OH258350   0.997   0.593  17.026 -0.0181  0.0131  0.3054
12312TIP3    H158351   0.952   0.576  17.109  1.3848  1.3930  1.4275
12312TIP3    H258352   0.939   0.653  16.979  0.7367  2.1137  1.9108
12313TIP3   OH258353   2.738   1.344  13.909 -0.3323  0.0720  0.1695
12313TIP3    H158354   2.695   1.393  13.838  0.6296 -0.9078 -1.1237
12313TIP3    H258355   2.804   1.404  13.943 -1.0642  0.6941  0.5391
12314TIP3   OH258356   0.418   1.134   5.037 -1.0442 -0.3861  0.1162
12314TIP3    H158357   0.413   1.039   5.033 -2.4641 -0.3238  0.2589
12314TIP3    H258358   0.371   1.164   4.959 -1.0892  0.2105  0.3660
12315TIP3   OH258359   5.740   5.233  14.396  0.4892  0.1981 -0.1995
12315TIP3    H158360   5.757   5.231  14.301  0.1533  0.2751 -0.2646
12315TIP3    H258361   5.750   5.143  14.424 -0.5291 -0.0384 -0.5240
12316TIP3   OH258362   4.572   3.537  15.555  0.2411 -0.6034 -0.5829
12316TIP3    H158363   4.588   3.503  15.467 -0.2935 -0.2985 -0.8025
12316TIP3    H258364   4.496   3.594  15.545  1.3505  0.9926 -0.3303
12317TIP3   OH258365   1.610   3.986  13.237 -0.2682  0.1285 -0.8626
12317TIP3    H158366   1.668   4.062  13.230 -0.0677 -0.0586 -1.2811
12317TIP3    H258367   1.539   4.015  13.293  1.5230 -0.3994  1.9168
12318TIP3   OH258368   0.577   3.916  11.709 -0.0842 -0.1018  0.2733
12318TIP3    H158369   0.573   3.923  11.804 -3.2493 -0.2240  0.2562
12318TIP3    H258370   0.539   3.998  11.677 -1.5279 -1.1295 -0.7686
12319TIP3   OH258371   6.787   4.603  16.035  0.1302  0.0981  0.0930
12319TIP3    H158372   6.788   4.549  15.955  1.7580 -0.7445  0.6280
12319TIP3    H258373   6.776   4.540  16.106 -0.0091  0.7102  0.6166
12320TIP3   OH258374   2.408   5.077   0.957 -1.2128  0.2299  0.1122
12320TIP3    H158375   2.413   5.084   1.052 -0.8445  1.2254  0.0297
12320TIP3    H258376   2.371   5.161   0.929 -2.0293 -0.3408 -0.5754
12321TIP3   OH258377   3.672   0.553  15.704  0.1944  0.1358  0.3993
12321TIP3    H158378   3.578   0.569  15.701  0.1624 -0.1262 -0.0110
12321TIP3    H258379   3.711   0.640  15.717 -0.1016  0.2461  0.5426
12322TIP3   OH258380   5.518   0.379   1.082 -0.3570  0.1670 -0.2681
12322TIP3    H158381   5.567   0.351   1.159  0.1593  0.9265 -0.3146
12322TIP3    H258382   5.450   0.312   1.072  0.1313 -0.4347  0.3006
12323TIP3   OH258383   4.103   4.444  17.111 -0.1810  0.0240 -0.0998
12323TIP3    H158384   4.177   4.471  17.165 -0.6380 -1.5249  1.3966
12323TIP3    H258385   4.081   4.357  17.143 -1.4936 -0.3099 -1.7684
12324TIP3   OH258386   4.262   6.113   3.288  0.8325  0.0133 -0.0365
12324TIP3    H158387   4.223   6.104   3.375 -0.9674 -2.2939 -0.9646
12324TIP3    H258388   4.261   6.207   3.271  0.9979  0.5028  2.3014
12325TIP3   OH258389   6.642   2.318   5.119  0.9202  0.0578  0.2598
12325TIP3    H158390   6.553   2.336   5.151  0.5836  0.1723 -0.7120
12325TIP3    H258391   6.638   2.227   5.090  0.7561  0.4387 -0.9506
12326TIP3   OH258392   3.173   4.297   5.521 -0.3583  0.3226 -0.7866
12326TIP3    H158393   3.125   4.268   5.598  0.2372 -0.0366 -0.5384
12326TIP3    H258394   3.193   4.389   5.537  0.7290 -0.0249  0.0225
12327TIP3   OH258395   4.319   4.066  12.440  0.4300  0.0095 -0.1684
12327TIP3    H158396   4.348   3.998  12.380 -0.8527  0.7045 -1.6717
12327TIP3    H258397   4.233   4.093  12.405  0.4545  1.6662  0.9586
12328TIP3   OH258398   6.365   2.123   1.856 -0.2234 -0.5237  0.3134
12328TIP3    H158399   6.423   2.174   1.913 -0.6159 -0.8334  1.0036
12328TIP3    H258400   6.299   2.185   1.827  0.3977 -0.1853 -0.4190
12329TIP3   OH258401   1.924   1.954  16.368  0.3193  0.0115 -0.0410
12329TIP3    H158402   1.998   1.925  16.313  1.5264  1.9397  0.4710
12329TIP3    H258403   1.888   2.029  16.321  1.1482  1.4717  1.5671
12330TIP3   OH258404   6.553   1.006   5.539  0.2460 -0.2081 -0.3134
12330TIP3    H158405   6.500   1.011   5.460  2.8171 -2.1033 -2.3548
12330TIP3    H258406   6.504   0.949   5.598 -2.2117  2.0719  0.0199
12331TIP3   OH258407   1.619   0.653  11.140 -0.2846 -0.1340  0.5894
12331TIP3    H158408   1.628   0.641  11.234 -1.7428 -0.2024  0.7537
12331TIP3    H258409   1.613   0.564  11.105 -1.4469 -0.1082  0.6628
12332TIP3   OH258410   1.552   4.576  13.649 -0.1053  0.3777  0.0879
12332TIP3    H158411   1.637   4.612  13.623 -0.5166  0.4409 -1.2288
12332TIP3    H258412   1.549   4.490  13.607 -0.7162  0.4016  0.0828
12333TIP3   OH258413   6.698   5.728   0.087  0.1706 -0.4996  0.1404
12333TIP3    H158414   6.628   5.775   0.041 -0.0344  0.5994  1.5029
12333TIP3    H258415   6.741   5.676   0.018 -0.7510  0.2834 -1.0788
12334TIP3   OH258416   4.806   2.798   4.765 -0.1991 -0.0641  0.1796
12334TIP3    H158417   4.853   2.880   4.780 -0.1035 -0.3743  1.7443
12334TIP3    H258418   4.829   2.774   4.675  0.9421  0.8612  0.1927
12335TIP3   OH258419   0.815   2.173   4.098  0.1732  0.8457  0.1959
12335TIP3    H158420   0.903   2.137   4.091 -0.3102 -0.2401 -0.5614
12335TIP3    H258421   0.791   2.197   4.008 -1.0931 -0.8768  0.0213
12336TIP3   OH258422   5.427   3.319   2.526  0.0582 -0.8506 -0.0055
12336TIP3    H158423   5.452   3.356   2.441  0.8209  0.0619  0.5902
12336TIP3    H258424   5.421   3.395   2.584 -3.3083 -1.0631  0.1458
12337TIP3   OH258425   0.984   6.147   1.557  0.3195 -0.6366  0.2489
12337TIP3    H158426   0.939   6.169   1.638 -0.6843 -0.1884 -0.4054
12337TIP3    H258427   1.076   6.164   1.575  0.1044 -0.4874  1.2678
12338TIP3   OH258428   1.043   1.655  14.485 -0.0359  0.2828 -0.1845
12338TIP3    H158429   1.078   1.633  14.399  0.1219  0.5929 -0.1997
12338TIP3    H258430   1.025   1.749  14.480 -1.0534  0.0953 -0.2444
12339TIP3   OH258431   3.325   4.758   2.035 -1.0262 -0.4903 -0.1117
12339TIP3    H158432   3.318   4.853   2.030  1.2582 -0.3014 -0.5127
12339TIP3    H258433   3.336   4.739   2.128 -1.2363 -0.3662 -0.0598
12340TIP3   OH258434   0.666   3.307   4.125 -0.3481  0.0614  0.6114
12340TIP3    H158435   0.610   3.383   4.137 -0.6443  0.3209 -1.8068
12340TIP3    H258436   0.609   3.232   4.139 -1.0667  0.3283 -0.6401
12341TIP3   OH258437   5.522   4.591  13.209 -0.3099  0.5434 -0.1659
12341TIP3    H158438   5.453   4.542  13.165 -1.5685  0.4951  1.7486
12341TIP3    H258439   5.599   4.534  13.204 -0.8579 -0.1527 -0.8538
12342TIP3   OH258440   3.928   4.945  16.112 -0.2164  0.0417 -0.6282
12342TIP3    H158441   3.944   4.947  16.018 -0.6932  0.3521 -0.7094
12342TIP3    H258442   4.013   4.965  16.151  0.0943 -0.5861 -0.9765
12343TIP3   OH258443   2.481   5.413  16.873 -0.3181 -0.5132 -0.9772
12343TIP3    H158444   2.524   5.385  16.954 -0.0410  0.5545 -0.7492
12343TIP3    H258445   2.394   5.372  16.877 -0.8294  0.6522  0.5384
12344TIP3   OH258446   1.818   5.893   2.556  0.4697 -0.0290 -0.2541
12344TIP3    H158447   1.736   5.891   2.506  1.3724 -3.5750 -2.0016
12344TIP3    H258448   1.885   5.910   2.490  1.5218 -2.7345 -0.0072
12345TIP3   OH258449   3.440   0.757   1.622 -0.3867 -0.0104  0.0669
12345TIP3    H158450   3.437   0.815   1.697 -0.1783  0.8143 -0.5498
12345TIP3    H258451   3.451   0.815   1.547  1.4008 -0.9195 -0.4376
12346TIP3   OH258452   0.075   2.180  13.793 -0.2412  0.0584  0.4172
12346TIP3    H158453   0.086   2.255  13.736  3.5060  1.2382  2.3352
12346TIP3    H258454   0.161   2.137  13.793 -1.0894 -1.8451  2.4982
12347TIP3   OH258455   5.072   0.594   0.065 -0.1462 -0.5936  0.2316
12347TIP3    H158456   5.020   0.652   0.120 -2.1257 -2.4441  0.4663
12347TIP3    H258457   5.032   0.599  -0.021 -0.3143 -1.5329  0.2433
12348TIP3   OH258458   6.289   1.007  15.623  0.1485 -0.1536  0.0018
12348TIP3    H158459   6.214   0.952  15.601 -0.3759  1.2776 -2.1415
12348TIP3    H258460   6.288   1.077  15.557  2.2481  1.0050  1.0721
12349TIP3   OH258461   5.179   5.698  15.241 -0.0253 -0.1618 -1.0096
12349TIP3    H158462   5.222   5.777  15.274  1.2293 -0.2915 -2.2217
12349TIP3    H258463   5.089   5.705  15.272  0.4494  0.9506  0.2311
12350TIP3   OH258464   0.561   2.982   5.453  0.3184 -1.4125  0.7483
12350TIP3    H158465   0.480   2.998   5.405  0.7115  0.2409  0.5684
12350TIP3    H258466   0.535   2.927   5.526 -0.7168 -1.9938 -0.0241
12351TIP3   OH258467   3.735   3.455   5.862  0.3466  0.7143 -0.0840
12351TIP3    H158468   3.720   3.520   5.930  0.0032 -1.2407  1.7817
12351TIP3    H258469   3.780   3.383   5.906 -1.0319 -1.1913 -1.5896
12352TIP3   OH258470   5.486   1.959   4.648  0.1059  0.2061  0.6480
12352TIP3    H158471   5.400   1.949   4.688 -0.3644  0.4964 -0.2749
12352TIP3    H258472   5.522   1.870   4.645 -0.2527  0.0559  0.8100
12353TIP3   OH258473   5.711   5.822  13.202  0.2749  0.1916 -0.7256
12353TIP3    H158474   5.708   5.911  13.236 -0.3595 -0.4765  1.1167
12353TIP3    H258475   5.667   5.769  13.269 -0.0992 -1.3948 -2.1430
12354TIP3   OH258476   5.234   6.129  15.970 -0.1027 -0.1275  0.1760
12354TIP3    H158477   5.217   6.174  16.052  1.4750 -1.9818  1.6477
12354TIP3    H258478   5.171   6.057  15.968 -0.6842  0.3996 -0.6651
12355TIP3   OH258479   6.187   4.737   1.495 -0.2542  0.0172 -1.1528
12355TIP3    H158480   6.193   4.831   1.511 -0.8968 -0.4136  2.4581
12355TIP3    H258481   6.095   4.721   1.478  0.0791  0.1469 -3.3925
12356TIP3   OH258482   4.791   3.973   3.537  0.7031 -0.0653 -0.2246
12356TIP3    H158483   4.842   3.893   3.521 -1.9655 -1.5844 -2.0171
12356TIP3    H258484   4.752   3.959   3.623  1.8536  0.2939  0.3728
12357TIP3   OH258485   3.734   4.668  16.848  0.0315  0.9277 -0.1946
12357TIP3    H158486   3.701   4.582  16.876 -0.4603  1.0525 -0.3927
12357TIP3    H258487   3.806   4.686  16.908 -0.6688  0.9420  0.6642
12358TIP3   OH258488   1.982   4.471  17.031 -0.0708 -0.2684  1.0707
12358TIP3    H158489   2.016   4.396  16.981 -1.1299 -0.0144 -0.0590
12358TIP3    H258490   1.914   4.508  16.976  1.9346  2.9626  0.5026
12359TIP3   OH258491   1.125   2.572   3.718  0.1867 -0.3066  0.2028
12359TIP3    H158492   1.068   2.547   3.791 -1.0337  0.4136 -0.4842
12359TIP3    H258493   1.191   2.629   3.758 -0.7879  0.5264  0.6678
12360TIP3   OH258494   4.400   5.878  12.994 -0.3683  0.6072 -0.4166
12360TIP3    H158495   4.405   5.787  13.024  1.4297  0.4587 -1.0550
12360TIP3    H258496   4.474   5.921  13.037 -0.2347  1.3718 -1.3769
12361TIP3   OH258497   0.282   6.722  14.555 -0.1894  0.2326 -0.4831
12361TIP3    H158498   0.353   6.658  14.567 -0.5336 -0.1941 -0.7062
12361TIP3    H258499   0.205   6.680  14.593 -0.4125  0.5293 -0.6041
12362TIP3   OH258500   2.116   0.160  16.969  0.2959 -0.4591  0.2525
12362TIP3    H158501   2.059   0.230  17.001 -0.2977 -1.1288  0.6950
12362TIP3    H258502   2.082   0.139  16.882  1.1557  0.5314 -0.3480
12363TIP3   OH258503   4.229   1.422  14.536 -0.4760  0.3561 -0.2370
12363TIP3    H158504   4.316   1.384  14.534 -0.7592 -0.2634 -1.0755
12363TIP3    H258505   4.239   1.503  14.586  0.4516 -0.0127  0.1866
12364TIP3   OH258506   0.413   6.510   0.922  0.2125  0.1328 -0.5602
12364TIP3    H158507   0.495   6.523   0.968 -0.1145  0.3956 -0.0371
12364TIP3    H258508   0.380   6.598   0.905 -0.2776  0.0277 -0.1769
12365TIP3   OH258509   5.092   3.314  16.999 -0.1150 -0.3762  0.1645
12365TIP3    H158510   5.069   3.406  17.009 -0.6005 -0.4567 -0.1525
12365TIP3    H258511   5.160   3.298  17.065 -0.7745 -0.0546  0.9440
12366TIP3   OH258512   3.543   3.935   2.988 -0.3055 -0.3650 -0.1771
12366TIP3    H158513   3.571   3.923   2.898  1.3760  0.4955  0.1757
12366TIP3    H258514   3.597   3.874   3.038 -0.2133  0.1460  0.3690
12367TIP3   OH258515   3.764   3.780  11.571  0.2417 -0.1321 -0.3072
12367TIP3    H158516   3.744   3.841  11.642 -0.9902  0.6521 -1.2908
12367TIP3    H258517   3.680   3.768  11.525  0.3994 -2.6823 -0.0772
12368TIP3   OH258518   3.245   0.970  12.030  0.4372 -0.5771 -0.2367
12368TIP3    H158519   3.323   0.919  12.004  0.5064 -1.1941  1.1043
12368TIP3    H258520   3.172   0.910  12.017  0.0754  0.1613 -1.9672
12369TIP3   OH258521   4.337   3.880   0.796 -0.0698  1.1166 -0.1903
12369TIP3    H158522   4.275   3.897   0.867  0.4114  0.2537  0.4616
12369TIP3    H258523   4.395   3.956   0.795  0.9723  0.4024  1.4937
12370TIP3   OH258524   2.082   4.535  15.183 -0.4752 -0.2766  0.1332
12370TIP3    H158525   2.045   4.619  15.156 -1.3991  0.0890  2.3693
12370TIP3    H258526   2.133   4.506  15.107 -0.8472  1.8650 -1.0080
12371TIP3   OH258527   4.656   6.441  15.430 -0.4535 -0.2743  0.2919
12371TIP3    H158528   4.588   6.498  15.394 -0.5553 -0.8240 -0.4150
12371TIP3    H258529   4.691   6.489  15.505 -1.3736  0.1683  0.4467
12372TIP3   OH258530   2.303   0.386   4.948  0.0950  0.1411 -0.3434
12372TIP3    H158531   2.296   0.481   4.933 -1.3575  0.1578  0.3149
12372TIP3    H258532   2.392   0.365   4.921  1.2224  2.0722  1.5171
12373TIP3   OH258533   1.725   1.443  13.810 -0.4492 -0.4028  0.1335
12373TIP3    H158534   1.792   1.382  13.841 -1.4914 -1.9282 -0.4548
12373TIP3    H258535   1.662   1.448  13.882  0.0143  0.6160  0.4816
12374TIP3   OH258536   3.092   6.708  14.868 -0.1744  0.4094  0.2853
12374TIP3    H158537   3.083   6.780  14.805  2.1584  2.4101  2.0630
12374TIP3    H258538   3.185   6.686  14.865 -0.4723 -1.1408  1.3206
12375TIP3   OH258539   4.932   6.127  11.417 -0.1163  0.1487  0.5056
12375TIP3    H158540   4.843   6.114  11.451  0.2663 -4.3594  0.3778
12375TIP3    H258541   4.980   6.165  11.490 -1.4446 -0.3914  1.7224
12376TIP3   OH258542   6.354   5.723   4.418  0.5183  0.5550  0.5359
12376TIP3    H158543   6.381   5.739   4.508  1.9522  1.4133 -0.0071
12376TIP3    H258544   6.271   5.676   4.425  1.0155 -0.1090  2.2965
12377TIP3   OH258545   5.445   1.087   5.385  0.2057 -0.1681 -0.7856
12377TIP3    H158546   5.471   1.117   5.471 -1.0265  1.1399 -0.8320
12377TIP3    H258547   5.425   0.994   5.397  0.8190 -0.1864  0.1446
12378TIP3   OH258548   2.231   1.405  14.301 -0.9862 -0.4849 -0.6164
12378TIP3    H158549   2.298   1.337  14.301  0.8798  1.2183 -1.4215
12378TIP3    H258550   2.177   1.386  14.224 -0.3721 -0.9602 -0.9412
12379TIP3   OH258551   0.453   2.833   1.325 -0.1248 -0.0632 -0.1126
12379TIP3    H158552   0.545   2.846   1.303 -0.1951  2.2277  0.6791
12379TIP3    H258553   0.410   2.916   1.301 -1.6619 -0.4706  1.0228
12380TIP3   OH258554   0.504   0.396   2.100 -0.2829 -0.1952 -0.0352
12380TIP3    H158555   0.555   0.453   2.158  0.0570 -1.5436  1.0663
12380TIP3    H258556   0.418   0.438   2.095 -0.8039 -0.7421  2.6817
12381TIP3   OH258557   0.721   2.583  14.662  0.3428 -0.1111 -0.0327
12381TIP3    H158558   0.750   2.501  14.622  0.2403  0.0825 -0.5124
12381TIP3    H258559   0.631   2.565  14.690  0.6656 -0.4807  0.7936
12382TIP3   OH258560   3.052   2.997  16.513 -0.4428  0.5283 -0.1495
12382TIP3    H158561   2.973   3.039  16.478 -0.9251 -0.1508  0.1063
12382TIP3    H258562   3.074   2.930  16.448 -0.4984  0.2372  0.1302
12383TIP3   OH258563   1.112   5.726   4.440 -0.5852  0.2150  0.4266
12383TIP3    H158564   1.170   5.773   4.380 -0.2052 -2.5653 -1.5545
12383TIP3    H258565   1.162   5.720   4.521  0.7767  0.2446 -0.3753
12384TIP3   OH258566   3.167   3.656   0.928  0.3655 -0.3923  0.1521
12384TIP3    H158567   3.128   3.618   1.007  0.4159  0.2008  0.4739
12384TIP3    H258568   3.238   3.711   0.962  0.0077  0.3389 -0.2617
12385TIP3   OH258569   5.936   6.130  11.653  0.4090 -0.3734  0.2632
12385TIP3    H158570   5.889   6.105  11.573  2.2233  0.7820 -1.2680
12385TIP3    H258571   5.871   6.174  11.706 -1.6117 -3.7307  0.8486
12386TIP3   OH258572   0.368   5.707  13.950  0.8531 -0.9656  0.1702
12386TIP3    H158573   0.337   5.663  13.870  2.2731 -2.1867  0.2436
12386TIP3    H258574   0.397   5.793  13.920  1.0942 -1.2985 -0.5986
12387TIP3   OH258575   2.166   1.887   4.962  0.0296 -0.0242  0.2650
12387TIP3    H158576   2.099   1.828   4.995 -0.8115  0.8989  0.2374
12387TIP3    H258577   2.122   1.941   4.896  0.6741  0.8832  0.5464
12388TIP3   OH258578   2.604   4.773   0.529 -0.1119 -0.1641  0.0577
12388TIP3    H158579   2.585   4.820   0.448 -0.9765 -1.3151 -0.4339
12388TIP3    H258580   2.692   4.738   0.516 -0.1673 -0.1743 -0.2931
12389TIP3   OH258581   2.497   1.673  11.137  0.5354  0.6173  0.0025
12389TIP3    H158582   2.540   1.632  11.212  0.1673  0.8267  0.3293
12389TIP3    H258583   2.480   1.763  11.166  0.3822  0.6964 -0.3302
12390TIP3   OH258584   2.804   5.650  11.116  0.3118  0.1797  0.2747
12390TIP3    H158585   2.738   5.663  11.184  0.4961  2.3874  0.1112
12390TIP3    H258586   2.876   5.708  11.141  1.7028 -1.2453 -0.2153
12391TIP3   OH258587   2.790   6.502   5.250  0.0676 -0.6354 -0.3029
12391TIP3    H158588   2.797   6.448   5.171  1.3108 -1.2166  0.1716
12391TIP3    H258589   2.875   6.545   5.257 -0.2637 -0.0672  0.3564
12392TIP3   OH258590   4.296   6.480  13.944 -0.0520  0.0264  0.1490
12392TIP3    H158591   4.299   6.575  13.932  2.1682 -0.0722 -0.6142
12392TIP3    H258592   4.283   6.468  14.038  0.7652  1.1278  0.4225
12393TIP3   OH258593   0.927   2.880  13.115 -0.3508  0.2098  0.4978
12393TIP3    H158594   0.840   2.856  13.147 -2.2310  2.5876 -2.2979
12393TIP3    H258595   0.979   2.892  13.195 -2.5092 -1.3439  2.2737
12394TIP3   OH258596   4.366   1.646  10.632 -0.1979  0.1893 -0.0886
12394TIP3    H158597   4.384   1.618  10.722 -2.6933  0.8725  0.7191
12394TIP3    H258598   4.336   1.566  10.588  2.6905 -0.5449 -0.9173
12395TIP3   OH258599   1.201   2.660   3.137  0.2569 -0.6488  0.0683
12395TIP3    H158600   1.276   2.602   3.124  1.6103  1.2200 -0.8845
12395TIP3    H258601   1.144   2.644   3.061  0.3690 -1.0554  0.0678
12396TIP3   OH258602   0.657   1.752  14.838  0.7572  0.1772  0.9137
12396TIP3    H158603   0.657   1.843  14.810 -1.3923 -0.5649 -1.9325
12396TIP3    H258604   0.746   1.721  14.820  1.0437  1.2734  0.3804
12397TIP3   OH258605   2.599   3.863  12.722  0.1126 -0.5098 -0.7409
12397TIP3    H158606   2.574   3.788  12.775 -1.2404  0.6194  0.2729
12397TIP3    H258607   2.671   3.831  12.667 -0.9689 -2.7635 -0.9251
12398TIP3   OH258608   2.330   0.963  15.952 -0.4299 -0.2538 -0.2822
12398TIP3    H158609   2.346   0.900  16.023  0.9361  1.9682  1.5359
12398TIP3    H258610   2.249   1.007  15.978 -0.3709  0.0109 -0.5537
12399TIP3   OH258611   1.294   3.624  11.239 -0.0719 -0.7229  0.3160
12399TIP3    H158612   1.216   3.657  11.194 -1.1558 -3.3632  0.0943
12399TIP3    H258613   1.280   3.647  11.331  0.4483  1.5468 -0.1133
12400TIP3   OH258614   5.115   5.541   1.479  0.3687 -0.5744  0.3083
12400TIP3    H158615   5.095   5.528   1.386  0.3905  1.8482 -0.0902
12400TIP3    H258616   5.117   5.636   1.491 -0.0504 -0.7999  2.8898
12401TIP3   OH258617   4.880   5.712   5.854  0.3571 -0.2458  0.5261
12401TIP3    H158618   4.965   5.755   5.860 -0.1683  0.9977 -0.4789
12401TIP3    H258619   4.837   5.731   5.937  1.0410 -0.9153  1.0571
12402TIP3   OH258620   6.624   4.231   4.903 -0.5401  0.0528 -0.1190
12402TIP3    H158621   6.542   4.220   4.855 -0.1493 -2.1874 -0.3751
12402TIP3    H258622   6.669   4.147   4.894  0.9589  0.6083  1.5686
12403TIP3   OH258623   5.074   0.527   2.566 -0.0149 -0.3847 -0.1799
12403TIP3    H158624   5.080   0.622   2.554 -1.1620  0.1546  2.7105
12403TIP3    H258625   5.159   0.502   2.603  0.8732 -0.8412 -2.3499
12404TIP3   OH258626   3.627   5.840  12.466 -0.1707  0.7084 -0.1531
12404TIP3    H158627   3.642   5.747  12.447 -0.2396  0.4543  0.9544
12404TIP3    H258628   3.678   5.856  12.546  0.2172  1.7486 -0.6055
12405TIP3   OH258629   1.566   5.391  14.269  0.1494  0.0491  0.3529
12405TIP3    H158630   1.508   5.327  14.227 -0.6390 -0.0178  1.4970
12405TIP3    H258631   1.638   5.401  14.207 -0.5385 -0.6858 -0.6157
12406TIP3   OH258632   5.374   4.608  10.477 -0.3554  0.7540  0.3366
12406TIP3    H158633   5.378   4.523  10.432 -2.1816 -0.2599  1.8945
12406TIP3    H258634   5.298   4.600  10.535  0.7266  2.6724  2.1654
12407TIP3   OH258635   3.635   6.485   6.119 -0.0798  0.0135  0.2189
12407TIP3    H158636   3.654   6.539   6.042 -2.1803 -0.1760 -0.5011
12407TIP3    H258637   3.596   6.546   6.182  3.4269  0.6234  2.0896
12408TIP3   OH258638   0.641   6.268   2.393  0.0959  0.0998 -0.3357
12408TIP3    H158639   0.552   6.235   2.379  0.3407 -0.9063  0.3543
12408TIP3    H258640   0.628   6.356   2.429 -0.6028  0.2697 -0.9921
12409TIP3   OH258641   0.639   6.459  16.175 -0.0332 -0.0804 -0.6296
12409TIP3    H158642   0.587   6.396  16.125 -2.2526 -0.8896  2.4093
12409TIP3    H258643   0.583   6.536  16.183  0.7984  0.5239 -0.4807
12410TIP3   OH258644   0.310   6.039   0.039  0.1216  0.4797  0.5132
12410TIP3    H158645   0.231   5.986   0.049  0.9607 -0.8541  0.3188
12410TIP3    H258646   0.314   6.092   0.119  0.1698 -1.0317  1.5409
12411TIP3   OH258647   5.594   5.818   2.082 -0.4191 -0.2251  0.1863
12411TIP3    H158648   5.573   5.781   2.167 -0.7784 -0.2954  0.0714
12411TIP3    H258649   5.510   5.851   2.049 -0.0272  1.1787  0.5226
12412TIP3   OH258650   0.407   5.439  13.170  0.8940  0.2674 -0.8995
12412TIP3    H158651   0.480   5.378  13.159  0.8120 -0.1186  0.4664
12412TIP3    H258652   0.389   5.438  13.265 -0.1074  1.2519 -1.0574
12413TIP3   OH258653   1.380   3.590   4.906 -1.1334  0.6120  0.0105
12413TIP3    H158654   1.316   3.603   4.975  0.6321  3.0295  1.3586
12413TIP3    H258655   1.462   3.574   4.953 -0.4473 -1.0351 -1.6225
12414TIP3   OH258656   1.773   5.986  11.169 -0.0879  0.0174  0.4808
12414TIP3    H158657   1.691   5.939  11.156  1.1158 -1.9390 -0.4866
12414TIP3    H258658   1.756   6.074  11.138 -0.9330 -1.1983 -2.8765
12415TIP3   OH258659   5.414   6.506   0.164  0.2790  0.3180  0.3515
12415TIP3    H158660   5.336   6.452   0.169  0.4273  0.1494  0.8957
12415TIP3    H258661   5.472   6.472   0.233  1.3556 -0.3917 -0.8629
12416TIP3   OH258662   0.987   5.083   3.321  0.0456 -0.5999  0.1195
12416TIP3    H158663   0.935   5.108   3.398 -0.8579  0.9338 -0.9285
12416TIP3    H258664   1.057   5.148   3.317 -1.4537  1.0721 -1.7760
12417TIP3   OH258665   6.425   2.261  13.064  0.1445 -0.8702  0.1718
12417TIP3    H158666   6.447   2.221  12.980  0.4923  2.6279 -1.5819
12417TIP3    H258667   6.481   2.216  13.127  2.3514 -1.4037 -2.0039
12418TIP3   OH258668   3.423   2.338  13.005 -0.5577 -0.0463  0.9054
12418TIP3    H158669   3.442   2.269  12.941  0.5652  0.0053  1.1624
12418TIP3    H258670   3.509   2.373  13.029 -0.9680  0.0756  2.2760
12419TIP3   OH258671   2.296   0.349  15.840 -0.4676 -0.9616  0.1171
12419TIP3    H158672   2.327   0.437  15.818 -1.6890 -0.1532  1.4709
12419TIP3    H258673   2.334   0.293  15.772  0.5008  0.5643 -0.6658
12420TIP3   OH258674   4.002   4.973   2.222  0.0391  0.1385  0.0943
12420TIP3    H158675   4.043   4.933   2.146  3.9594 -0.0406  2.0765
12420TIP3    H258676   3.930   4.914   2.243 -0.7207 -0.1995 -2.9172
12421TIP3   OH258677   6.692   3.173  12.321 -0.2616  0.1958  0.6890
12421TIP3    H158678   6.661   3.241  12.381 -0.6666  2.5192 -1.9883
12421TIP3    H258679   6.787   3.176  12.328 -0.3025  0.3428  1.2751
12422TIP3   OH258680   6.123   1.843   2.050  0.6166  0.5692 -0.8608
12422TIP3    H158681   6.197   1.850   1.990  0.5535  0.8241 -0.9128
12422TIP3    H258682   6.079   1.762   2.026  1.2897  0.0521 -0.3639
12423TIP3   OH258683   1.508   2.321  11.886  0.7600 -0.6133 -0.4587
12423TIP3    H158684   1.594   2.297  11.921  0.3150 -0.7614  0.5967
12423TIP3    H258685   1.522   2.405  11.843  1.2813 -0.2662  0.3672
12424TIP3   OH258686   0.773   6.211  13.223  0.0164  0.3111 -0.0008
12424TIP3    H158687   0.780   6.142  13.289  2.6612  0.2339 -0.2635
12424TIP3    H258688   0.680   6.230  13.219 -0.4262 -0.8509  2.5414
12425TIP3   OH258689   5.159   0.441  16.004 -0.2224 -0.2974  0.0275
12425TIP3    H158690   5.070   0.424  15.972  0.2704 -0.0553 -1.5865
12425TIP3    H258691   5.212   0.373  15.963  0.2443 -0.9726  1.6655
12426TIP3   OH258692   5.697   2.049   4.779  0.0145  0.0168 -0.0867
12426TIP3    H158693   5.610   2.044   4.738  0.5691  0.8268 -1.4121
12426TIP3    H258694   5.693   2.126   4.835  0.8092  1.9756 -2.5633
12427TIP3   OH258695   5.242   1.085   2.848  0.1260 -0.2880  0.0854
12427TIP3    H158696   5.302   1.042   2.786 -1.1613 -2.3841  0.2048
12427TIP3    H258697   5.170   1.117   2.793  1.1137  1.9798 -0.0210
12428TIP3   OH258698   1.583   4.497  10.584  0.4347 -0.1633 -0.2363
12428TIP3    H158699   1.639   4.428  10.547  1.0825 -0.6635  1.5217
12428TIP3    H258700   1.642   4.571  10.598 -0.2349  0.7418 -2.0029
12429TIP3   OH258701   4.752   2.001  11.768  0.2412 -0.1733 -0.3503
12429TIP3    H158702   4.722   2.085  11.804 -3.8906 -1.7020  0.2508
12429TIP3    H258703   4.730   2.006  11.675 -3.4025 -1.6522  0.2515
12430TIP3   OH258704   2.107   3.131  13.829  0.6756 -0.1521  0.2131
12430TIP3    H158705   2.178   3.141  13.765  1.4226 -0.2615  1.0039
12430TIP3    H258706   2.042   3.077  13.784  0.6685  0.7163 -0.8554
12431TIP3   OH258707   3.462   1.932  14.946 -0.5180 -0.1337 -0.7365
12431TIP3    H158708   3.438   1.942  15.038  1.5327  0.6837 -0.2330
12431TIP3    H258709   3.494   1.842  14.940 -1.3353 -0.4245 -0.8381
12432TIP3   OH258710   1.839   2.719   4.840  0.3614  0.0538  0.0652
12432TIP3    H158711   1.794   2.803   4.848  2.0593  1.1394 -1.1319
12432TIP3    H258712   1.834   2.698   4.747 -0.7604 -1.6552  0.4447
12433TIP3   OH258713   3.637   3.095   2.418 -0.0078  0.1134 -0.2480
12433TIP3    H158714   3.616   3.080   2.325 -1.2092  0.8432 -0.1260
12433TIP3    H258715   3.612   3.014   2.461  0.4421 -0.1870 -0.5544
12434TIP3   OH258716   3.462   1.495  14.673 -0.3247  0.4025 -0.4017
12434TIP3    H158717   3.434   1.473  14.762 -1.4123 -1.5253 -1.1574
12434TIP3    H258718   3.460   1.591  14.671  1.4687  0.6019  2.1290
12435TIP3   OH258719   0.745   4.805   5.430  0.4579  0.3074 -0.1087
12435TIP3    H158720   0.829   4.762   5.448 -0.5709 -2.1894 -0.7182
12435TIP3    H258721   0.681   4.733   5.431 -1.5261  1.9691 -0.6335
12436TIP3   OH258722   4.462   4.682   5.532  0.4325  0.7491 -0.0846
12436TIP3    H158723   4.515   4.704   5.455  1.4221  1.1214  0.6806
12436TIP3    H258724   4.385   4.638   5.496  1.0669  0.5511 -1.2557
12437TIP3   OH258725   0.448   0.334  16.436  0.0815 -1.0986 -0.4036
12437TIP3    H158726   0.382   0.327  16.506 -0.6396  0.9211 -0.8157
12437TIP3    H258727   0.530   0.350  16.482 -0.1602 -1.1163  0.0397
12438TIP3   OH258728   2.082   2.855  10.267 -0.9701 -0.6159  0.6091
12438TIP3    H158729   2.050   2.930  10.317 -0.7336 -1.0849  1.4752
12438TIP3    H258730   2.009   2.793  10.267 -0.3918 -1.3427  1.8896
12439TIP3   OH258731   0.423   0.283   0.236 -0.2563  0.2006 -0.2467
12439TIP3    H158732   0.382   0.331   0.164  0.2826  0.0801 -0.6443
12439TIP3    H258733   0.402   0.191   0.218 -0.3833  0.1946 -0.0747
12440TIP3   OH258734   4.094   1.078   6.447  0.0471 -0.8095  0.0196
12440TIP3    H158735   4.146   1.012   6.493  0.2735 -0.9864 -0.4840
12440TIP3    H258736   4.113   1.160   6.493  0.4534 -0.9452  0.0965
12441TIP3   OH258737   6.271   3.665  10.996  0.1607  0.0969 -0.1310
12441TIP3    H158738   6.288   3.628  10.910 -0.9221 -0.1819 -0.2418
12441TIP3    H258739   6.178   3.689  10.994 -0.5438 -2.0693  1.7288
12442TIP3   OH258740   5.799   1.285   5.277 -0.0615 -0.3826 -0.2732
12442TIP3    H158741   5.753   1.368   5.261 -0.3011 -0.6289 -0.8743
12442TIP3    H258742   5.838   1.263   5.193  2.1036  0.3741  0.4737
12443TIP3   OH258743   5.568   2.857  11.341  0.3560 -0.5786 -0.2384
12443TIP3    H158744   5.570   2.952  11.332  1.0582 -0.6025 -0.3822
12443TIP3    H258745   5.510   2.842  11.416 -1.0353 -0.1232 -1.1827
12444TIP3   OH258746   6.386   3.156  10.770  0.3798  0.7159  0.1716
12444TIP3    H158747   6.302   3.196  10.791  0.6792  0.6897  1.4772
12444TIP3    H258748   6.429   3.219  10.712 -0.5199  0.7323 -0.4916
12445TIP3   OH258749   2.513   1.631  11.425 -0.5050  0.1532 -0.0396
12445TIP3    H158750   2.423   1.661  11.412 -1.0628 -0.8606  1.2742
12445TIP3    H258751   2.505   1.555  11.482  1.2054  0.1067  0.1862
12446TIP3   OH258752   4.545   1.445   4.698 -0.2801 -0.2600 -0.8159
12446TIP3    H158753   4.461   1.491   4.700  0.2684  0.8569  2.8489
12446TIP3    H258754   4.526   1.359   4.735  0.2238  0.1586  0.4629
12447TIP3   OH258755   1.838   0.063   6.041 -0.3317 -1.2288 -0.2831
12447TIP3    H158756   1.783   0.060   6.119  0.6028  0.1903  0.4726
12447TIP3    H258757   1.779   0.090   5.971 -0.5498  0.7948  0.6112
12448TIP3   OH258758   0.828   0.872  15.685  0.0064  0.3791  0.1851
12448TIP3    H158759   0.867   0.941  15.631  1.6412 -0.4418  0.2622
12448TIP3    H258760   0.898   0.808  15.697 -1.0996 -0.7052  1.1499
12449TIP3   OH258761   3.300   2.420  12.739 -0.0269  0.4228 -0.1176
12449TIP3    H158762   3.357   2.397  12.812  0.7746  0.9004 -0.5896
12449TIP3    H258763   3.349   2.484  12.688 -0.5658  0.0887 -1.0908
12450TIP3   OH258764   2.373   2.719  16.017  0.3363  0.2408  0.0127
12450TIP3    H158765   2.355   2.628  15.993 -4.0741  1.0490 -0.5499
12450TIP3    H258766   2.376   2.765  15.933 -0.2103  0.9804  0.3916
12451TIP3   OH258767   1.803   4.042  14.683  0.8176  0.1140 -0.2914
12451TIP3    H158768   1.772   3.988  14.756  0.8009 -0.7793 -0.9468
12451TIP3    H258769   1.893   4.065  14.707  1.6562 -2.1493 -1.0369
12452TIP3   OH258770   5.303   5.462  17.206  0.3383  0.1117  0.0712
12452TIP3    H158771   5.366   5.475  17.134  3.7311 -1.5098  2.4433
12452TIP3    H258772   5.249   5.388  17.178  2.2254 -1.1146 -0.5470
12453TIP3   OH258773   3.766   1.773   5.112  0.2053 -0.5371 -0.2865
12453TIP3    H158774   3.704   1.838   5.081 -0.8478 -1.2516  0.2827
12453TIP3    H258775   3.748   1.695   5.060  1.2225 -0.5013 -0.7254
12454TIP3   OH258776   6.359   2.409   4.381 -0.5588  0.7115 -0.4997
12454TIP3    H158777   6.360   2.472   4.452 -0.3782  0.4565 -0.2772
12454TIP3    H258778   6.441   2.425   4.333  0.2180 -0.3357  0.4233
12455TIP3   OH258779   6.607   0.386   3.104  0.6769  0.2688 -0.9283
12455TIP3    H158780   6.627   0.454   3.169  0.8809 -1.1078  0.5099
12455TIP3    H258781   6.514   0.368   3.116  0.7766 -0.1828 -0.8256
12456TIP3   OH258782   4.381   5.609  16.812 -0.0016  0.2529 -1.0354
12456TIP3    H158783   4.475   5.622  16.803  0.5206 -2.2126  0.2863
12456TIP3    H258784   4.359   5.541  16.749 -0.8418  0.5112 -1.0419
12457TIP3   OH258785   4.286   0.481   0.109  0.1006 -0.0624 -0.4031
12457TIP3    H158786   4.317   0.516   0.025 -2.1673 -0.5800 -1.5344
12457TIP3    H258787   4.217   0.420   0.085 -0.7729 -0.0516  1.8684
12458TIP3   OH258788   2.587   6.623   1.465  0.5225 -0.3690  0.2713
12458TIP3    H158789   2.660   6.676   1.498  1.1059 -0.1239 -1.3002
12458TIP3    H258790   2.605   6.535   1.496  1.2685 -0.2263  0.2694
12459TIP3   OH258791   5.739   3.377  13.253 -0.0295 -0.1032  0.6046
12459TIP3    H158792   5.769   3.319  13.183 -3.3462 -0.3651 -0.7750
12459TIP3    H258793   5.814   3.435  13.269  1.1994 -0.5947 -2.5487
12460TIP3   OH258794   5.649   3.382  14.988 -0.1391  0.1891  0.3824
12460TIP3    H158795   5.638   3.287  14.978 -2.6276  0.0747  2.9398
12460TIP3    H258796   5.696   3.392  15.071  2.1271  1.2623 -0.9158
12461TIP3   OH258797   0.009   2.073   3.722 -0.0741  0.3776  0.0292
12461TIP3    H158798  -0.012   2.001   3.662  1.3865 -0.0032 -0.0697
12461TIP3    H258799   0.062   2.133   3.670 -0.7786  1.2283  0.2855
12462TIP3   OH258800   1.341   2.156  12.414  0.4833  0.6301  0.6246
12462TIP3    H158801   1.383   2.217  12.474 -1.2162  2.5679 -0.0666
12462TIP3    H258802   1.301   2.091  12.471 -0.2622  1.8757  1.5723
12463TIP3   OH258803   4.746   2.375   1.092 -0.1050  0.2953  0.7125
12463TIP3    H158804   4.762   2.469   1.101  2.2399 -0.0218  0.3571
12463TIP3    H258805   4.661   2.361   1.135 -0.3059  2.4816  1.1409
12464TIP3   OH258806   3.031   3.344   3.176  0.0805 -0.1357 -0.6480
12464TIP3    H158807   3.037   3.269   3.235 -1.2069 -0.7712 -1.2945
12464TIP3    H258808   3.118   3.350   3.137  0.2117 -1.2949 -0.5760
12465TIP3   OH258809   4.261   5.560   2.394  0.2919 -0.2057 -0.4353
12465TIP3    H158810   4.296   5.472   2.377  2.0801  0.1719  0.9437
12465TIP3    H258811   4.298   5.615   2.325  0.4748 -0.2588 -0.3807
12466TIP3   OH258812   4.508   0.536   3.385  0.1704 -0.7015 -0.1909
12466TIP3    H158813   4.480   0.572   3.301 -1.4701 -1.6642 -0.1092
12466TIP3    H258814   4.492   0.608   3.447 -0.7018 -0.6945 -0.3998
12467TIP3   OH258815   4.816   4.717  11.567 -0.5539  0.0871 -0.2493
12467TIP3    H158816   4.806   4.794  11.624 -0.7432  0.0907 -0.2877
12467TIP3    H258817   4.805   4.752  11.478 -0.6732  0.0087 -0.2640
12468TIP3   OH258818   0.416   5.392   5.311 -0.1233 -0.4584  0.2608
12468TIP3    H158819   0.407   5.463   5.247  1.5458 -0.6871 -0.2824
12468TIP3    H258820   0.421   5.436   5.396 -1.2978 -0.0793  0.1452
12469TIP3   OH258821   0.845   4.841   3.279  0.3297 -0.3124 -0.0204
12469TIP3    H158822   0.764   4.879   3.246  0.2412 -1.2342 -0.9411
12469TIP3    H258823   0.911   4.909   3.264  0.0069 -0.1476 -0.7465
12470TIP3   OH258824   1.240   5.009   1.475  0.2755 -0.0958 -0.1656
12470TIP3    H158825   1.262   4.917   1.461 -1.1567 -0.2822 -1.4342
12470TIP3    H258826   1.251   5.049   1.389  1.8419  1.1710  0.5726
12471TIP3   OH258827   6.352   3.595  14.645 -0.3789 -0.3580  0.2182
12471TIP3    H158828   6.424   3.535  14.627 -0.1876 -0.2283  0.5317
12471TIP3    H258829   6.328   3.577  14.736  1.3429  1.7413  1.1825
12472TIP3   OH258830   5.727   3.771  16.097 -0.3452 -0.3063 -0.3566
12472TIP3    H158831   5.747   3.781  16.004 -0.5298 -0.0132 -0.3675
12472TIP3    H258832   5.663   3.840  16.115  0.7292  0.5381  0.3147
12473TIP3   OH258833   4.534   5.670  12.833  0.0369  0.4273 -0.3760
12473TIP3    H158834   4.477   5.623  12.772  0.8692 -0.7345 -0.2871
12473TIP3    H258835   4.589   5.602  12.871  0.8099  1.3981  0.2762
12474TIP3   OH258836   6.634   3.212  14.774  0.7801 -0.0780 -0.3638
12474TIP3    H158837   6.621   3.288  14.717 -2.2656  0.2646  0.5848
12474TIP3    H258838   6.597   3.238  14.858  1.1088 -2.0624  0.4574
12475TIP3   OH258839   5.611   5.474   6.332 -0.3818  0.2918  0.4785
12475TIP3    H158840   5.533   5.512   6.372 -0.4644  1.6949 -0.9445
12475TIP3    H258841   5.680   5.487   6.398 -0.8058  1.2840  0.7424
12476TIP3   OH258842   1.162   5.887   1.997  0.1497  0.4827 -0.2916
12476TIP3    H158843   1.171   5.793   1.984  0.0473  0.4724 -0.2850
12476TIP3    H258844   1.160   5.898   2.092  2.8599  0.7254 -0.1659
12477TIP3   OH258845   0.055   4.599  10.156 -0.0258 -0.2711 -0.2714
12477TIP3    H158846   0.071   4.670  10.218 -1.3554 -0.0213 -0.1859
12477TIP3    H258847   0.130   4.541  10.166  1.8566  1.8183 -1.3996
12478TIP3   OH258848   3.451   2.789   2.283 -0.2539 -0.0565 -0.2409
12478TIP3    H158849   3.523   2.726   2.272 -0.5759 -0.4765  0.0383
12478TIP3    H258850   3.491   2.874   2.265  0.0079 -0.4071 -1.3961
12479TIP3   OH258851   6.206   4.015   4.316 -0.6150  0.0207  0.0870
12479TIP3    H158852   6.182   4.102   4.283  0.6134  0.7137  0.9085
12479TIP3    H258853   6.127   3.963   4.306 -1.5337  1.3676 -0.0045
12480TIP3   OH258854   4.991   3.007  16.686  0.2821  0.2872  0.2714
12480TIP3    H158855   4.955   3.020  16.773  1.2385 -1.5668  0.9909
12480TIP3    H258856   5.071   3.059  16.685  0.0188  0.6981  0.3107
12481TIP3   OH258857   1.050   0.285  17.131 -0.2273 -0.5815 -0.1402
12481TIP3    H158858   1.056   0.191  17.148 -0.2230 -0.5593 -0.0193
12481TIP3    H258859   1.136   0.319  17.154 -0.5283 -0.3955  0.7662
12482TIP3   OH258860   3.670   4.392  16.881 -0.0760 -0.7916 -0.4193
12482TIP3    H158861   3.698   4.364  16.968 -0.0591 -1.9076 -0.7565
12482TIP3    H258862   3.738   4.360  16.822  1.7758  2.9971 -0.5784
12483TIP3   OH258863   1.944   4.378   3.122  0.0929 -0.2408 -0.3400
12483TIP3    H158864   1.878   4.401   3.188  0.2998 -1.3548  0.2806
12483TIP3    H258865   1.894   4.366   3.042 -0.4448 -0.8715  0.0786
12484TIP3   OH258866   3.492   4.041   2.515  0.0566  0.0258  0.4635
12484TIP3    H158867   3.493   4.090   2.598 -0.2587 -0.9360  1.0532
12484TIP3    H258868   3.400   4.036   2.492  0.2817  2.4143 -1.2760
12485TIP3   OH258869   5.742   1.991  17.228 -0.0881  0.0039  0.1926
12485TIP3    H158870   5.675   1.935  17.188  1.0668 -0.2551 -1.4951
12485TIP3    H258871   5.785   1.935  17.291  1.6676 -1.4373 -2.1185
12486TIP3   OH258872   6.529   0.818  14.804  0.0435 -0.5017  0.5261
12486TIP3    H158873   6.612   0.793  14.764  0.5319 -0.4067  1.4318
12486TIP3    H258874   6.550   0.897  14.854 -1.4708  1.9793 -2.4264
12487TIP3   OH258875   3.197   2.554  13.373 -0.4161  0.5468  0.2966
12487TIP3    H158876   3.230   2.476  13.417 -0.2379  0.8422  0.7025
12487TIP3    H258877   3.132   2.590  13.434 -1.7688 -0.2191 -0.6430
12488TIP3   OH258878   0.661   4.742   3.591  0.0447 -0.2551 -0.5822
12488TIP3    H158879   0.732   4.802   3.613 -0.4484  1.2169 -2.6811
12488TIP3    H258880   0.655   4.683   3.666  1.3193  1.5890  1.0569
12489TIP3   OH258881   5.275   6.636   4.186  0.0650 -0.5054 -0.0889
12489TIP3    H158882   5.309   6.554   4.152 -0.3720 -0.2011 -1.3102
12489TIP3    H258883   5.268   6.622   4.280 -2.3915 -2.7852 -0.5068
12490TIP3   OH258884   2.756   4.167   2.357  0.0472  0.2726 -0.7203
12490TIP3    H158885   2.719   4.241   2.405 -0.0520 -0.1858 -0.0750
12490TIP3    H258886   2.849   4.171   2.376 -0.0563 -0.1880 -0.0899
12491TIP3   OH258887   4.350   5.971  14.897  1.1274  0.4754 -0.3884
12491TIP3    H158888   4.309   6.058  14.901 -1.1859 -0.5693  0.6944
12491TIP3    H258889   4.327   5.938  14.810  0.8520  0.4364 -0.3021
12492TIP3   OH258890   6.714   4.429   0.303  0.3084 -0.5208  0.2646
12492TIP3    H158891   6.731   4.461   0.392  0.4916 -0.0282  0.0535
12492TIP3    H258892   6.620   4.442   0.291  0.6645  1.7351 -0.5036
12493TIP3   OH258893   6.106   1.988  14.918 -0.8476  0.2307  0.0867
12493TIP3    H158894   6.183   1.994  14.861  1.6244 -1.2349  2.9956
12493TIP3    H258895   6.032   1.992  14.858  1.5020 -1.6587 -3.2878
12494TIP3   OH258896   4.393   4.494   4.784 -0.5497 -0.4121 -0.1556
12494TIP3    H158897   4.442   4.575   4.800  0.2710 -0.9251 -0.0533
12494TIP3    H258898   4.428   4.432   4.847 -0.3234 -1.2050 -1.0409
12495TIP3   OH258899   0.752   4.665  12.984 -0.0047  0.6316 -0.0025
12495TIP3    H158900   0.662   4.680  13.013  0.1006  2.0417 -0.3611
12495TIP3    H258901   0.769   4.573  13.006 -2.5855 -0.6856 -2.7805
12496TIP3   OH258902   1.983   3.362  10.408  0.1692 -0.3005  0.1957
12496TIP3    H158903   2.015   3.438  10.457 -0.4727 -0.1550  0.3972
12496TIP3    H258904   1.945   3.304  10.474  0.6486 -0.7938  0.0390
12497TIP3   OH258905   5.242   6.273   0.093 -0.1891  0.2195  0.3945
12497TIP3    H158906   5.242   6.199   0.154 -1.1487  1.5945  2.1534
12497TIP3    H258907   5.153   6.276   0.058 -0.1345  0.5177  0.2779
12498TIP3   OH258908   5.831   5.883  16.932  0.7081  0.1836 -0.0309
12498TIP3    H158909   5.863   5.950  16.993  2.3265 -0.9622  0.4629
12498TIP3    H258910   5.818   5.805  16.987  1.9387 -0.7977 -1.0532
12499TIP3   OH258911   4.122   0.672  12.774 -0.2022  0.2356 -0.3355
12499TIP3    H158912   4.172   0.624  12.840  0.2595  0.2431 -0.6723
12499TIP3    H258913   4.181   0.742  12.746 -0.5068  0.4118 -0.5417
12500TIP3   OH258914   1.981   2.649  14.699  0.5116  0.1763  0.0710
12500TIP3    H158915   2.070   2.642  14.664  0.4674  2.5362 -0.6554
12500TIP3    H258916   1.987   2.716  14.767 -0.9193  1.2334 -0.7991
12501TIP3   OH258917   0.902   2.362  11.714 -0.2688 -0.3265  0.0507
12501TIP3    H158918   0.847   2.421  11.663 -1.4758  0.3024  1.9573
12501TIP3    H258919   0.954   2.315  11.649 -2.6005 -0.5152 -1.8333
12502TIP3   OH258920   4.378   6.449   1.822 -0.2816 -0.5399 -0.0472
12502TIP3    H158921   4.319   6.521   1.847 -0.6450 -0.1205 -1.9918
12502TIP3    H258922   4.321   6.373   1.816  0.0380 -0.9641  1.6133
12503TIP3   OH258923   5.096   2.525  16.327  0.3634  0.2075 -0.3231
12503TIP3    H158924   5.143   2.576  16.261 -0.0758 -0.3211 -1.0607
12503TIP3    H258925   5.006   2.522  16.296  0.7898 -3.0428 -1.6572
12504TIP3   OH258926   4.517   5.418   5.252 -0.0098 -0.4780  0.2237
12504TIP3    H158927   4.440   5.466   5.281  0.3908 -0.2332  0.9021
12504TIP3    H258928   4.484   5.332   5.227 -0.1722 -1.2715  2.9329
12505TIP3   OH258929   3.491   2.491   4.248 -0.1703  0.1786  0.2319
12505TIP3    H158930   3.452   2.432   4.184  0.5550 -2.2419  1.8633
12505TIP3    H258931   3.480   2.446   4.332 -2.4257  3.8575  2.1653
12506TIP3   OH258932   0.860   0.712  15.107 -0.3805  0.6938  0.1839
12506TIP3    H158933   0.881   0.624  15.138  1.6124  1.1849  0.3702
12506TIP3    H258934   0.764   0.716  15.110 -0.4584 -0.9252  1.6605
12507TIP3   OH258935   4.208   4.742  14.247 -0.3040 -0.3164 -0.4280
12507TIP3    H158936   4.137   4.806  14.251 -0.6856 -0.7823  2.1321
12507TIP3    H258937   4.174   4.672  14.191 -0.8455  0.5908 -1.2668
12508TIP3   OH258938   0.144   2.485  14.531 -0.0890 -0.4304  0.1409
12508TIP3    H158939   0.180   2.570  14.555 -1.7327 -0.1293  1.7588
12508TIP3    H258940   0.114   2.496  14.440 -1.1706  1.0629  0.6349
12509TIP3   OH258941   5.099   2.270   4.733  0.0600 -0.5801 -0.7474
12509TIP3    H158942   5.145   2.218   4.668  0.4431 -1.3769  0.1298
12509TIP3    H258943   5.022   2.218   4.755 -0.4280  0.0027 -1.0539
12510TIP3   OH258944   4.809   1.129  14.450 -0.6565 -0.2087 -0.5017
12510TIP3    H158945   4.786   1.075  14.526 -1.6798  1.7811  0.6849
12510TIP3    H258946   4.744   1.108  14.384  0.0138 -1.6844 -0.7275
12511TIP3   OH258947   4.128   0.268  14.331 -0.1632 -0.1958  0.1934
12511TIP3    H158948   4.185   0.300  14.401 -0.1198  1.3524 -0.5028
12511TIP3    H258949   4.182   0.274  14.252 -0.9002  0.1535 -0.2942
12512TIP3   OH258950   5.673   5.800  12.895 -0.0141 -0.5815  0.1277
12512TIP3    H158951   5.585   5.763  12.902  0.2942 -1.3082  0.3107
12512TIP3    H258952   5.700   5.812  12.986 -1.1084  2.6497  0.1717
12513TIP3   OH258953   3.927   1.936   6.169 -0.4900 -0.0785  0.2668
12513TIP3    H158954   3.840   1.922   6.205 -1.3957  0.3032 -1.6624
12513TIP3    H258955   3.955   2.020   6.206 -1.2712  0.1681  0.3105
12514TIP3   OH258956   0.954   3.918   3.028  0.1979 -0.6564 -0.4809
12514TIP3    H158957   0.995   3.832   3.019  0.3313 -0.6749  0.2143
12514TIP3    H258958   0.930   3.923   3.121  1.3514  0.5683 -0.2134
12515TIP3   OH258959   1.318   4.928  14.686  0.8691 -0.4717 -0.4402
12515TIP3    H158960   1.379   4.914  14.614  3.1095 -1.9655  1.6002
12515TIP3    H258961   1.345   5.012  14.724  0.8466 -0.5294 -0.2955
12516TIP3   OH258962   6.140   1.674  11.002  0.2427 -0.2440 -0.4752
12516TIP3    H158963   6.132   1.700  10.910  2.0345 -1.7640 -1.1200
12516TIP3    H258964   6.185   1.589  10.999  0.6359 -0.1754  1.8312
12517TIP3   OH258965   3.480   5.380  12.877  0.0578 -0.3750 -0.0097
12517TIP3    H158966   3.496   5.288  12.855 -1.0459  0.1750 -3.7848
12517TIP3    H258967   3.385   5.388  12.880 -0.0217  1.0809 -2.7400
12518TIP3   OH258968   4.369   2.691   1.173 -0.4295  0.3063  0.0265
12518TIP3    H158969   4.337   2.682   1.263 -0.8450 -0.6831 -0.2040
12518TIP3    H258970   4.300   2.739   1.127 -1.2201 -1.0503 -0.2580
12519TIP3   OH258971   1.865   1.554   1.862 -0.4492  0.0618  0.2003
12519TIP3    H158972   1.773   1.578   1.866  0.0978  2.2213  2.5604
12519TIP3    H258973   1.906   1.603   1.934  2.5072 -0.9884 -0.6101
12520TIP3   OH258974   3.885   1.301   5.564  0.0032  0.0702  0.6527
12520TIP3    H158975   3.949   1.244   5.520  2.1005  1.3920  1.7795
12520TIP3    H258976   3.890   1.383   5.514 -1.1880  0.0542  0.4902
12521TIP3   OH258977   0.156   1.981   6.161  0.0406 -1.0465 -0.1158
12521TIP3    H158978   0.102   2.059   6.169  0.8481 -0.5435  0.6614
12521TIP3    H258979   0.241   2.014   6.131  0.7137 -1.4745  1.2366
12522TIP3   OH258980   1.166   4.775   3.599  0.2939 -0.0575  0.0297
12522TIP3    H158981   1.224   4.842   3.564  1.8441 -1.3722 -0.0732
12522TIP3    H258982   1.150   4.803   3.689  0.1931  0.8894 -0.2713
12523TIP3   OH258983   1.174   0.913  13.780 -1.0511 -0.3434 -0.1886
12523TIP3    H158984   1.091   0.928  13.737 -0.8557  1.5029 -0.0204
12523TIP3    H258985   1.227   0.990  13.758  0.1109 -0.8066  0.8349
12524TIP3   OH258986   2.622   6.622  12.213 -0.3859 -0.0994 -0.1710
12524TIP3    H158987   2.565   6.605  12.288  1.2177 -2.1816  0.6768
12524TIP3    H258988   2.621   6.541  12.163  2.9944 -0.8697  0.7588
12525TIP3   OH258989   4.119   1.091   4.196  0.2726  0.0188 -0.5806
12525TIP3    H158990   4.160   1.107   4.111 -0.8019  0.2585 -1.0647
12525TIP3    H258991   4.026   1.098   4.179 -0.0422 -1.5542  0.2872
12526TIP3   OH258992   4.752   1.166   3.940 -0.0324 -0.3766 -0.4829
12526TIP3    H158993   4.736   1.093   4.000 -0.8287  0.9650  1.0247
12526TIP3    H258994   4.840   1.197   3.963 -0.6225  0.6016  0.5703
12527TIP3   OH258995   2.114   4.162   4.952  0.4556  0.3395 -0.4259
12527TIP3    H158996   2.096   4.132   5.041  0.1025 -0.5313 -0.7845
12527TIP3    H258997   2.167   4.241   4.964 -1.6578  1.6927  0.6174
12528TIP3   OH258998   4.738   6.770  12.146  0.6320  0.2905 -0.4384
12528TIP3    H158999   4.759   6.860  12.172  1.6070 -0.2812  0.9169
12528TIP3    H259000   4.691   6.734  12.221  1.5360 -0.7399 -0.3338
12529TIP3   OH259001   5.133   6.439   5.462  0.4806  0.2977  0.0299
12529TIP3    H159002   5.173   6.377   5.523  0.1376  1.3597  1.3650
12529TIP3    H259003   5.203   6.462   5.401  0.3791 -2.1398 -1.1796
12530TIP3   OH259004   4.951   2.315   0.908  0.7242  0.4998 -0.0006
12530TIP3    H159005   4.872   2.338   0.957  1.7385  1.3150  1.3254
12530TIP3    H259006   4.932   2.340   0.818  0.3012  2.8928  0.6900
12531TIP3   OH259007   3.216   2.364   4.998  0.1596 -0.1705 -0.2107
12531TIP3    H159008   3.170   2.281   4.984  0.3651 -0.4458  0.6572
12531TIP3    H259009   3.308   2.343   4.984  0.0941  0.2420 -1.3546
12532TIP3   OH259010   0.311   4.782  15.129  0.3022  0.0629 -0.4111
12532TIP3    H159011   0.394   4.757  15.169 -0.0995 -1.4894 -0.4967
12532TIP3    H259012   0.323   4.763  15.036 -0.2161 -0.3927 -0.3911
12533TIP3   OH259013   1.181   5.423  12.245  0.5392 -0.5380 -0.0051
12533TIP3    H159014   1.132   5.429  12.164  1.7719 -2.6157 -1.0019
12533TIP3    H259015   1.232   5.504  12.249 -2.0565  1.2129  0.5677
12534TIP3   OH259016   1.840   3.650   0.924  0.2821  0.7040  0.4884
12534TIP3    H159017   1.935   3.635   0.920  0.0273 -1.4861  1.1640
12534TIP3    H259018   1.806   3.601   0.849 -0.4513 -0.0769  1.3192
12535TIP3   OH259019   1.611   6.691   6.108  0.0003 -0.1386 -0.2978
12535TIP3    H159020   1.621   6.774   6.155 -0.3768  0.6620 -1.5879
12535TIP3    H259021   1.522   6.662   6.128 -1.2633  1.7006 -2.7619
12536TIP3   OH259022   0.416   6.597  16.283  0.2810  0.2723  0.2919
12536TIP3    H159023   0.338   6.562  16.326 -1.1065  0.8906 -1.5762
12536TIP3    H259024   0.427   6.684  16.321 -0.5468  0.5591 -0.0798
12537TIP3   OH259025   0.144   2.293   4.236 -0.3282  0.1511  0.1371
12537TIP3    H159026   0.096   2.347   4.299 -0.5898 -1.1434  1.0882
12537TIP3    H259027   0.079   2.271   4.169 -0.3780  0.5198  0.0632
12538TIP3   OH259028   2.036   6.045   0.616  0.7546 -0.5189 -0.3791
12538TIP3    H159029   2.101   6.059   0.547  0.3118  1.9453 -0.3927
12538TIP3    H259030   1.958   6.015   0.571  1.0999 -1.0049 -0.6670
12539TIP3   OH259031   0.906   4.394   5.442  0.4003  0.1903  0.0981
12539TIP3    H159032   0.962   4.323   5.471  3.3707  2.6586  0.9496
12539TIP3    H259033   0.841   4.403   5.512 -2.0119 -3.3734 -1.3799
12540TIP3   OH259034   5.553   5.508   4.241 -0.3080  0.3607  0.1239
12540TIP3    H159035   5.481   5.516   4.304 -0.9781 -1.8882 -0.2773
12540TIP3    H259036   5.582   5.417   4.248  0.6120  0.4533 -1.7317
12541TIP3   OH259037   3.618   1.381   3.774  0.8083 -0.1611  0.7898
12541TIP3    H159038   3.680   1.348   3.708  0.6995  0.3132  0.4425
12541TIP3    H259039   3.536   1.392   3.725  1.5176  3.3347  0.1340
12542TIP3   OH259040   6.310   1.537  17.114 -0.5387  0.1687 -0.7103
12542TIP3    H159041   6.358   1.568  17.037 -0.6644  0.9765 -0.4734
12542TIP3    H259042   6.229   1.500  17.079 -0.2207 -0.2515 -1.0258
12543TIP3   OH259043   6.790   2.916  11.042 -0.2433 -0.1960 -0.0421
12543TIP3    H159044   6.802   2.982  10.974 -0.4577  1.8183  1.7502
12543TIP3    H259045   6.806   2.833  10.998 -0.9304  0.9453 -2.6613
12544TIP3   OH259046   0.238   5.477   0.578 -0.1709  0.2504 -0.3603
12544TIP3    H159047   0.173   5.407   0.570  0.5135 -0.4458 -0.0360
12544TIP3    H259048   0.253   5.507   0.488  1.9587 -2.3351 -0.9972
12545TIP3   OH259049   3.559   4.509   0.743  0.5654  0.2509  0.4908
12545TIP3    H159050   3.563   4.414   0.731 -0.2939  0.2571  0.1085
12545TIP3    H259051   3.534   4.543   0.657 -0.1566  0.7350  0.8822
12546TIP3   OH259052   2.401   0.448  12.981  0.2326  0.1083  0.2835
12546TIP3    H159053   2.482   0.447  13.031 -0.3313  1.4284  1.2697
12546TIP3    H259054   2.409   0.372  12.922  1.7623 -0.3243  0.9839
12547TIP3   OH259055   4.945   3.083   3.948 -0.0668  0.4682  0.3948
12547TIP3    H159056   5.001   3.079   4.026 -0.4247  0.0867  0.6340
12547TIP3    H259057   4.964   3.002   3.900  0.7693  1.0836 -0.3503
12548TIP3   OH259058   3.074   2.403   1.493  0.5038 -0.0840 -0.1691
12548TIP3    H159059   3.082   2.312   1.520  1.7091 -0.6230 -2.1000
12548TIP3    H259060   3.037   2.399   1.404  0.4705  1.3038 -0.2430
12549TIP3   OH259061   3.803   6.387   5.211 -0.5609 -0.0569  0.5649
12549TIP3    H159062   3.767   6.444   5.144 -1.0029 -2.4323 -1.3711
12549TIP3    H259063   3.742   6.393   5.284 -1.5079  0.6465 -0.2639
12550TIP3   OH259064   2.538   2.219  14.406  0.7558 -0.7300 -0.4281
12550TIP3    H159065   2.621   2.246  14.365 -0.3248  2.1518 -0.9040
12550TIP3    H259066   2.494   2.301  14.428 -1.6537 -2.1843  0.5325
12551TIP3   OH259067   6.226   2.802   5.432  0.8492 -0.4219  0.2372
12551TIP3    H159068   6.157   2.850   5.386  0.7737 -1.9641 -1.3743
12551TIP3    H259069   6.218   2.831   5.523 -1.5572 -0.0888  0.0037
12552TIP3   OH259070   0.856   1.875   2.527 -0.0003 -0.8542  0.2871
12552TIP3    H159071   0.844   1.880   2.433  0.3688 -0.1493  0.2652
12552TIP3    H259072   0.922   1.942   2.546  1.5542 -2.4419  0.7692
12553TIP3   OH259073   3.110   0.919   6.077 -0.3627 -0.0368  0.3381
12553TIP3    H159074   3.117   0.981   6.004 -0.7213  0.9097  1.0814
12553TIP3    H259075   3.201   0.905   6.104 -0.3325  0.9378  0.7801
12554TIP3   OH259076   3.719   1.376  16.212 -0.3440  0.2099  0.1931
12554TIP3    H159077   3.736   1.464  16.180 -2.4167  0.5133 -0.2006
12554TIP3    H259078   3.800   1.328  16.197  1.6644  2.5814  2.5174
12555TIP3   OH259079   4.324   4.354  15.004 -0.2295 -0.0786 -0.8368
12555TIP3    H159080   4.377   4.404  15.067 -1.0834 -0.9457  0.6171
12555TIP3    H259081   4.374   4.359  14.923  1.4568  0.1994  0.1554
12556TIP3   OH259082   4.793   4.383   5.605  0.0517 -0.1154 -0.0339
12556TIP3    H159083   4.854   4.411   5.673  0.0537  1.4099 -0.6301
12556TIP3    H259084   4.715   4.353   5.653  0.2976  0.3291  0.6546
12557TIP3   OH259085   6.440   5.177  15.702  0.5336 -0.5582 -0.5138
12557TIP3    H159086   6.519   5.190  15.754 -0.8343  0.0623  1.5448
12557TIP3    H259087   6.470   5.132  15.623  3.1175  0.8968 -0.4680
12558TIP3   OH259088   0.357   1.406  16.145  0.0349 -0.2122 -0.5513
12558TIP3    H159089   0.447   1.398  16.177  0.3148 -0.1741 -1.3040
12558TIP3    H259090   0.319   1.319  16.159  1.2791 -1.3614 -3.3751
12559TIP3   OH259091   1.654   3.555   1.651  0.4528 -0.1460  0.1457
12559TIP3    H159092   1.748   3.565   1.661  0.2760  2.1169  0.0288
12559TIP3    H259093   1.643   3.517   1.564  1.2516  0.1685 -0.1031
12560TIP3   OH259094   4.679   3.732  11.683  0.4714 -0.0083 -0.0230
12560TIP3    H159095   4.689   3.822  11.654  1.0794 -0.1999 -0.4261
12560TIP3    H259096   4.761   3.712  11.730  0.1185 -0.1771  0.5342
12561TIP3   OH259097   2.725   5.761   6.006  0.1079  0.0513 -0.6501
12561TIP3    H159098   2.773   5.704   5.946  0.4181  0.1585 -0.5049
12561TIP3    H259099   2.790   5.789   6.070 -0.6426 -1.6432  0.9181
12562TIP3   OH259100   4.511   2.074  13.552  0.0911 -0.1782  0.2907
12562TIP3    H159101   4.573   2.024  13.605  0.5090 -0.2452 -0.2479
12562TIP3    H259102   4.455   2.118  13.616 -0.2019 -1.2237  0.7800
12563TIP3   OH259103   3.965   5.970  13.162 -0.4921  0.4401  0.1890
12563TIP3    H159104   3.967   5.884  13.120  0.6763 -0.6562  2.3343
12563TIP3    H259105   3.872   5.988  13.176 -0.7376 -0.5176 -0.1756
12564TIP3   OH259106   3.716   4.264   5.473 -0.1123  0.2280 -0.4327
12564TIP3    H159107   3.796   4.248   5.523 -0.0714  1.1754 -0.1811
12564TIP3    H259108   3.730   4.349   5.432 -0.8714  0.2698 -0.6216
12565TIP3   OH259109   1.605   1.846   1.538 -0.1286  0.1151  0.0924
12565TIP3    H159110   1.537   1.788   1.574 -3.0210  2.8990 -0.4102
12565TIP3    H259111   1.666   1.859   1.610  0.9831 -3.7740  0.0789
12566TIP3   OH259112   0.907   6.169  11.292 -0.3789 -0.0221 -0.3361
12566TIP3    H159113   0.955   6.093  11.325 -0.6166  0.1422  0.4168
12566TIP3    H259114   0.911   6.161  11.197  0.1781 -0.6102 -0.2709
12567TIP3   OH259115   5.111   1.122  10.873 -0.1470 -0.0520  0.1485
12567TIP3    H159116   5.078   1.212  10.872 -1.1930 -0.4307 -0.9307
12567TIP3    H259117   5.097   1.093  10.963 -0.4066  0.6471  0.3420
12568TIP3   OH259118   6.275   6.172  13.655 -0.4220  0.5636  0.8355
12568TIP3    H159119   6.295   6.249  13.707 -0.3776  1.3513 -0.3157
12568TIP3    H259120   6.351   6.162  13.597 -1.2015  0.6936 -0.2239
12569TIP3   OH259121   1.238   5.109   1.868 -0.0828 -0.1955 -0.6195
12569TIP3    H159122   1.254   5.014   1.862 -0.8579 -0.2803 -1.7123
12569TIP3    H259123   1.315   5.149   1.829  0.7502 -0.3180  0.8395
12570TIP3   OH259124   6.672   0.953   1.008  0.0665  0.1091 -0.3479
12570TIP3    H159125   6.719   1.033   0.986  0.2285  0.4700  1.2025
12570TIP3    H259126   6.695   0.936   1.100  0.4818 -2.0197 -0.7787
12571TIP3   OH259127   6.019   1.332   3.036  0.2458  0.0675 -0.2378
12571TIP3    H159128   5.993   1.416   3.074  0.1488 -0.6098  1.2677
12571TIP3    H259129   5.942   1.304   2.986 -0.6166 -0.2253  1.2062
12572TIP3   OH259130   1.793   6.678   5.237 -0.3539 -0.3228  0.8380
12572TIP3    H159131   1.722   6.733   5.271  0.2368  0.6759  0.4952
12572TIP3    H259132   1.821   6.721   5.157 -1.6872 -2.6312 -0.9914
12573TIP3   OH259133   0.942   5.653  12.260 -0.2407  0.0772  0.4915
12573TIP3    H159134   0.877   5.607  12.313  0.2290  0.4639  1.4477
12573TIP3    H259135   0.927   5.746  12.280 -1.2956  0.3909 -1.5389
12574TIP3   OH259136   0.526   0.371   0.494  0.2292 -0.0255 -0.2240
12574TIP3    H159137   0.442   0.413   0.511  0.2247  0.5676 -1.6164
12574TIP3    H259138   0.522   0.343   0.403  1.2839 -0.6160 -0.1132
12575TIP3   OH259139   0.092   4.984  11.479  0.2911 -0.5458 -0.4415
12575TIP3    H159140   0.140   4.909  11.513  0.0726 -0.2504  0.5444
12575TIP3    H259141   0.120   4.991  11.388  2.9323  0.2808  0.3576
12576TIP3   OH259142   3.694   3.129  13.419  0.1499 -0.1866  0.2320
12576TIP3    H159143   3.632   3.202  13.414 -0.4656 -0.6779  0.5796
12576TIP3    H259144   3.770   3.160  13.369 -0.3305  0.4602 -0.1326
12577TIP3   OH259145   6.586   4.630  11.775  0.9568  0.6090 -0.0543
12577TIP3    H159146   6.531   4.553  11.761  0.4493  0.9176  0.1919
12577TIP3    H259147   6.670   4.595  11.803  0.6197  0.1511  0.4136
12578TIP3   OH259148   4.332   5.478  11.754 -0.0525  0.2044 -0.5506
12578TIP3    H159149   4.259   5.454  11.697  0.9009 -1.0239 -1.2985
12578TIP3    H259150   4.332   5.411  11.823 -0.3221  0.8629  0.1020
12579TIP3   OH259151   2.080   0.707   5.978 -0.0193  0.0348 -0.0625
12579TIP3    H159152   2.081   0.616   6.005 -1.8945 -0.3066 -0.9849
12579TIP3    H259153   2.150   0.748   6.029 -1.3323 -1.1899  2.9620
12580TIP3   OH259154   5.045   3.959   1.661 -0.5431 -0.6388  0.1787
12580TIP3    H159155   4.990   3.956   1.739 -1.8353 -0.3621 -0.6829
12580TIP3    H259156   4.984   3.945   1.588  0.5358 -0.3335 -0.8194
12581TIP3   OH259157   6.154   3.452   0.460 -0.6762  0.4410  0.0905
12581TIP3    H159158   6.234   3.502   0.477 -1.2878  0.8801  1.9788
12581TIP3    H259159   6.149   3.391   0.534 -1.5315 -0.3359 -0.5915
12582TIP3   OH259160   1.152   2.029  10.919 -0.1541  0.2903  0.1291
12582TIP3    H159161   1.102   2.074  10.851  0.3979  1.3699  0.4193
12582TIP3    H259162   1.243   2.052  10.901 -0.0039  0.6067  1.2415
12583TIP3   OH259163   5.847   5.389  11.633  0.5849  0.5562 -0.3390
12583TIP3    H159164   5.936   5.378  11.667  0.3748 -0.2054 -0.0125
12583TIP3    H259165   5.854   5.372  11.539  0.4898 -1.3294 -0.0469
12584TIP3   OH259166   0.997   0.247  14.708 -0.2995  0.3580  0.4075
12584TIP3    H159167   0.939   0.288  14.643  0.0599  0.1945 -0.0257
12584TIP3    H259168   0.948   0.249  14.789 -1.9255 -1.9775 -0.4213
12585TIP3   OH259169   6.183   0.009  10.697 -0.2052 -0.0716  0.2926
12585TIP3    H159170   6.225  -0.049  10.632  0.8924  0.2893  0.6597
12585TIP3    H259171   6.138  -0.051  10.756 -0.7250 -0.4369 -0.4443
12586TIP3   OH259172   1.693   1.422   2.665  0.8756  0.5036  0.3839
12586TIP3    H159173   1.677   1.348   2.607 -1.3828  1.7773 -0.7290
12586TIP3    H259174   1.681   1.499   2.610 -1.4388  1.7809  2.4707
12587TIP3   OH259175   1.103   6.703  11.726  0.0775  0.2700 -0.1940
12587TIP3    H159176   1.180   6.759  11.721 -0.4296  1.4310  2.7903
12587TIP3    H259177   1.129   6.633  11.786 -1.0145  0.4132  0.4740
12588TIP3   OH259178   4.893   2.907  14.794  0.2268 -0.1140  0.0755
12588TIP3    H159179   4.885   2.824  14.842  2.4500 -0.6604 -0.4181
12588TIP3    H259180   4.846   2.892  14.712 -0.6840 -0.3326  0.6154
12589TIP3   OH259181   1.873   1.017   3.621 -0.5143 -0.0076  0.0015
12589TIP3    H159182   1.937   0.953   3.651 -1.5381 -0.6436  0.9369
12589TIP3    H259183   1.798   1.004   3.679 -1.5787  0.5477 -1.1955
12590TIP3   OH259184   1.598   1.039   0.655  0.2343 -0.1067  0.6416
12590TIP3    H159185   1.646   1.122   0.656 -2.1580  1.5247 -2.1237
12590TIP3    H259186   1.528   1.051   0.719  0.4736 -0.3804  0.9532
12591TIP3   OH259187   2.512   3.959   0.133  0.2354  0.2580  0.7719
12591TIP3    H159188   2.553   3.931   0.051  0.0523 -2.1562  1.4383
12591TIP3    H259189   2.586   3.970   0.193  0.2333  0.0628  0.8124
12592TIP3   OH259190   5.196   3.706   1.639  0.4083  0.2878 -0.3502
12592TIP3    H159191   5.132   3.644   1.674 -1.1534  2.4950  0.9423
12592TIP3    H259192   5.165   3.792   1.667  2.7332  1.6699 -1.6393
12593TIP3   OH259193   1.300   0.919   5.622  0.7092  0.1410  0.7191
12593TIP3    H159194   1.339   0.835   5.597  0.7060  0.0464  1.0281
12593TIP3    H259195   1.246   0.899   5.698  0.8021  0.4444  0.8688
12594TIP3   OH259196   0.869   3.063  15.345 -0.1703 -0.1480 -0.1903
12594TIP3    H159197   0.872   3.039  15.253 -0.2552 -0.3279 -0.1472
12594TIP3    H259198   0.937   3.130  15.355  0.3993 -0.7137 -0.2139
12595TIP3   OH259199   6.591   0.845   0.115  0.4487 -0.0272 -0.4039
12595TIP3    H159200   6.521   0.804   0.063 -0.4768 -1.4096  1.7987
12595TIP3    H259201   6.626   0.774   0.169  3.1061  0.8011 -0.8870
12596TIP3   OH259202   1.742   1.020   0.253 -0.0422  0.0975  0.4177
12596TIP3    H159203   1.682   0.995   0.183 -0.4454 -0.9507  1.1273
12596TIP3    H259204   1.825   1.038   0.208 -0.4102 -0.1522 -0.3714
12597TIP3   OH259205   3.492   3.976  12.519  0.4528 -0.5506 -1.0854
12597TIP3    H159206   3.468   3.899  12.467  1.1786 -1.9087  0.4770
12597TIP3    H259207   3.586   3.966  12.535  0.7039  1.0407 -1.4145
12598TIP3   OH259208   0.617   4.778  14.230 -0.2365 -0.2489  0.1878
12598TIP3    H159209   0.532   4.810  14.200 -0.2953  0.0957  0.7075
12598TIP3    H259210   0.610   4.779  14.325  0.6473  0.6030  0.2490
12599TIP3   OH259211   5.066   5.917  16.012  0.4498 -0.0541 -0.0386
12599TIP3    H159212   5.100   5.828  16.015 -1.1227 -0.6581  1.1303
12599TIP3    H259213   5.010   5.924  16.090  1.4970  2.3563  0.5790
12600TIP3   OH259214   4.913   0.099  14.186  0.3515 -0.3883  0.0866
12600TIP3    H159215   4.872   0.157  14.250  0.5938 -2.1727  1.9469
12600TIP3    H259216   4.931   0.156  14.111 -2.4440  1.1883  0.4603
12601TIP3   OH259217   1.483   5.556   5.441 -0.0625  0.3666  0.4996
12601TIP3    H159218   1.399   5.543   5.396 -0.3350  3.0899  0.0351
12601TIP3    H259219   1.508   5.469   5.471 -0.7590 -1.3412 -3.3286
12602TIP3   OH259220   3.542   1.791  12.499 -0.0108 -0.2039  0.2638
12602TIP3    H159221   3.511   1.716  12.548  1.2399  0.1024  1.5815
12602TIP3    H259222   3.476   1.859  12.514  0.0352 -0.3159  0.9961
12603TIP3   OH259223   3.495   4.616  14.500  0.6052  0.5272 -0.0674
12603TIP3    H159224   3.509   4.687  14.438  0.0995  0.2765 -0.4787
12603TIP3    H259225   3.403   4.625  14.526  1.0647  1.2606  1.4520
12604TIP3   OH259226   5.581   1.081  12.906  0.3726 -0.0167 -0.2294
12604TIP3    H159227   5.639   1.058  12.833  0.7809  0.8499 -0.1835
12604TIP3    H259228   5.521   1.146  12.869 -1.0931 -1.4548 -0.4961
12605TIP3   OH259229   2.301   4.574  12.033  0.7465 -0.2008 -0.2087
12605TIP3    H159230   2.296   4.487  11.993  1.1792  0.5456 -1.9542
12605TIP3    H259231   2.224   4.620  11.999 -0.0412 -0.1657  1.4893
12606TIP3   OH259232   2.046   1.819  13.512  0.0587  0.1863 -0.1874
12606TIP3    H159233   2.026   1.727  13.493  2.4450 -0.3394 -0.4765
12606TIP3    H259234   2.038   1.826  13.607  1.7828 -0.8929  0.0821
12607TIP3   OH259235   0.024   0.909  10.818  0.1229 -1.0637  0.0587
12607TIP3    H159236   0.077   0.854  10.875  0.9281 -0.2738  0.0888
12607TIP3    H259237   0.087   0.956  10.763 -0.3632  1.5431  1.5850
12608TIP3   OH259238   5.862   4.295   2.992  0.3753 -0.7356  0.1210
12608TIP3    H159239   5.826   4.274   2.906 -3.9567 -0.7107  1.6919
12608TIP3    H259240   5.907   4.215   3.020  0.0488 -1.4488 -1.2940
12609TIP3   OH259241   0.076   0.294   5.965 -0.5855 -0.2417 -0.4133
12609TIP3    H159242   0.132   0.232   6.011 -0.5159  0.6579  0.7616
12609TIP3    H259243   0.122   0.378   5.973 -1.8257  0.4132  0.1250
12610TIP3   OH259244   1.422   1.407   0.176 -0.5044  0.6717 -0.3457
12610TIP3    H159245   1.396   1.402   0.268  0.0444  0.1586 -0.2043
12610TIP3    H259246   1.374   1.337   0.133  2.8669 -2.4810  0.5229
12611TIP3   OH259247   0.538   2.133  16.841 -0.2869  0.3820 -0.1923
12611TIP3    H159248   0.558   2.227  16.845 -0.9129  0.5202 -0.1543
12611TIP3    H259249   0.584   2.102  16.763 -0.6074  0.8536 -0.5776
12612TIP3   OH259250   2.180   5.416   5.264  0.2402 -0.0508  0.7031
12612TIP3    H159251   2.265   5.374   5.251 -0.7691 -2.3101  0.8828
12612TIP3    H259252   2.121   5.370   5.203 -0.6838  2.2012 -0.2432
12613TIP3   OH259253   1.428   4.365  12.148  0.1231  0.4864  0.0545
12613TIP3    H159254   1.418   4.435  12.212 -3.0197  0.0777  0.1729
12613TIP3    H259255   1.440   4.409  12.064  2.9951  1.0319  0.6621
12614TIP3   OH259256   6.614   0.139  13.787  0.2873  0.5359 -0.0672
12614TIP3    H159257   6.695   0.149  13.837  0.1998  0.9913 -0.0191
12614TIP3    H259258   6.547   0.123  13.853  0.6679 -2.0921 -0.2049
12615TIP3   OH259259   2.406   3.374  16.311 -0.0713 -0.2100  0.0169
12615TIP3    H159260   2.435   3.344  16.398  1.4820 -1.5003 -0.8853
12615TIP3    H259261   2.478   3.429  16.280 -1.9873  2.9343  0.7740
12616TIP3   OH259262   4.110   1.505  16.760 -0.4349 -0.3822 -0.4810
12616TIP3    H159263   4.163   1.507  16.680  0.4163  0.5863  0.0829
12616TIP3    H259264   4.153   1.567  16.819  0.1350 -2.4980  1.4954
12617TIP3   OH259265   5.162   6.056   3.834 -0.3534  0.1986  0.4199
12617TIP3    H159266   5.162   6.031   3.742 -2.2082  2.0075 -0.1420
12617TIP3    H259267   5.109   5.989   3.877  1.6449 -1.4451  0.5128
12618TIP3   OH259268   5.562   6.150   2.443 -0.5077 -0.3736 -0.0827
12618TIP3    H159269   5.619   6.130   2.517 -0.5974  0.1777  0.1440
12618TIP3    H259270   5.618   6.144   2.366 -0.7247 -2.3353 -0.1288
12619TIP3   OH259271   1.974   5.050  13.452 -0.0024  0.3013  0.2144
12619TIP3    H159272   1.888   5.067  13.414 -0.1284  1.3420  0.9282
12619TIP3    H259273   1.970   5.090  13.539  0.7081 -0.9200  0.8429
12620TIP3   OH259274   6.757   6.567  15.762  0.0322  0.1070  0.3158
12620TIP3    H159275   6.668   6.545  15.736  0.8037 -0.8972 -1.7365
12620TIP3    H259276   6.766   6.530  15.850 -1.3786 -0.3009  0.3111
12621TIP3   OH259277   2.451   5.984   5.389 -0.4064  0.0640  0.6348
12621TIP3    H159278   2.445   6.059   5.330 -0.8173 -0.1104  0.4563
12621TIP3    H259279   2.452   6.022   5.477 -1.7871  0.2322  0.5980
12622TIP3   OH259280   4.950   1.910   3.734  0.3506  0.2841 -0.3945
12622TIP3    H159281   5.021   1.853   3.708  0.2726 -0.8486  1.6852
12622TIP3    H259282   4.972   1.995   3.696  2.3470 -0.2501 -0.5112
12623TIP3   OH259283   3.367   5.569   1.033  0.2971  0.0197  0.4005
12623TIP3    H159284   3.452   5.526   1.046  0.2522  0.0629  0.8267
12623TIP3    H259285   3.388   5.647   0.981  0.6015  0.3532  1.0192
12624TIP3   OH259286   3.747   5.679  17.167 -0.5078 -0.2530 -0.2194
12624TIP3    H159287   3.762   5.606  17.107 -0.6950  0.6675 -1.4262
12624TIP3    H259288   3.809   5.746  17.140 -1.8503  0.8902 -0.6269
12625TIP3   OH259289   3.388   3.236   0.081 -0.2578 -0.1175 -0.0313
12625TIP3    H159290   3.425   3.148   0.082  1.6267  0.6366 -0.5558
12625TIP3    H259291   3.379   3.259   0.173 -1.1061 -0.9518  0.1220
12626TIP3   OH259292   5.261   2.847   1.462 -0.1730  0.2905  0.9521
12626TIP3    H159293   5.318   2.808   1.528  0.6223  1.6448  1.1074
12626TIP3    H259294   5.294   2.812   1.379  0.0087  0.0170  1.1373
12627TIP3   OH259295   4.052   5.699  15.310 -0.7088 -0.2227 -0.3308
12627TIP3    H159296   4.111   5.722  15.239 -1.3618 -0.6568 -1.0234
12627TIP3    H259297   4.088   5.745  15.386  1.3440 -1.5738 -0.3824
12628TIP3   OH259298   5.577   2.626  16.097 -0.2457  0.1244 -0.0133
12628TIP3    H159299   5.658   2.576  16.090 -0.5784 -0.6415  1.1878
12628TIP3    H259300   5.517   2.583  16.036  0.0301  0.2321 -0.3608
12629TIP3   OH259301   3.622   2.710   1.705  1.1237 -0.3319 -0.0742
12629TIP3    H159302   3.602   2.800   1.680  3.7249 -0.0014 -1.2597
12629TIP3    H259303   3.536   2.672   1.727 -0.1004  2.2426 -0.0222
12630TIP3   OH259304   4.116   2.105   6.319 -0.7356 -0.3232  0.6918
12630TIP3    H159305   4.204   2.138   6.333 -0.5970 -0.4157  0.0886
12630TIP3    H259306   4.071   2.117   6.403 -0.4051  0.5174  0.7554
12631TIP3   OH259307   3.727   4.026   0.081  0.3347  0.7002  0.1419
12631TIP3    H159308   3.761   3.985   0.161  0.5394  2.2209  0.8583
12631TIP3    H259309   3.769   3.978   0.010  2.1039  0.9480  0.9816
12632TIP3   OH259310   1.553   1.821   2.995 -0.3864  0.2116 -0.4077
12632TIP3    H159311   1.477   1.763   3.000  0.1063 -0.4788 -0.7561
12632TIP3    H259312   1.581   1.815   2.904 -0.8305  1.6600 -0.6566
12633TIP3   OH259313   5.034   4.008   4.981  0.4002 -0.2269  0.6489
12633TIP3    H159314   4.981   4.006   4.901  0.3904 -2.0015  0.6772
12633TIP3    H259315   5.013   4.092   5.021  1.6310  1.4939 -2.0098
12634TIP3   OH259316   4.910   4.240   0.176 -0.2437  0.5887 -0.1012
12634TIP3    H159317   4.941   4.322   0.213  1.5439 -1.0331  2.2905
12634TIP3    H259318   4.923   4.250   0.081  3.3304  1.8426  0.3662
12635TIP3   OH259319   1.831   3.824  16.414 -0.3779 -0.4907 -0.0632
12635TIP3    H159320   1.867   3.913  16.413  1.6744 -1.2330  0.6699
12635TIP3    H259321   1.821   3.803  16.507 -0.3056 -1.2020 -0.2093
12636TIP3   OH259322   3.369   5.052  13.885  0.4111 -0.0072 -0.0530
12636TIP3    H159323   3.347   4.971  13.931 -0.4897 -0.5291 -1.3332
12636TIP3    H259324   3.460   5.039  13.856  0.6309 -0.1048  0.6671
12637TIP3   OH259325   0.971   5.648  11.621  0.3676  0.2182  0.0863
12637TIP3    H159326   1.058   5.657  11.581 -0.1656  0.0198 -1.1587
12637TIP3    H259327   0.912   5.634  11.547 -0.3620 -2.6275  1.0784
12638TIP3   OH259328   0.861   0.564  14.677 -0.2626 -0.2814  0.1514
12638TIP3    H159329   0.926   0.573  14.746  0.0455  0.0933 -0.1776
12638TIP3    H259330   0.781   0.602  14.713 -0.1874 -0.3767  0.4154
12639TIP3   OH259331   3.357   4.872  12.457  0.5137  0.1334 -0.6333
12639TIP3    H159332   3.417   4.798  12.468 -0.1907 -0.2891  0.4278
12639TIP3    H259333   3.270   4.835  12.464  0.1270  1.2958  1.9451
12640TIP3   OH259334   5.456   5.497  13.986 -0.2291  0.2544 -0.3787
12640TIP3    H159335   5.417   5.584  13.991 -0.7970  0.0113 -0.5505
12640TIP3    H259336   5.392   5.445  13.939  0.2209 -0.1973 -0.4920
12641TIP3   OH259337   4.388   1.869   5.486  0.2688 -0.3914  0.0081
12641TIP3    H159338   4.458   1.887   5.423 -0.4445 -1.0817 -1.0388
12641TIP3    H259339   4.307   1.891   5.439 -0.3723 -2.2635  0.1306
12642TIP3   OH259340   2.298   3.118  14.545 -0.3493 -0.0054  0.5114
12642TIP3    H159341   2.341   3.203  14.544  0.6366 -0.4499 -1.4986
12642TIP3    H259342   2.212   3.135  14.505 -0.5579  0.2012  1.0333
12643TIP3   OH259343   2.206   0.023   2.477  0.3977  0.0859 -0.2763
12643TIP3    H159344   2.190   0.104   2.428 -0.9444  0.1677  0.2578
12643TIP3    H259345   2.300   0.026   2.498  0.7435  0.6241 -1.7749
12644TIP3   OH259346   6.645   0.014  15.437 -0.3329 -0.4063 -0.1271
12644TIP3    H159347   6.667  -0.067  15.390 -1.0349 -0.6951  0.0331
12644TIP3    H259348   6.631  -0.014  15.527  2.9776  0.4125  0.7943
12645TIP3   OH259349   0.009   2.410   4.897 -0.1905  0.2209 -0.5127
12645TIP3    H159350  -0.047   2.375   4.966  2.7816 -0.9135  1.4813
12645TIP3    H259351   0.015   2.504   4.917  0.5776 -0.0817  0.7961
12646TIP3   OH259352   4.224   1.525   0.857 -0.2556  0.5313  0.5509
12646TIP3    H159353   4.257   1.514   0.767 -2.4313 -1.4152 -0.0915
12646TIP3    H259354   4.153   1.461   0.865 -0.3006  0.8201  3.6130
12647TIP3   OH259355   4.896   1.660  12.822 -0.0412 -0.0616 -0.1098
12647TIP3    H159356   4.894   1.725  12.751 -1.1133 -1.2425 -1.2090
12647TIP3    H259357   4.824   1.601  12.803 -0.5656 -0.2623  2.1668
12648TIP3   OH259358   5.082   1.706  15.188 -0.3291  0.2438  0.3536
12648TIP3    H159359   5.155   1.659  15.227  0.9855  2.6142  0.9701
12648TIP3    H259360   5.107   1.719  15.097 -0.9688 -0.7379  0.0285
12649TIP3   OH259361   2.067   6.578   2.418 -0.4832 -0.1133  0.1782
12649TIP3    H159362   2.107   6.537   2.342  0.4218  0.0072  0.5768
12649TIP3    H259363   2.108   6.664   2.424  0.7114 -0.7267  1.7428
12650TIP3   OH259364   5.554   3.373  12.114 -0.2248 -0.1295  0.2744
12650TIP3    H159365   5.581   3.319  12.189  0.1214 -1.8161 -1.0044
12650TIP3    H259366   5.550   3.462  12.149  2.6485 -0.4166  1.6662
12651TIP3   OH259367   2.824   6.698   2.157  0.9122  0.0813 -0.5252
12651TIP3    H159368   2.747   6.659   2.117  0.1946 -0.1771  1.0412
12651TIP3    H259369   2.800   6.710   2.249  2.6903  0.1054 -0.0249
12652TIP3   OH259370   4.480   0.335  15.591  0.0425  0.1096  0.3093
12652TIP3    H159371   4.513   0.246  15.601 -1.9888 -0.8853 -1.1442
12652TIP3    H259372   4.412   0.343  15.658  0.9528  0.9955  1.1605
12653TIP3   OH259373   0.193   2.576   0.307 -0.7866 -0.3442 -0.2833
12653TIP3    H159374   0.187   2.516   0.381 -0.4729 -1.0832 -0.8421
12653TIP3    H259375   0.286   2.583   0.289 -0.9054 -0.7878 -1.1001
12654TIP3   OH259376   0.647   3.757  17.171 -0.2346 -0.0148 -0.3197
12654TIP3    H159377   0.569   3.728  17.218 -0.3055  1.7992  0.7834
12654TIP3    H259378   0.707   3.787  17.239  0.5517  0.6226 -1.2639
12655TIP3   OH259379   5.941   4.160   0.134 -0.1288  0.0781 -0.4211
12655TIP3    H159380   6.031   4.150   0.103 -0.5089 -1.9630 -1.0198
12655TIP3    H259381   5.948   4.218   0.210  1.6564  0.1169 -0.5663
12656TIP3   OH259382   3.404   5.837   0.610  0.0864  0.2760  0.3362
12656TIP3    H159383   3.346   5.852   0.535 -2.0057  0.4716  1.9026
12656TIP3    H259384   3.463   5.913   0.610  0.4044  0.0792 -1.2948
12657TIP3   OH259385   3.704   6.165  14.725 -0.1910  0.0156  0.4012
12657TIP3    H159386   3.700   6.104  14.651 -2.4727  1.5298 -0.8489
12657TIP3    H259387   3.757   6.238  14.693 -2.1033  1.1952 -0.2751
12658TIP3   OH259388   4.609   6.302  15.856  0.2607  0.1727 -0.1479
12658TIP3    H159389   4.625   6.262  15.771 -1.7019  0.5533 -0.7401
12658TIP3    H259390   4.691   6.347  15.878  1.1175 -0.7491 -1.3533
12659TIP3   OH259391   5.097   1.083  12.233 -0.6919  0.0229 -0.1000
12659TIP3    H159392   5.099   1.033  12.314 -2.9370 -2.2549 -1.3134
12659TIP3    H259393   5.177   1.057  12.187 -0.3016 -0.0405  0.6038
12660TIP3   OH259394   4.714   2.402   3.040  0.6516  0.4294  0.1352
12660TIP3    H159395   4.729   2.310   3.016  0.0570  0.3999 -0.1359
12660TIP3    H259396   4.686   2.444   2.959  1.1809  0.9166  0.1982
12661TIP3   OH259397   4.805   1.461  16.789  0.0365  0.7666  0.2065
12661TIP3    H159398   4.804   1.504  16.875  2.5161 -0.3510  0.8606
12661TIP3    H259399   4.825   1.370  16.807  0.5763  0.4891 -1.5657
12662TIP3   OH259400   6.188   2.409  11.223 -0.1693 -0.1423  0.5456
12662TIP3    H159401   6.179   2.318  11.193  1.8221 -0.5419  1.0048
12662TIP3    H259402   6.220   2.457  11.147 -0.1659 -0.0672  0.5944
12663TIP3   OH259403   0.732   5.831  16.690  0.5581 -0.6571  0.3063
12663TIP3    H159404   0.782   5.867  16.764  1.0850 -1.0963  0.1771
12663TIP3    H259405   0.756   5.886  16.616 -1.9454  1.4475  0.9059
12664TIP3   OH259406   3.471   5.741  11.666  0.1345 -0.5512 -0.2540
12664TIP3    H159407   3.532   5.695  11.609 -0.6598 -1.2954 -0.5314
12664TIP3    H259408   3.523   5.768  11.741  0.9634 -0.4876 -0.8373
12665TIP3   OH259409   0.065   3.979  14.494  0.2946  0.3275 -0.2165
12665TIP3    H159410   0.144   4.007  14.449  1.5669 -1.2669  0.9029
12665TIP3    H259411   0.037   4.056  14.544  0.0458  1.4590 -2.0160
12666TIP3   OH259412   2.750   3.772  13.523  0.0519 -0.0435 -0.4318
12666TIP3    H159413   2.734   3.866  13.520  1.5691  0.2376 -1.1196
12666TIP3    H259414   2.825   3.759  13.464 -0.2220 -1.7039 -0.4730
12667TIP3   OH259415   0.562   3.235  11.011  0.2277  0.1147 -0.3495
12667TIP3    H159416   0.607   3.153  10.995 -1.2637 -1.0203  0.9575
12667TIP3    H259417   0.622   3.286  11.065  0.2464 -1.0945  0.8152
12668TIP3   OH259418   3.985   1.964   1.285  0.2864 -0.4881 -0.3603
12668TIP3    H159419   3.960   1.967   1.377  1.2680 -1.2087 -0.0447
12668TIP3    H259420   4.036   2.044   1.272  2.7147 -1.7802  0.5654
12669TIP3   OH259421   4.102   2.255   3.813 -0.2398  0.1003  0.0902
12669TIP3    H159422   4.194   2.254   3.837 -0.5897  3.0949  2.0860
12669TIP3    H259423   4.101   2.281   3.721  0.9048  2.2032  0.6294
12670TIP3   OH259424   4.267   2.001   5.035  0.3856 -0.1545  0.1151
12670TIP3    H159425   4.208   1.981   4.963  0.7565 -0.3518 -0.1388
12670TIP3    H259426   4.325   1.925   5.041  1.0923  0.3556 -0.1302
12671TIP3   OH259427   5.397   2.642  16.958  0.1788  0.3857  0.0069
12671TIP3    H159428   5.339   2.716  16.973 -0.5166 -0.1847  0.2170
12671TIP3    H259429   5.407   2.601  17.044  2.0316  1.2673  0.2458
12672TIP3   OH259430   3.303   0.357   1.302 -0.1565 -0.1015 -0.2509
12672TIP3    H159431   3.375   0.419   1.309 -0.0654 -0.0277 -1.5353
12672TIP3    H259432   3.340   0.281   1.258 -0.7916 -0.1497 -0.7308
12673TIP3   OH259433   1.842   6.174   0.142 -0.4802 -0.2736  0.8931
12673TIP3    H159434   1.842   6.082   0.170  2.0650  0.1319  2.6099
12673TIP3    H259435   1.753   6.204   0.159 -1.4908 -2.5072 -0.1175
12674TIP3   OH259436   3.081   1.882   1.887  0.3149  0.2762 -0.3699
12674TIP3    H159437   3.016   1.950   1.866 -0.2605 -0.3251 -0.5605
12674TIP3    H259438   3.164   1.929   1.889 -0.3203  1.4159  1.6997
12675TIP3   OH259439   0.975   2.442  10.567 -0.7058 -0.1853 -0.9357
12675TIP3    H159440   0.889   2.478  10.544 -0.6647 -0.0408 -0.8656
12675TIP3    H259441   1.027   2.519  10.593 -0.3727 -0.1978 -1.5490
12676TIP3   OH259442   0.240   4.989  11.243 -0.5652  0.2548  0.1143
12676TIP3    H159443   0.278   4.907  11.212 -0.3224 -0.1856  1.5249
12676TIP3    H259444   0.311   5.052  11.239 -1.0093  0.6948 -1.9447
12677TIP3   OH259445   2.164   0.998   2.771  0.3343 -0.0825  0.4047
12677TIP3    H159446   2.156   0.972   2.862 -0.5400 -0.7095  0.1646
12677TIP3    H259447   2.231   0.939   2.735 -0.6721 -1.1301  0.1963
12678TIP3   OH259448   2.696   0.328  11.308  0.0258 -0.6933  0.3935
12678TIP3    H159449   2.642   0.259  11.345  2.0168 -2.4973  0.0838
12678TIP3    H259450   2.656   0.348  11.224 -0.5782 -1.4449  0.5002
12679TIP3   OH259451   5.125   3.554   2.356 -0.2147  0.3941  0.0677
12679TIP3    H159452   5.117   3.460   2.340 -0.6236  0.6670 -1.4780
12679TIP3    H259453   5.197   3.561   2.419  1.6956 -0.7934 -1.8636
12680TIP3   OH259454   0.149   4.552   3.096 -0.4541  0.0593  0.2408
12680TIP3    H159455   0.234   4.575   3.135 -0.3007 -1.4108  0.8319
12680TIP3    H259456   0.146   4.604   3.015  0.1065  1.6440  1.1936
12681TIP3   OH259457   1.218   3.536   4.007 -0.2965 -0.0935 -0.0112
12681TIP3    H159458   1.264   3.462   3.969  1.4887  0.9874 -0.0536
12681TIP3    H259459   1.197   3.593   3.933  1.0392  0.8565  0.3018
12682TIP3   OH259460   3.699   2.473   3.961 -0.6764  0.2678  0.7521
12682TIP3    H159461   3.773   2.414   3.949 -1.6812 -1.0009  0.5454
12682TIP3    H259462   3.715   2.514   4.046 -0.1862 -0.6652  1.1250
12683TIP3   OH259463   2.818   3.366  16.052 -0.2081 -0.2688 -0.4451
12683TIP3    H159464   2.846   3.326  16.135  0.0659 -0.1935 -0.4987
12683TIP3    H259465   2.732   3.403  16.070  0.1572  0.3755  0.0059
12684TIP3   OH259466   2.004   4.459  13.200 -0.3567  0.2803 -0.3223
12684TIP3    H159467   2.001   4.516  13.277 -0.7336 -2.5551  1.9398
12684TIP3    H259468   2.096   4.456  13.176 -0.0254  0.2153  0.8870
12685TIP3   OH259469   1.779   0.648  16.769  0.2872  0.4498  0.1731
12685TIP3    H159470   1.826   0.615  16.692  0.5986  0.9836  0.1268
12685TIP3    H259471   1.815   0.597  16.842  0.5093  0.4415  0.0598
12686TIP3   OH259472   4.115   4.406  14.759 -0.1227  0.3919  0.4359
12686TIP3    H159473   4.119   4.494  14.723 -1.1179  0.2972  0.0812
12686TIP3    H259474   4.181   4.405  14.829  1.1735  0.8585 -0.7472
12687TIP3   OH259475   3.765   3.846   0.930  0.2784  0.0639  0.2102
12687TIP3    H159476   3.713   3.833   0.851 -0.4500 -0.3516  0.7420
12687TIP3    H259477   3.856   3.846   0.900 -0.0172  0.5661 -0.7016
12688TIP3   OH259478   1.920   2.693   1.340  0.0454  0.1477  0.9412
12688TIP3    H159479   1.886   2.735   1.419  0.2075  0.4107  0.8717
12688TIP3    H259480   1.879   2.607   1.339  1.0624 -0.3672  2.0085
12689TIP3   OH259481   0.717   2.589  12.057  0.2789  0.1130 -0.2611
12689TIP3    H159482   0.783   2.537  12.103  0.9657  1.0674 -0.1425
12689TIP3    H259483   0.722   2.559  11.966  0.8468  0.1458 -0.2456
12690TIP3   OH259484   1.895   5.035   5.679  0.4351  0.4161 -0.2091
12690TIP3    H159485   1.970   5.014   5.736  0.0218 -3.6305 -0.8563
12690TIP3    H259486   1.932   5.035   5.590 -0.0587 -0.4410 -0.4332
12691TIP3   OH259487   0.286   3.701   0.686  0.4772 -0.2911 -0.1157
12691TIP3    H159488   0.223   3.757   0.731  0.2251 -0.0538 -0.7596
12691TIP3    H259489   0.243   3.616   0.682  0.0537 -0.0485 -0.8467
12692TIP3   OH259490   0.134   1.891  16.559  0.2513 -0.3942 -0.3381
12692TIP3    H159491   0.202   1.839  16.602  0.9138  0.7759  0.0532
12692TIP3    H259492   0.076   1.825  16.519  0.4088 -1.4656  1.1105
12693TIP3   OH259493   6.285   3.290  15.943  0.0406  0.9684 -0.4544
12693TIP3    H159494   6.380   3.297  15.931  0.1849 -0.8366 -0.6031
12693TIP3    H259495   6.274   3.260  16.033 -0.0545 -3.4188 -1.7224
12694TIP3   OH259496   2.620   3.421   2.160 -0.0382 -0.1773  0.0521
12694TIP3    H159497   2.625   3.366   2.239 -0.0140  1.7490  1.4594
12694TIP3    H259498   2.679   3.379   2.098  1.5487 -0.6432  1.7802
12695TIP3   OH259499   5.699   4.578  14.833 -0.5248 -0.1313 -0.2426
12695TIP3    H159500   5.767   4.514  14.855  0.0759  0.0116 -1.5807
12695TIP3    H259501   5.618   4.538  14.865  0.1511 -0.3360  1.3219
12696TIP3   OH259502   3.668   2.840   5.847  0.7239  0.1493 -0.1172
12696TIP3    H159503   3.663   2.925   5.890  0.7076 -0.2101  0.6207
12696TIP3    H259504   3.582   2.801   5.860  0.7767 -0.0371 -0.3234
12697TIP3   OH259505   5.211   6.300   1.743  0.5880  0.0103 -0.1755
12697TIP3    H159506   5.277   6.282   1.676  0.8997  2.9103 -0.7568
12697TIP3    H259507   5.258   6.350   1.810 -0.6080  0.4374  0.3664
12698TIP3   OH259508   0.983   6.164  16.745  0.1840  0.1059 -0.4277
12698TIP3    H159509   1.071   6.147  16.712  1.2808  0.8370  1.9286
12698TIP3    H259510   0.950   6.236  16.692  1.0791 -0.0095 -1.1583
12699TIP3   OH259511   4.389   5.912   2.269  0.2680  0.5728 -0.1237
12699TIP3    H159512   4.317   5.866   2.224  1.1993  0.2775 -1.3727
12699TIP3    H259513   4.374   6.004   2.250  0.8482  0.4275 -1.3953
12700TIP3   OH259514   4.628   0.012  13.839  0.0693  0.2211  0.1463
12700TIP3    H159515   4.625  -0.042  13.761 -1.1633  1.7151 -0.8914
12700TIP3    H259516   4.701   0.073  13.824  0.4882 -0.1464  0.6370
12701TIP3   OH259517   2.210   6.375  13.919  0.5077  0.1795 -0.2111
12701TIP3    H159518   2.179   6.285  13.922 -0.8420  0.6449  1.6089
12701TIP3    H259519   2.290   6.371  13.866  0.4958 -2.0696 -0.1644
12702TIP3   OH259520   4.081   3.724   5.293  0.1332  0.3885 -0.0396
12702TIP3    H159521   4.000   3.702   5.339  0.4574  2.1759  1.5778
12702TIP3    H259522   4.061   3.712   5.201 -1.9383  0.6102  0.3238
12703TIP3   OH259523   3.881   1.680   1.258  0.0291  0.2712 -0.4504
12703TIP3    H159524   3.926   1.762   1.280 -0.0663  0.2904 -0.3242
12703TIP3    H259525   3.878   1.679   1.162 -1.1889  1.0876 -0.4365
12704TIP3   OH259526   3.032   1.119   1.151  0.0702 -0.4648  0.4393
12704TIP3    H159527   3.022   1.212   1.132 -1.2857 -0.1039  2.6092
12704TIP3    H259528   3.126   1.102   1.142  0.3321  1.0882  0.0174
12705TIP3   OH259529   6.044   4.764  16.173 -0.4094 -0.0508 -0.5043
12705TIP3    H159530   6.001   4.849  16.182  2.3870  1.7049 -2.3086
12705TIP3    H259531   5.972   4.701  16.173 -2.6500  2.3230  0.2513
12706TIP3   OH259532   6.251   1.063   3.795 -0.1146 -0.6537 -0.2327
12706TIP3    H159533   6.262   1.137   3.855  1.6320 -1.0048 -0.0614
12706TIP3    H259534   6.245   1.103   3.708  0.5127 -0.2817 -0.1107
12707TIP3   OH259535   6.097   6.357   3.156  0.0989 -0.2432  0.1317
12707TIP3    H159536   6.042   6.279   3.161 -0.6148  0.2598  0.1493
12707TIP3    H259537   6.042   6.428   3.189  1.2228  0.0307  1.5112
12708TIP3   OH259538   4.024   2.143  12.425 -0.8520  0.3478 -0.0718
12708TIP3    H159539   4.075   2.189  12.358 -1.6311  0.2818 -0.7202
12708TIP3    H259540   3.942   2.121  12.382 -1.0668 -0.3711  0.6789
12709TIP3   OH259541   1.656   0.428  14.943  0.3432  0.4783  0.0224
12709TIP3    H159542   1.729   0.480  14.976  1.8090 -2.4349  1.7099
12709TIP3    H259543   1.602   0.412  15.020 -0.7007  0.4167 -0.7071
12710TIP3   OH259544   5.809   2.186  13.870  0.3263  0.0096  0.7556
12710TIP3    H159545   5.793   2.207  13.778 -0.8355 -1.6235  0.5332
12710TIP3    H259546   5.760   2.251  13.920 -1.6896 -0.9487  0.1363
12711TIP3   OH259547   2.312   3.696  16.767  0.1368 -0.0472 -0.4792
12711TIP3    H159548   2.358   3.780  16.762  0.9711 -0.5376 -1.6666
12711TIP3    H259549   2.382   3.632  16.778 -0.2255 -0.7988 -2.1587
12712TIP3   OH259550   3.963   1.876  12.699  0.5477 -0.4651 -0.2142
12712TIP3    H159551   4.001   1.957  12.732 -1.9602  0.9334 -0.4949
12712TIP3    H259552   4.002   1.865  12.612  0.7196  0.6017 -0.2793
12713TIP3   OH259553   3.592   3.101  14.397  0.0690 -0.5163  0.1221
12713TIP3    H159554   3.602   3.019  14.348  0.1011  0.2972 -1.2820
12713TIP3    H259555   3.497   3.118  14.395  0.2243  0.3348 -1.0838
12714TIP3   OH259556   2.388   6.645   3.820 -0.1343 -0.4756 -0.9723
12714TIP3    H159557   2.401   6.714   3.886  0.5090 -1.4156 -0.0961
12714TIP3    H259558   2.468   6.593   3.824 -0.4354 -1.0218 -1.9373
12715TIP3   OH259559   2.295   4.008   4.814 -0.2459 -0.1066  0.3996
12715TIP3    H159560   2.386   4.037   4.813 -0.0696 -0.3038  2.9657
12715TIP3    H259561   2.245   4.088   4.832 -0.5664 -0.0720 -0.5860
12716TIP3   OH259562   4.317   2.444  13.529 -0.6940  0.0367 -0.3295
12716TIP3    H159563   4.266   2.364  13.524  0.8967 -1.0487  0.1471
12716TIP3    H259564   4.304   2.475  13.619  3.1038 -2.8697  1.5078
12717TIP3   OH259565   0.198   2.718   3.761  0.6991 -0.1557 -0.1116
12717TIP3    H159566   0.142   2.795   3.755  0.1238 -0.6398 -1.3484
12717TIP3    H259567   0.140   2.644   3.743  1.3050 -0.8653  0.7345
12718TIP3   OH259568   1.992   5.760   4.007 -0.0144 -0.4441 -0.7347
12718TIP3    H159569   1.958   5.720   3.927 -1.0213  1.1873 -1.1600
12718TIP3    H259570   2.067   5.812   3.978 -1.2252  1.2812 -0.8875
12719TIP3   OH259571   6.622   5.929  16.828 -0.1460 -0.2626 -0.1747
12719TIP3    H159572   6.579   5.960  16.748 -0.6368 -1.4672 -0.3825
12719TIP3    H259573   6.563   5.863  16.863  0.9353 -1.0360  0.2130
12720TIP3   OH259574   2.868   1.702  13.413  0.0007 -0.0459  0.5095
12720TIP3    H159575   2.836   1.708  13.323  0.8172 -0.7051  0.1634
12720TIP3    H259576   2.963   1.691  13.405  0.1477  0.3587  1.4678
12721TIP3   OH259577   0.365   6.763   0.231  0.5045  0.0527 -0.8122
12721TIP3    H159578   0.437   6.778   0.292  1.1441 -0.2047 -1.4830
12721TIP3    H259579   0.346   6.669   0.240 -0.2419  0.2602 -0.1157
12722TIP3   OH259580   1.793   0.472   3.775  0.0393  0.0551  0.3789
12722TIP3    H159581   1.860   0.516   3.827  0.3527 -0.4064  0.3795
12722TIP3    H259582   1.808   0.378   3.791  0.0950 -0.0895 -0.4706
12723TIP3   OH259583   3.583   1.367   0.489  0.1365  0.2368 -0.3238
12723TIP3    H159584   3.671   1.372   0.526  0.8893 -1.6575 -1.7005
12723TIP3    H259585   3.527   1.407   0.555  1.9068  0.7240  0.9684
12724TIP3   OH259586   6.379   5.861  15.287  0.4415 -0.3870  0.5634
12724TIP3    H159587   6.470   5.886  15.273  0.6108  0.2287  2.4534
12724TIP3    H259588   6.355   5.904  15.369 -1.8320  0.1486 -0.3163
12725TIP3   OH259589   2.819   0.044  17.049 -0.4545  0.0704 -0.2459
12725TIP3    H159590   2.750   0.046  16.982 -0.0686  1.4241 -0.6332
12725TIP3    H259591   2.886  -0.015  17.013 -0.3981  0.5360 -0.9208
12726TIP3   OH259592   0.577   4.610  15.898  0.6945 -0.1254  0.3569
12726TIP3    H159593   0.582   4.551  15.972  2.3936 -1.5052 -0.7772
12726TIP3    H259594   0.607   4.695  15.932  1.6606 -0.7850  1.2032
12727TIP3   OH259595   6.150   1.390   1.688  0.3353  0.1039  0.3137
12727TIP3    H159596   6.203   1.399   1.608  0.2496 -1.6313  0.0111
12727TIP3    H259597   6.062   1.416   1.661  0.5360  0.6661  0.1752
12728TIP3   OH259598   3.648   6.783  13.677 -0.2291 -0.3191  0.4116
12728TIP3    H159599   3.717   6.750  13.620  1.1946 -0.8574  2.3333
12728TIP3    H259600   3.671   6.874  13.692 -0.4136 -0.2714  0.4140
12729TIP3   OH259601   4.030   2.681  16.469  0.6982  0.6861 -0.0446
12729TIP3    H159602   4.089   2.606  16.476  1.5504  1.3371  0.0463
12729TIP3    H259603   4.067   2.734  16.398  0.8087  1.6005  0.6742
12730TIP3   OH259604   1.569   4.771  12.316  0.5638 -0.3461 -0.3955
12730TIP3    H159605   1.656   4.778  12.356  0.1345 -0.6763  0.6497
12730TIP3    H259606   1.537   4.861  12.309  0.4030 -0.3060  0.6199
12731TIP3   OH259607   4.144   5.836  15.524 -0.0945  0.0437  0.8201
12731TIP3    H159608   4.185   5.923  15.525 -1.6253  0.8752 -1.2702
12731TIP3    H259609   4.202   5.782  15.578  2.0216  1.8746  0.5511
12732TIP3   OH259610   0.175   5.285  13.263  0.2242 -0.0718  0.1586
12732TIP3    H159611   0.185   5.265  13.170  0.9795  0.0829  0.1960
12732TIP3    H259612   0.184   5.380  13.269 -2.0150  0.1766  0.1423
12733TIP3   OH259613   4.340   2.848   1.426  0.0413  0.0271  0.1159
12733TIP3    H159614   4.358   2.896   1.507  0.8193 -0.3321  0.1619
12733TIP3    H259615   4.248   2.821   1.434  0.2458 -0.4300  1.0988
12734TIP3   OH259616   2.701   3.014  12.026 -0.2247  0.4384 -0.1224
12734TIP3    H159617   2.786   2.987  12.063 -0.9486  1.5461  2.5974
12734TIP3    H259618   2.638   2.993  12.095 -2.1862 -0.1967 -2.0264
12735TIP3   OH259619   2.278   1.937   3.265 -0.8278  0.5008 -0.1818
12735TIP3    H159620   2.231   1.893   3.194  2.2841 -1.0721 -1.4485
12735TIP3    H259621   2.323   2.010   3.222  0.2650  0.1647  0.3701
12736TIP3   OH259622   3.606   0.053   5.388 -0.4419 -0.2264  0.0133
12736TIP3    H159623   3.526   0.007   5.415 -1.3100 -0.2159 -2.3246
12736TIP3    H259624   3.652  -0.010   5.333  0.5696  0.2067  0.3493
12737TIP3   OH259625   6.060   5.232  13.916  0.4672 -0.0304 -0.5803
12737TIP3    H159626   6.113   5.298  13.958  1.0128 -1.5800  1.2792
12737TIP3    H259627   5.984   5.280  13.882  0.0417  1.3587  2.0915
12738TIP3   OH259628   5.180   2.260   0.429  0.4638  0.3522 -0.0858
12738TIP3    H159629   5.266   2.254   0.470  0.1574  0.9279  0.6570
12738TIP3    H259630   5.117   2.246   0.500 -0.0731  1.2098 -0.3718
12739TIP3   OH259631   6.368   4.002   1.240 -0.4667  0.8021 -0.2369
12739TIP3    H159632   6.285   3.986   1.286 -1.4214  0.2671 -2.0118
12739TIP3    H259633   6.418   4.057   1.299 -1.4232 -0.1896  1.6031
12740TIP3   OH259634   2.779   4.872   0.093 -0.0312 -0.0800 -0.4120
12740TIP3    H159635   2.792   4.826   0.176 -0.3139  0.2704 -0.1750
12740TIP3    H259636   2.769   4.964   0.117 -1.3929 -0.1302 -0.7078
12741TIP3   OH259637   4.785   5.599  14.346 -0.5142 -0.5672 -0.5248
12741TIP3    H159638   4.772   5.531  14.412  1.4914 -0.2130  0.3129
12741TIP3    H259639   4.784   5.553  14.262 -1.4679 -1.2702 -0.1347
12742TIP3   OH259640   1.112   5.155  16.448 -0.5650 -0.3251  0.9607
12742TIP3    H159641   1.166   5.110  16.512  0.6095  1.4654  1.2727
12742TIP3    H259642   1.124   5.105  16.367 -0.2917 -1.2778  1.5753
12743TIP3   OH259643   1.018   0.053  16.269 -0.3373 -0.5274  0.4258
12743TIP3    H159644   1.090   0.102  16.308 -0.3170 -2.3129  2.8690
12743TIP3    H259645   0.939   0.097  16.302 -0.3161 -1.2227  1.4608
12744TIP3   OH259646   2.668   2.753   2.405 -0.3988 -0.6216 -0.4040
12744TIP3    H159647   2.594   2.759   2.465  0.6815 -0.9210  1.0044
12744TIP3    H259648   2.648   2.818   2.337 -1.1220  0.5718  0.8836
12745TIP3   OH259649   1.535   3.453  15.705  0.4725  0.7167  0.0111
12745TIP3    H159650   1.571   3.432  15.619 -0.0394  0.0254 -0.0404
12745TIP3    H259651   1.550   3.548  15.714  2.0266  0.5188 -0.1289
12746TIP3   OH259652   4.738   2.418  12.423  0.0802  0.0482 -0.5053
12746TIP3    H159653   4.655   2.391  12.383  1.1580 -3.4589 -0.6951
12746TIP3    H259654   4.805   2.386  12.362  1.6392  0.0529  1.1380
12747TIP3   OH259655   0.658   6.571  14.345 -0.4467  0.8600 -0.4013
12747TIP3    H159656   0.644   6.540  14.255 -1.3820  0.7038 -0.2163
12747TIP3    H259657   0.749   6.549  14.364 -0.3030  0.6933 -1.2347
12748TIP3   OH259658   2.370   5.140  15.932  0.0922 -0.0553  0.3230
12748TIP3    H159659   2.441   5.085  15.963 -1.3936 -1.7072  0.9930
12748TIP3    H259660   2.314   5.153  16.009  0.9004  3.3559  0.4882
12749TIP3   OH259661   4.655   5.918  13.107 -0.2937 -0.1603  0.2621
12749TIP3    H159662   4.721   5.927  13.175  0.2840  0.0379 -0.3166
12749TIP3    H259663   4.704   5.919  13.025 -1.0607  0.6599 -0.2115
12750TIP3   OH259664   6.550   6.057   1.944  0.4512 -0.1442 -0.3693
12750TIP3    H159665   6.581   5.981   1.896  1.8891 -0.2860  0.7428
12750TIP3    H259666   6.604   6.061   2.023 -0.0495  1.6206 -0.0544
12751TIP3   OH259667   1.724   2.460   1.282  0.2948  0.1724  0.7064
12751TIP3    H159668   1.769   2.394   1.229  3.4754  2.6776 -0.0768
12751TIP3    H259669   1.652   2.490   1.226  1.2100  0.0191 -0.6102
12752TIP3   OH259670   1.342   1.976  13.328  0.1961  0.4385 -0.4055
12752TIP3    H159671   1.306   1.919  13.260  0.7157 -0.4436  0.0360
12752TIP3    H259672   1.436   1.977  13.312  0.3614 -0.0303  0.4759
12753TIP3   OH259673   4.094   6.208   2.296 -0.3324  0.0490  0.1536
12753TIP3    H159674   4.013   6.245   2.260  0.6511  0.5752 -1.6367
12753TIP3    H259675   4.162   6.238   2.237  1.1473 -0.7126  1.4038
12754TIP3   OH259676   6.716   2.576   0.993 -1.0053  0.0268 -0.7128
12754TIP3    H159677   6.753   2.644   1.049 -1.8789 -0.1199  0.0509
12754TIP3    H259678   6.723   2.495   1.043 -0.1488 -0.4400 -1.5417
12755TIP3   OH259679   3.368   3.903  14.728 -0.4530  0.2760 -0.8896
12755TIP3    H159680   3.311   3.942  14.795 -0.0601 -0.5467 -0.0493
12755TIP3    H259681   3.400   3.978  14.678  0.3266  1.0742  0.7177
12756TIP3   OH259682   4.501   5.713   4.368  0.3933  0.2057  1.1026
12756TIP3    H159683   4.594   5.694   4.365  0.3881 -0.2677  2.6599
12756TIP3    H259684   4.496   5.806   4.391  0.4400  0.8531 -1.3128
12757TIP3   OH259685   3.510   3.352  16.180  0.5809  0.2785  0.5573
12757TIP3    H159686   3.499   3.359  16.274 -0.4360  0.7930  0.4149
12757TIP3    H259687   3.602   3.375  16.165  1.4702 -2.2651  1.6339
12758TIP3   OH259688   0.944   3.510   3.916 -0.1696  0.1095 -0.9335
12758TIP3    H159689   1.021   3.567   3.922  0.2019 -0.1805 -2.4481
12758TIP3    H259690   0.883   3.559   3.861 -0.8272  0.0696 -0.2512
12759TIP3   OH259691   3.046   6.413   1.558 -0.2001 -0.0123 -0.2558
12759TIP3    H159692   3.087   6.486   1.605 -2.5153  0.1022  1.8181
12759TIP3    H259693   3.036   6.445   1.468 -1.4371  2.4659  0.6508
12760TIP3   OH259694   2.396   4.550   3.354  0.7788  0.7315  0.0271
12760TIP3    H159695   2.439   4.501   3.425  0.4982  1.5038  0.7566
12760TIP3    H259696   2.424   4.641   3.369  1.6139  0.7555 -1.5330
12761TIP3   OH259697   0.199   2.965   4.382  0.0518 -0.1593 -0.3261
12761TIP3    H159698   0.145   2.887   4.372 -0.4042 -0.2030  1.8828
12761TIP3    H259699   0.141   3.037   4.359 -1.3179 -0.1564  2.6259
12762TIP3   OH259700   3.898   0.332   3.541  0.5601 -0.3735  0.3795
12762TIP3    H159701   3.816   0.379   3.555  0.7375 -0.8193  3.3690
12762TIP3    H259702   3.883   0.245   3.578  1.7658 -1.1770 -0.8937
12763TIP3   OH259703   6.167   1.470   4.832  0.1399  0.2587 -0.1180
12763TIP3    H159704   6.138   1.544   4.886 -0.6785 -0.0315 -0.1470
12763TIP3    H259705   6.167   1.505   4.742 -0.7764  0.0872 -0.2000
12764TIP3   OH259706   0.967   3.781   1.349 -0.4043  0.0900 -0.6466
12764TIP3    H159707   1.001   3.737   1.427 -2.2347  0.0887  0.2248
12764TIP3    H259708   0.877   3.748   1.341 -1.2248  2.2643 -1.0399
12765TIP3   OH259709   6.030   5.039   2.933 -0.3787  0.1093 -0.2937
12765TIP3    H159710   6.077   4.962   2.965  0.4505 -0.0240 -1.7107
12765TIP3    H259711   6.010   5.090   3.011  1.8862  0.0080  0.4311
12766TIP3   OH259712   5.952   3.689  12.263 -0.2568 -0.5112  0.0077
12766TIP3    H159713   6.004   3.610  12.243  1.1715  0.2070  0.7286
12766TIP3    H259714   5.966   3.745  12.187  0.2887 -0.2038  0.3251
12767TIP3   OH259715   0.092   0.177   1.246 -0.2528 -0.1550  0.4921
12767TIP3    H159716   0.027   0.116   1.280 -1.0091  0.9338  1.0487
12767TIP3    H259717   0.084   0.255   1.300  2.2245 -0.3151  1.2459
12768TIP3   OH259718   5.447   0.179  14.419  0.6552 -0.1481  0.3280
12768TIP3    H159719   5.487   0.261  14.447 -0.8475  0.3936  0.9944
12768TIP3    H259720   5.427   0.193  14.327  1.7387 -0.3267  0.0584
12769TIP3   OH259721   1.355   4.047   4.847 -0.1392  1.0434 -0.5076
12769TIP3    H159722   1.261   4.033   4.836  0.1492 -0.6414 -1.1741
12769TIP3    H259723   1.376   4.119   4.787 -0.8398  0.7266 -1.1456
12770TIP3   OH259724   3.913   2.049  17.031 -0.0063  0.3975  0.6578
12770TIP3    H159725   3.976   2.116  17.056  0.3311 -0.7747  3.2239
12770TIP3    H259726   3.956   2.003  16.958  0.2954  2.0996 -0.2872
12771TIP3   OH259727   5.416   6.470  14.567 -0.0424  0.0247 -0.0736
12771TIP3    H159728   5.400   6.544  14.626 -0.9921 -0.9480  0.9513
12771TIP3    H259729   5.494   6.494  14.518 -0.0874  1.5154  0.5337
12772TIP3   OH259730   4.533   6.598  12.756 -0.1949  0.3436 -0.2781
12772TIP3    H159731   4.530   6.615  12.850  0.3969  1.3074 -0.4138
12772TIP3    H259732   4.535   6.685  12.716  0.4160 -0.0521 -1.1464
12773TIP3   OH259733   2.055   2.469  13.510 -0.4298  0.1772 -0.1877
12773TIP3    H159734   1.977   2.438  13.556 -1.2708  0.5928 -1.3072
12773TIP3    H259735   2.119   2.399  13.521 -1.4169 -0.7741 -0.4216
12774TIP3   OH259736   2.564   5.887   4.703 -0.3794 -0.0828  0.0623
12774TIP3    H159737   2.610   5.932   4.774 -1.1573 -0.8769  1.1023
12774TIP3    H259738   2.472   5.908   4.718 -0.4230  1.2422 -1.8181
12775TIP3   OH259739   6.707   4.120   2.082 -0.0433 -0.0969 -0.0973
12775TIP3    H159740   6.681   4.103   2.173 -0.3355  1.3066  0.1031
12775TIP3    H259741   6.626   4.148   2.040 -0.0985 -1.5880 -1.0332
12776TIP3   OH259742   4.567   0.126   1.478 -0.0521  0.1047  0.4702
12776TIP3    H159743   4.474   0.143   1.494 -0.3632 -1.3094  0.2990
12776TIP3    H259744   4.604   0.213   1.459 -0.9732  0.9417  2.2276
12777TIP3   OH259745   3.120   3.854   4.171 -0.4941  0.0232 -0.3034
12777TIP3    H159746   3.039   3.902   4.157  0.0821  1.1786  0.2373
12777TIP3    H259747   3.121   3.788   4.101 -1.9372 -0.0846 -0.2441
12778TIP3   OH259748   0.954   2.227   1.979  0.2209 -0.1022  0.0976
12778TIP3    H159749   1.005   2.216   2.059  3.1329  1.3317 -1.4134
12778TIP3    H259750   0.866   2.199   2.003  1.8165 -3.7384  2.6462
12779TIP3   OH259751   2.178   6.390  11.771 -0.1185 -0.7620  0.2954
12779TIP3    H159752   2.129   6.372  11.851 -0.5567 -0.9756 -0.0197
12779TIP3    H259753   2.143   6.329  11.707 -1.2310  0.7827 -0.6334
12780TIP3   OH259754   2.479   2.618   3.720 -0.2352 -0.1688 -0.0546
12780TIP3    H159755   2.488   2.601   3.627  0.2455  0.4948 -0.1358
12780TIP3    H259756   2.538   2.691   3.737 -1.3061  0.6016  0.5073
12781TIP3   OH259757   1.310   2.494  15.024  0.3833 -0.4583  0.3052
12781TIP3    H159758   1.270   2.573  15.061  0.9816  0.4063 -0.8380
12781TIP3    H259759   1.404   2.512  15.026  0.6955 -1.9401  1.7837
12782TIP3   OH259760   5.590   5.143  16.770 -0.1582 -0.1191  0.0308
12782TIP3    H159761   5.652   5.089  16.819 -1.8298 -2.4766 -0.3203
12782TIP3    H259762   5.578   5.221  16.825  3.0131  0.4423  0.1118
12783TIP3   OH259763   0.335   6.198   4.186 -0.3432 -1.0344 -0.0941
12783TIP3    H159764   0.384   6.124   4.220 -1.9239 -2.4729 -0.7709
12783TIP3    H259765   0.283   6.228   4.261  0.1207 -0.7590  0.1202
12784TIP3   OH259766   4.654   1.546  12.737 -0.0970  0.2339 -0.1584
12784TIP3    H159767   4.592   1.555  12.664 -0.5876 -0.8969  0.1066
12784TIP3    H259768   4.612   1.592  12.810 -0.7824 -0.7915  0.1075
12785TIP3   OH259769   2.435   0.950  13.207 -0.2195  0.1145  0.1088
12785TIP3    H159770   2.344   0.955  13.178 -0.4194 -1.3650  0.4000
12785TIP3    H259771   2.479   0.901  13.137  0.3490  0.7555  0.0054
12786TIP3   OH259772   3.768   1.713  16.221 -0.9275 -0.7885 -0.4537
12786TIP3    H159773   3.851   1.683  16.256 -0.7062  0.6007  0.2674
12786TIP3    H259774   3.789   1.791  16.170 -1.7429 -0.6161 -0.5477
12787TIP3   OH259775   6.116   0.536   4.179  0.2077 -0.0746 -0.6378
12787TIP3    H159776   6.207   0.554   4.203  0.4253  0.7124 -1.9266
12787TIP3    H259777   6.110   0.441   4.178  0.8078 -0.1320  0.1756
12788TIP3   OH259778   0.208   4.858  15.369 -0.3576  0.5109  0.4159
12788TIP3    H159779   0.226   4.947  15.399  0.7167  0.3689  0.2335
12788TIP3    H259780   0.250   4.852  15.284 -0.9809  0.0242  0.1351
12789TIP3   OH259781   5.113   3.909   1.291 -0.2402 -0.1566  0.0034
12789TIP3    H159782   5.156   3.826   1.267  1.0706  0.3204  0.6468
12789TIP3    H259783   5.175   3.977   1.263 -0.0875  0.5174  1.8358
12790TIP3   OH259784   4.980   0.183   3.859 -0.1496 -0.8740 -0.3101
12790TIP3    H159785   4.952   0.092   3.863  0.3181 -0.9838  1.9025
12790TIP3    H259786   5.043   0.192   3.931  0.2652  1.0508 -0.8396
12791TIP3   OH259787   1.588   5.093   0.141  0.0575  0.8910 -0.1221
12791TIP3    H159788   1.675   5.124   0.115  0.5735  1.6128  2.1744
12791TIP3    H259789   1.596   5.078   0.235 -2.0635  0.0421 -0.0271
12792TIP3   OH259790   6.531   5.764   0.592  0.2271 -0.4777  0.4874
12792TIP3    H159791   6.465   5.808   0.646  1.1153  0.2019  1.0416
12792TIP3    H259792   6.615   5.800   0.622  0.7831 -0.5626 -0.9156
12793TIP3   OH259793   4.483   6.292  10.905 -0.1172 -0.3068  0.5383
12793TIP3    H159794   4.516   6.304  10.994 -2.3042 -0.7889  1.4665
12793TIP3    H259795   4.390   6.316  10.910  0.1521  1.7988 -2.1323
12794TIP3   OH259796   0.586   3.309   6.355 -0.0876 -0.5229  0.0384
12794TIP3    H159797   0.521   3.332   6.289 -0.1167  2.8650  1.0186
12794TIP3    H259798   0.668   3.346   6.321  0.2348 -0.2603  1.0672
12795TIP3   OH259799   1.079   2.624  16.660  0.2082 -0.5652 -0.4977
12795TIP3    H159800   1.014   2.590  16.597 -1.4720  0.1970  0.7386
12795TIP3    H259801   1.090   2.716  16.635  1.5085 -0.8820 -1.2099
12796TIP3   OH259802   2.298   1.288  14.539  0.1203  0.0791 -0.4734
12796TIP3    H159803   2.332   1.289  14.628 -1.5123  2.1231  0.2118
12796TIP3    H259804   2.326   1.372  14.501  0.0547 -0.3780 -1.5894
12797TIP3   OH259805   4.736   5.424  15.386  0.8793 -0.2098  0.8327
12797TIP3    H159806   4.816   5.386  15.424 -0.5393 -2.9693  1.2930
12797TIP3    H259807   4.699   5.477  15.456  1.8804  0.4801  0.8637
12798TIP3   OH259808   0.567   6.409  11.145  0.3006  0.2240  0.1127
12798TIP3    H159809   0.556   6.342  11.212  0.0048  0.0806 -0.0753
12798TIP3    H259810   0.635   6.467  11.179  1.4839 -0.8890 -0.3017
12799TIP3   OH259811   1.028   2.796   1.310 -0.3739  0.1371  0.2459
12799TIP3    H159812   1.093   2.843   1.257 -2.0898  0.1339 -2.0190
12799TIP3    H259813   1.073   2.716   1.337  0.0169 -0.9217 -3.0941
12800TIP3   OH259814   5.660   6.469   3.508 -0.1148 -0.2097 -0.5262
12800TIP3    H159815   5.600   6.516   3.566  0.3110  1.4305 -1.3668
12800TIP3    H259816   5.603   6.432   3.440 -0.1653  2.1774 -1.8877
12801TIP3   OH259817   2.848   0.191  12.964 -0.3397  0.1473 -0.0416
12801TIP3    H159818   2.800   0.265  12.927  0.3052  1.1545  1.0378
12801TIP3    H259819   2.791   0.157  13.033 -0.9433 -0.8386 -1.0074
12802TIP3   OH259820   2.436   4.085  15.157  0.5151 -0.2536 -0.9286
12802TIP3    H159821   2.347   4.088  15.193  0.5845  2.0130 -0.7735
12802TIP3    H259822   2.473   4.004  15.191 -0.1418  0.6884  2.4927
12803TIP3   OH259823   1.247   2.479   1.898  0.1268 -0.3028  0.4031
12803TIP3    H159824   1.232   2.391   1.866  0.7023 -0.3992  0.3914
12803TIP3    H259825   1.162   2.507   1.931  0.0660 -1.0784  0.9352
12804TIP3   OH259826   4.609   0.958   0.532  0.1208  0.2278  0.2304
12804TIP3    H159827   4.622   0.871   0.570  0.2569  0.6017  1.0746
12804TIP3    H259828   4.585   1.013   0.607  1.2599  1.1796 -0.0740
12805TIP3   OH259829   6.210   0.084  13.134 -0.4032 -0.2391 -0.3689
12805TIP3    H159830   6.293   0.132  13.130 -0.4464 -0.1755 -3.6265
12805TIP3    H259831   6.148   0.146  13.170  0.9326 -0.3638  2.3694
12806TIP3   OH259832   1.179   6.604   6.602  0.1533 -0.1220  0.2878
12806TIP3    H159833   1.247   6.587   6.668 -0.1977 -2.0783  0.2090
12806TIP3    H259834   1.097   6.593   6.648 -0.1511  1.8010  0.2726
12807TIP3   OH259835   4.398   3.117  16.388  0.1507  0.2714 -0.1192
12807TIP3    H159836   4.430   3.185  16.448 -0.7461  0.9076 -0.3478
12807TIP3    H259837   4.452   3.128  16.310  0.2513  0.4901 -0.0216
12808TIP3   OH259838   0.932   5.598  15.866  0.5449  0.1580  0.3839
12808TIP3    H159839   1.019   5.606  15.906  1.5206 -2.8131 -0.8084
12808TIP3    H259840   0.949   5.607  15.772 -0.4004 -0.6571  0.1285
12809TIP3   OH259841   1.015   0.432   5.222  0.1006 -0.6884  0.2177
12809TIP3    H159842   1.053   0.344   5.216 -0.4759 -0.9700  0.6441
12809TIP3    H259843   0.920   0.417   5.218  0.0304  0.0435 -1.3501
12810TIP3   OH259844   6.761   1.312   5.242  0.4743 -0.0237 -0.0708
12810TIP3    H159845   6.856   1.319   5.238  0.3898  0.8382 -1.2825
12810TIP3    H259846   6.731   1.401   5.259 -0.1988  0.4243 -2.9641
12811TIP3   OH259847   6.075   0.433  15.475 -0.1485 -0.8833 -0.0134
12811TIP3    H159848   6.002   0.428  15.414 -0.5982 -1.2639  0.5367
12811TIP3    H259849   6.129   0.505  15.443  0.2883 -1.8540 -1.5521
12812TIP3   OH259850   0.712   4.997   4.125  0.1838 -0.2057 -0.4878
12812TIP3    H159851   0.718   4.957   4.213 -1.7314  0.4861 -0.0034
12812TIP3    H259852   0.789   4.963   4.079  0.2775 -2.0336  0.8740
12813TIP3   OH259853   0.738   5.498  15.071  0.3657  0.1058  0.1161
12813TIP3    H159854   0.826   5.465  15.088 -0.0454 -1.7053 -0.9936
12813TIP3    H259855   0.686   5.468  15.145  0.6535  1.2030  0.7881
12814TIP3   OH259856   5.765   1.833   4.348  0.2020  0.0175 -0.2647
12814TIP3    H159857   5.811   1.865   4.425  1.4868  0.6888 -1.2636
12814TIP3    H259858   5.703   1.767   4.381  0.5953  0.4276  1.3284
12815TIP3   OH259859   3.652   0.937   0.406  0.9604 -0.0089 -0.1207
12815TIP3    H159860   3.743   0.966   0.417  0.6505  0.4305  1.4852
12815TIP3    H259861   3.599   1.009   0.440  0.0774 -1.0844  0.8523
12816TIP3   OH259862   3.875   1.804   5.838 -0.3380 -0.1381  0.1954
12816TIP3    H159863   3.794   1.855   5.841  0.1843  0.8669 -1.4142
12816TIP3    H259864   3.944   1.869   5.849  0.3871 -0.2512 -2.9157
12817TIP3   OH259865   3.240   5.334  14.458 -0.3293 -0.7495 -0.5437
12817TIP3    H159866   3.163   5.330  14.514  0.4421 -2.3332  0.5060
12817TIP3    H259867   3.254   5.243  14.431  0.2680 -0.2589 -2.0297
12818TIP3   OH259868   2.905   2.483   4.151  0.0540 -0.1589 -0.7299
12818TIP3    H159869   2.877   2.412   4.208  0.1802  0.5957  0.2859
12818TIP3    H259870   2.948   2.545   4.209 -0.5279  1.0088 -1.5081
12819TIP3   OH259871   0.830   4.443   2.274 -0.0277  0.1131 -0.5319
12819TIP3    H159872   0.790   4.447   2.361  1.5140 -1.5258  0.3062
12819TIP3    H259873   0.799   4.523   2.230 -2.3048  0.0721  0.8329
12820TIP3   OH259874   6.208   4.028  17.035  0.4161 -0.6554 -0.0936
12820TIP3    H159875   6.159   3.972  17.096  2.1365 -1.8460  0.2778
12820TIP3    H259876   6.241   3.967  16.969 -1.3841  0.5995 -2.2672
12821TIP3   OH259877   0.049   1.644   1.248  0.2469 -0.3315  0.5466
12821TIP3    H159878  -0.022   1.625   1.186 -1.1101  0.8209  1.6727
12821TIP3    H259879   0.125   1.660   1.192 -0.7545 -0.0844 -0.8081
12822TIP3   OH259880   0.758   3.813   1.114  0.1171 -0.1235  0.1961
12822TIP3    H159881   0.698   3.884   1.095  1.1036  1.3173  2.0946
12822TIP3    H259882   0.838   3.857   1.143  0.6776 -2.0115  1.6801
12823TIP3   OH259883   1.192   2.283   3.925  0.0335 -0.0662 -0.2657
12823TIP3    H159884   1.269   2.275   3.981 -0.5761 -1.0001  0.4849
12823TIP3    H259885   1.224   2.269   3.836  0.5648 -1.6142  0.1432
12824TIP3   OH259886   1.020   4.977   1.684 -0.1223 -0.2038  0.0453
12824TIP3    H159887   1.106   4.992   1.646  0.2834 -1.8761  0.2400
12824TIP3    H259888   0.968   5.054   1.657  0.5004 -0.6803 -2.8038
12825TIP3   OH259889   5.449   3.039   0.930 -0.0126  0.4871  0.0760
12825TIP3    H159890   5.446   3.104   0.999  0.2981  0.1781  0.3841
12825TIP3    H259891   5.419   3.085   0.852  0.3199  1.0260  0.2661
12826TIP3   OH259892   1.983   1.298   4.552  0.2354 -0.2302 -0.5734
12826TIP3    H159893   1.920   1.344   4.497  0.4776 -0.5749 -1.1400
12826TIP3    H259894   2.061   1.291   4.498  1.0848  0.9985  0.4314
12827TIP3   OH259895   5.556   2.622   3.308  0.1838  1.0003  0.2342
12827TIP3    H159896   5.579   2.570   3.231  2.5473 -0.7244  1.9612
12827TIP3    H259897   5.558   2.713   3.278 -1.9036  0.3044 -2.3652
12828TIP3   OH259898   6.078   5.497   1.870  0.7747 -0.3913 -0.2394
12828TIP3    H159899   6.016   5.561   1.906  0.8951  0.3977 -1.3602
12828TIP3    H259900   6.131   5.470   1.944  0.5948  0.6850  0.3022
12829TIP3   OH259901   3.568   2.025   2.575  0.2612  0.1384  0.2052
12829TIP3    H159902   3.582   2.026   2.670 -0.0208  0.7846  0.2457
12829TIP3    H259903   3.519   1.944   2.559  0.1681  0.1074  0.6376
12830TIP3   OH259904   0.118   0.002  12.516  0.4342  0.1592 -0.3298
12830TIP3    H159905   0.198   0.032  12.561  0.7649 -0.9489 -0.1373
12830TIP3    H259906   0.116  -0.092  12.533 -0.7251  0.1192 -0.6552
12831TIP3   OH259907   2.439   4.465   2.669 -0.6992 -0.2785 -0.0833
12831TIP3    H159908   2.453   4.388   2.724 -0.6796  0.1985  0.5824
12831TIP3    H259909   2.430   4.537   2.730 -1.7059  0.1060 -0.6556
12832TIP3   OH259910   5.981   4.481  11.237  0.1568 -0.0754  0.3650
12832TIP3    H159911   6.021   4.474  11.324  0.5226  1.6093  0.3709
12832TIP3    H259912   6.051   4.513  11.181 -0.4143  0.0590 -0.2853
12833TIP3   OH259913   1.152   0.464   3.867  0.2206  0.6554 -0.1026
12833TIP3    H159914   1.188   0.411   3.938  0.8573  2.4526  1.0052
12833TIP3    H259915   1.215   0.455   3.795  0.0214 -0.4918 -0.1531
12834TIP3   OH259916   5.873   1.460  13.014 -0.1975  0.0896  0.3894
12834TIP3    H159917   5.879   1.527  13.082  0.2329  0.4388  0.0143
12834TIP3    H259918   5.961   1.454  12.977 -0.6225  0.5991 -0.7820
12835TIP3   OH259919   0.861   5.928   3.088  0.2546 -0.0551  0.7505
12835TIP3    H159920   0.845   5.835   3.103 -0.8910  0.4026  2.7218
12835TIP3    H259921   0.774   5.964   3.067  0.4702  0.7668  1.2417
12836TIP3   OH259922   2.479   6.716  15.321  0.0536 -0.0888  0.1426
12836TIP3    H159923   2.487   6.748  15.231 -1.4199 -0.0710 -0.0030
12836TIP3    H259924   2.570   6.707  15.351  0.5773 -0.1510 -1.3567
12837TIP3   OH259925   6.699   1.423  16.749 -0.0671 -0.3327  0.3045
12837TIP3    H159926   6.777   1.379  16.715 -0.8160 -2.4372  1.1601
12837TIP3    H259927   6.632   1.407  16.683 -0.3636 -0.5310  0.6536
12838TIP3   OH259928   4.066   4.814   4.267 -0.5337  0.1014 -0.4498
12838TIP3    H159929   4.143   4.768   4.300 -1.1971 -0.1963  0.7510
12838TIP3    H259930   4.101   4.893   4.226  0.5404 -0.9350 -1.6109
12839TIP3   OH259931   3.023   3.017  14.876 -0.0829 -0.2249 -0.0721
12839TIP3    H159932   3.094   3.003  14.939  1.2422  1.5511 -1.0796
12839TIP3    H259933   3.004   3.111  14.881 -0.8042 -0.2742 -1.4037
12840TIP3   OH259934   2.219   3.087   0.110 -0.4773 -0.5304 -0.4387
12840TIP3    H159935   2.270   3.023   0.160 -0.8615  0.8234  1.8577
12840TIP3    H259936   2.132   3.083   0.149 -0.4348  1.5428 -0.0214
12841TIP3   OH259937   1.554   4.072   3.552  0.0494 -0.0284 -0.4279
12841TIP3    H159938   1.619   4.039   3.614  1.2439 -2.9454 -2.9539
12841TIP3    H259939   1.605   4.102   3.477 -1.4142  1.4033 -0.9072
12842TIP3   OH259940   2.270   0.669  12.064  0.3511  0.4671  0.4122
12842TIP3    H159941   2.296   0.648  11.974  3.8764 -0.2011  1.4393
12842TIP3    H259942   2.280   0.764  12.070  0.1720  0.5059  0.1189
12843TIP3   OH259943   0.462   6.404   3.828  0.4381 -0.2599  0.6135
12843TIP3    H159944   0.373   6.398   3.792  0.9500 -0.2636 -0.7055
12843TIP3    H259945   0.481   6.315   3.858  0.5141 -0.6318 -0.4591
12844TIP3   OH259946   2.116   5.348   0.642 -0.0839  0.2045  0.4984
12844TIP3    H159947   2.144   5.304   0.562 -0.6570  2.0255 -0.7589
12844TIP3    H259948   2.152   5.436   0.635 -1.5116  0.9062  1.4419
12845TIP3   OH259949   3.235   3.744   3.312  0.0288 -0.1661 -0.0812
12845TIP3    H159950   3.166   3.690   3.350 -0.4282  1.0791  0.9802
12845TIP3    H259951   3.195   3.784   3.235  0.1422 -0.7699 -0.4618
12846TIP3   OH259952   0.876   1.763   4.041 -0.2383  0.1528 -0.4283
12846TIP3    H159953   0.848   1.674   4.016  0.0403  0.2561 -1.1253
12846TIP3    H259954   0.835   1.820   3.976 -1.2769  0.6567  0.6229
12847TIP3   OH259955   6.706   0.040  14.501 -0.3292 -0.7243 -0.4207
12847TIP3    H159956   6.735  -0.024  14.566 -0.5460  2.2590  2.9111
12847TIP3    H259957   6.611   0.031  14.500 -0.2570 -1.5190 -1.2279
12848TIP3   OH259958   6.735   0.515   1.745  0.5888  0.1052 -0.6268
12848TIP3    H159959   6.780   0.580   1.798 -0.5792 -0.5256  1.2122
12848TIP3    H259960   6.796   0.441   1.741  0.0480 -0.5119  1.3490
12849TIP3   OH259961   4.365   5.951  12.527 -0.6986  0.6486  0.0564
12849TIP3    H159962   4.436   5.931  12.588 -1.6430 -0.3895  0.8549
12849TIP3    H259963   4.382   5.896  12.451 -0.3237  0.8600 -0.0165
12850TIP3   OH259964   4.321   0.700  16.457  0.0950  0.6594  0.0037
12850TIP3    H159965   4.279   0.738  16.380  0.1160  1.9442  0.5923
12850TIP3    H259966   4.281   0.746  16.531  0.5801 -0.0425  0.7151
12851TIP3   OH259967   4.807   0.702  14.290  0.0889  0.3979  0.0757
12851TIP3    H159968   4.716   0.671  14.287  0.5145 -0.9058 -0.0774
12851TIP3    H259969   4.840   0.671  14.374  0.9018 -0.7340 -0.6263
12852TIP3   OH259970   0.785   2.117   4.656 -0.3450 -0.6878  0.2261
12852TIP3    H159971   0.820   2.030   4.636 -3.1531 -1.5997 -1.3462
12852TIP3    H259972   0.861   2.169   4.680  1.5023 -3.4689  0.9253
12853TIP3   OH259973   5.835   1.766   0.140  0.1369 -0.6319 -0.0531
12853TIP3    H159974   5.911   1.810   0.179 -0.8029  0.8366  0.1912
12853TIP3    H259975   5.872   1.688   0.098  1.8743  0.3566 -0.4699
12854TIP3   OH259976   3.464   3.407  13.785 -0.0761  0.0903 -0.5382
12854TIP3    H159977   3.405   3.475  13.753 -0.7299 -0.2000  0.0225
12854TIP3    H259978   3.435   3.327  13.741 -0.4809 -0.1615  0.1716
12855TIP3   OH259979   5.231   3.076  11.294 -0.1980  0.3323 -0.1748
12855TIP3    H159980   5.195   2.995  11.331 -0.3202 -0.0896 -1.1872
12855TIP3    H259981   5.157   3.118  11.251 -0.2530  1.2687  0.8047
12856TIP3   OH259982   1.900   5.320  13.545 -0.6031 -0.3372 -0.2358
12856TIP3    H159983   1.972   5.365  13.501 -0.9320 -0.3118 -0.7545
12856TIP3    H259984   1.859   5.388  13.600 -0.7480 -0.1388 -0.5846
12857TIP3   OH259985   5.031   1.262   1.149 -0.0327 -0.2944 -0.0994
12857TIP3    H159986   5.105   1.308   1.109  1.2916 -1.2404  1.1325
12857TIP3    H259987   5.002   1.319   1.220  1.9672 -1.4639  1.7857
12858TIP3   OH259988   5.084   1.774  11.506 -0.2876 -0.6501 -0.0662
12858TIP3    H159989   5.001   1.751  11.547 -1.4923  0.1341 -1.8794
12858TIP3    H259990   5.081   1.731  11.420 -0.6342  2.3437 -1.7321
12859TIP3   OH259991   4.066   5.457  13.707  0.6731  0.0250 -0.1746
12859TIP3    H159992   4.124   5.532  13.724  0.3197  0.8229 -2.2089
12859TIP3    H259993   3.997   5.492  13.651  0.9155 -1.9632 -1.8549
12860TIP3   OH259994   4.261   5.271  11.181 -0.2631 -0.2473  0.6674
12860TIP3    H159995   4.222   5.327  11.114  1.3977 -0.2391 -0.3632
12860TIP3    H259996   4.244   5.182  11.150 -0.1072 -0.2529  0.5950
12861TIP3   OH259997   1.743   2.596  13.251  0.4107  0.4416  0.0009
12861TIP3    H159998   1.667   2.561  13.297  0.0365  2.0534  0.6504
12861TIP3    H259999   1.805   2.523  13.249 -0.6469 -0.5043  0.5893
12862TIP3   OH260000   4.833   1.664   1.461 -0.2328 -0.4042  0.0400
12862TIP3    H160001   4.854   1.736   1.519 -0.0875  0.1487 -0.6826
12862TIP3    H260002   4.742   1.643   1.480 -1.3526  2.1103 -1.9283
12863TIP3   OH260003   3.861   4.165   0.462 -0.4552  0.2019 -1.0071
12863TIP3    H160004   3.773   4.126   0.454 -0.3530  0.1748 -2.3057
12863TIP3    H260005   3.851   4.253   0.426  0.3581 -0.3401 -2.6806
12864TIP3   OH260006   0.749   5.295   1.960 -0.6321  0.1857 -0.2458
12864TIP3    H160007   0.800   5.223   1.999 -1.1374  0.9940  2.0126
12864TIP3    H260008   0.803   5.372   1.973 -1.1326  0.5861 -0.5293
12865TIP3   OH260009   0.664   3.411  14.021  0.0420 -0.1827 -0.2956
12865TIP3    H160010   0.587   3.355  14.020 -0.1065  0.0032  0.3338
12865TIP3    H260011   0.732   3.359  14.064 -0.1498  0.1768  0.4638
12866TIP3   OH260012   0.365   1.575   2.793 -0.3409  0.4889 -0.0069
12866TIP3    H160013   0.351   1.525   2.713 -1.2497  0.7206  0.0002
12866TIP3    H260014   0.350   1.666   2.769 -1.7659  0.4556  0.6663
12867TIP3   OH260015   6.115   4.439   2.602  0.5122 -0.3485  0.2646
12867TIP3    H160016   6.049   4.502   2.574  0.7829 -0.1941 -0.0223
12867TIP3    H260017   6.068   4.355   2.604  0.7915 -0.6008 -1.8943
12868TIP3   OH260018   3.123   1.723  16.635 -0.5836  0.5139  0.1968
12868TIP3    H160019   3.178   1.684  16.567 -3.0851 -0.7583 -1.2194
12868TIP3    H260020   3.171   1.706  16.716  0.4140 -1.9103 -0.7987
12869TIP3   OH260021   0.726   1.792   3.789  0.2998 -0.1645  0.2201
12869TIP3    H160022   0.770   1.843   3.721 -1.9291  1.0681 -0.4011
12869TIP3    H260023   0.640   1.833   3.798 -0.1801 -1.4802  2.4627
12870TIP3   OH260024   5.752   2.775   2.331  0.1625  0.5144 -0.1023
12870TIP3    H160025   5.702   2.768   2.413 -0.3302  0.8955 -0.3639
12870TIP3    H260026   5.796   2.860   2.337 -1.5350  1.5431 -1.1166
12871TIP3   OH260027   3.254   4.629   3.599  0.6789 -0.2095  0.3480
12871TIP3    H160028   3.184   4.693   3.603  0.5063 -0.4101  0.5415
12871TIP3    H260029   3.329   4.673   3.640  0.5362 -0.1652  0.5623
12872TIP3   OH260030   0.207   2.012  12.172 -0.0195  0.4897 -0.1014
12872TIP3    H160031   0.247   1.942  12.120 -0.4687  0.8690 -0.9606
12872TIP3    H260032   0.236   1.993  12.262  0.7390 -0.1802 -0.4705
12873TIP3   OH260033   4.279   4.914  11.921 -0.3795  0.4708 -0.0989
12873TIP3    H160034   4.373   4.896  11.923 -0.6804 -1.2938  2.1652
12873TIP3    H260035   4.266   4.964  11.840  2.5192  1.0310 -0.3332
12874TIP3   OH260036   3.268   5.112  15.306  0.0118 -0.1248 -0.2372
12874TIP3    H160037   3.261   5.135  15.213 -3.3330  1.9925  0.3863
12874TIP3    H260038   3.288   5.194  15.350 -4.1236  0.2877  1.3109
12875TIP3   OH260039   3.436   2.688   5.924  0.0819  0.0625  0.0353
12875TIP3    H160040   3.476   2.604   5.901  0.0024 -0.0819  0.4266
12875TIP3    H260041   3.342   2.673   5.916  0.0834  0.2926 -0.5007
12876TIP3   OH260042   4.304   0.906  12.390 -0.3592  0.3375 -0.4731
12876TIP3    H160043   4.270   0.818  12.372 -0.2042 -0.3759  2.2666
12876TIP3    H260044   4.273   0.925  12.478 -1.5229  3.6653 -1.4639
12877TIP3   OH260045   5.780   3.603   3.329 -0.0036  0.2200 -0.2703
12877TIP3    H160046   5.685   3.608   3.317 -0.0421 -0.9132 -0.5385
12877TIP3    H260047   5.798   3.662   3.402 -1.0173 -0.0934  0.2489
12878TIP3   OH260048   2.171   2.401  11.749  0.1279  0.1335 -0.2808
12878TIP3    H160049   2.187   2.307  11.759  0.5397  0.1110 -1.0358
12878TIP3    H260050   2.194   2.438  11.834 -1.6688 -0.6282  0.5904
12879TIP3   OH260051   1.535   6.647  16.879  0.6093  0.6351  0.0798
12879TIP3    H160052   1.562   6.573  16.825 -0.5975 -0.0354  0.3685
12879TIP3    H260053   1.601   6.652  16.948  0.3294 -0.6154  0.4530
12880TIP3   OH260054   4.572   5.370   4.232 -0.0283 -0.4201 -0.1144
12880TIP3    H160055   4.665   5.387   4.250  0.4255 -0.0022 -2.4127
12880TIP3    H260056   4.571   5.280   4.199 -0.2807 -0.1473 -0.8795
12881TIP3   OH260057   6.361   4.780  16.231 -0.3859 -0.7456  0.2256
12881TIP3    H160058   6.270   4.794  16.204  0.1200  0.6870 -0.8383
12881TIP3    H260059   6.403   4.865  16.217  1.3262 -1.6237 -0.1239
12882TIP3   OH260060   2.601   5.276  13.718  0.0187  0.0059  0.4791
12882TIP3    H160061   2.525   5.252  13.771  1.0147  0.9721  2.4397
12882TIP3    H260062   2.616   5.368  13.737  0.6499  0.2925 -1.2333
12883TIP3   OH260063   3.315   1.427  13.881  0.0699  0.0303  0.2439
12883TIP3    H160064   3.297   1.373  13.958  0.9553  1.5924  1.6209
12883TIP3    H260065   3.406   1.406  13.858 -0.2526 -0.5790 -0.5453
12884TIP3   OH260066   5.097   3.266  15.081 -0.0894  0.4334 -0.3472
12884TIP3    H160067   5.102   3.353  15.042 -0.3577 -0.4339 -2.4359
12884TIP3    H260068   5.089   3.206  15.006  1.3624 -1.5016  0.9332
12885TIP3   OH260069   0.623   4.654   6.203  0.1009  0.4824 -0.0260
12885TIP3    H160070   0.598   4.611   6.121  0.7694 -1.3912  0.6940
12885TIP3    H260071   0.542   4.693   6.236 -0.1898  1.2181 -1.5105
12886TIP3   OH260072   0.973   2.750  14.364  0.7010 -0.4560 -0.2677
12886TIP3    H160073   0.968   2.656  14.380 -0.0881 -0.0943  1.8841
12886TIP3    H260074   0.890   2.785  14.395  0.4593  0.8502 -2.1832
12887TIP3   OH260075   0.488   5.300   6.019 -0.7767 -0.4518 -0.3188
12887TIP3    H160076   0.418   5.338   6.073 -0.6823 -0.0822 -0.4500
12887TIP3    H260077   0.483   5.206   6.035  0.9255 -0.1835  2.3512
12888TIP3   OH260078   6.464   4.155  13.831 -0.1429  1.1603 -0.3070
12888TIP3    H160079   6.397   4.224  13.832  0.4664  1.7702  0.9174
12888TIP3    H260080   6.546   4.201  13.853  0.1704 -0.0305  1.1588
12889TIP3   OH260081   2.462   1.414  14.759  0.3494 -0.3100  0.0669
12889TIP3    H160082   2.531   1.394  14.823  0.6319 -4.1097 -1.1882
12889TIP3    H260083   2.509   1.445  14.682  0.5386 -1.4696 -0.2882
12890TIP3   OH260084   1.972   3.529  14.191 -0.2930  0.3052  0.0764
12890TIP3    H160085   1.966   3.465  14.120 -2.0626  1.3728 -0.7942
12890TIP3    H260086   2.015   3.604  14.152 -0.4964  0.5800  0.3739
12891TIP3   OH260087   2.149   0.115  14.981  0.0328 -0.1085  0.4118
12891TIP3    H160088   2.055   0.101  14.986 -0.3172  0.7919 -1.9750
12891TIP3    H260089   2.174   0.078  14.896  1.9742 -0.9182  1.2844
12892TIP3   OH260090   3.865   3.545   2.390  0.0376  0.5164 -0.4481
12892TIP3    H160091   3.874   3.606   2.463 -2.2656  1.0342 -0.5276
12892TIP3    H260092   3.954   3.512   2.376  0.5921  0.4966  2.4531
12893TIP3   OH260093   3.046   0.207   1.678 -0.5040  0.5622 -0.5915
12893TIP3    H160094   3.019   0.232   1.766 -0.6783  1.7814 -0.9625
12893TIP3    H260095   3.136   0.239   1.671 -0.6202  0.8213 -0.9683
12894TIP3   OH260096   6.221   4.180  16.786 -0.6774 -0.4471 -0.3819
12894TIP3    H160097   6.227   4.094  16.826  0.1135  0.0818  0.6563
12894TIP3    H260098   6.139   4.217  16.820 -1.9278 -1.4151 -2.1566
12895TIP3   OH260099   4.952   2.534  17.115  0.7063  0.4180 -0.3538
12895TIP3    H160100   4.965   2.575  17.201  2.1820 -1.2937  0.3143
12895TIP3    H260101   5.027   2.563  17.063  1.0374 -0.3419 -0.3100
12896TIP3   OH260102   3.998   2.103  11.289  0.0361 -0.3861  0.5815
12896TIP3    H160103   3.923   2.162  11.295 -0.5617 -1.1835  1.3663
12896TIP3    H260104   3.974   2.041  11.220  0.2377 -0.2892  0.4240
12897TIP3   OH260105   6.750   2.105  15.014  0.1986 -0.2222  0.1200
12897TIP3    H160106   6.753   2.022  15.062 -1.4846 -1.2109 -1.3364
12897TIP3    H260107   6.777   2.083  14.925 -1.6166  0.4320 -0.6609
12898TIP3   OH260108   2.908   4.865  13.282  0.0921 -0.3834 -0.1167
12898TIP3    H160109   2.879   4.777  13.260 -1.5463  0.1599 -0.3299
12898TIP3    H260110   2.835   4.921  13.254  0.8764  0.9752  0.4842
12899TIP3   OH260111   6.558   3.146   5.448 -0.4039  0.2533  0.3330
12899TIP3    H160112   6.473   3.181   5.423 -0.6273 -0.2701  0.3532
12899TIP3    H260113   6.566   3.064   5.398 -0.2725 -0.1241  0.9553
12900TIP3   OH260114   3.135   6.260  16.897 -0.0128 -0.0389 -0.6723
12900TIP3    H160115   3.095   6.227  16.816 -1.1994 -0.2167 -0.0481
12900TIP3    H260116   3.119   6.354  16.895 -1.6462 -0.2503  0.1445
12901TIP3   OH260117   1.540   5.537   4.686 -0.3028 -0.1276 -0.4604
12901TIP3    H160118   1.534   5.446   4.657 -0.3065 -0.2824  0.0265
12901TIP3    H260119   1.630   5.563   4.666  0.1797 -0.7306  0.8282
12902TIP3   OH260120   6.341   6.691   6.383 -0.0215  0.8285 -0.1540
12902TIP3    H160121   6.348   6.596   6.372  1.7369  1.0013 -0.8614
12902TIP3    H260122   6.252   6.712   6.354  0.2262 -0.3732 -1.9683
12903TIP3   OH260123   0.246   3.169   2.347  0.0846  0.0776  0.1967
12903TIP3    H160124   0.247   3.094   2.407 -1.4634 -0.0622  0.0939
12903TIP3    H260125   0.170   3.154   2.291  0.9414  0.7024 -1.1958
12904TIP3   OH260126   6.478   3.018   6.675 -0.2400  0.1375  0.5335
12904TIP3    H160127   6.535   2.991   6.603  0.9011 -0.1030  1.4944
12904TIP3    H260128   6.508   3.106   6.699 -2.6503  1.5914 -1.2711
12905TIP3   OH260129   2.690   0.703   4.670  0.4431 -0.5472 -0.1667
12905TIP3    H160130   2.771   0.753   4.664 -1.3293  2.4892 -1.5809
12905TIP3    H260131   2.669   0.680   4.579 -1.0347  0.2289 -0.0682
12906TIP3   OH260132   1.687   1.208   1.323 -0.0968  0.0524  0.5572
12906TIP3    H160133   1.698   1.281   1.262 -2.7077  0.2638  0.2222
12906TIP3    H260134   1.594   1.185   1.316  0.2033 -1.9487  2.2040
12907TIP3   OH260135   3.732   1.600   0.937 -0.1586 -0.1031 -0.0065
12907TIP3    H160136   3.777   1.663   0.881 -1.3130 -0.1897 -1.0856
12907TIP3    H260137   3.645   1.637   0.949 -0.3395 -0.7289  0.6558
12908TIP3   OH260138   1.569   4.041   3.885 -0.5650 -0.2588  0.1756
12908TIP3    H160139   1.567   4.011   3.976 -0.0307 -0.4221  0.1356
12908TIP3    H260140   1.646   3.998   3.847 -0.7806 -0.1863 -0.3515
12909TIP3   OH260141   4.693   6.414  12.247  0.5972 -0.0018  0.0067
12909TIP3    H160142   4.765   6.426  12.185  0.4769 -0.1528 -0.1627
12909TIP3    H260143   4.615   6.446  12.201  0.3052 -1.2091 -0.3722
12910TIP3   OH260144   1.767   2.861   1.149 -0.4930 -0.0221  0.2235
12910TIP3    H160145   1.833   2.853   1.219  0.2907 -0.1506 -0.5135
12910TIP3    H260146   1.781   2.948   1.113 -0.5574 -0.1455 -0.0992
12911TIP3   OH260147   1.960   3.864   2.043 -0.5335 -0.4467 -0.1392
12911TIP3    H160148   1.932   3.915   2.120 -0.2357 -0.8305  0.2284
12911TIP3    H260149   2.044   3.826   2.069 -0.0049  0.1284 -0.9813
12912TIP3   OH260150   0.711   6.781  15.095 -0.3946 -0.3750 -0.4799
12912TIP3    H160151   0.651   6.821  15.158 -0.9684 -4.1314  1.6832
12912TIP3    H260152   0.793   6.772  15.143 -0.0460 -0.9682 -1.1671
12913TIP3   OH260153   5.660   0.070  13.967 -0.2619 -0.0359  0.1012
12913TIP3    H160154   5.737   0.049  13.913 -0.6170 -0.7072 -0.1533
12913TIP3    H260155   5.689   0.057  14.057  0.3125  1.0150  0.0900
12914TIP3   OH260156   6.613   5.678   2.155  0.3891 -0.1488  0.1881
12914TIP3    H160157   6.666   5.604   2.127 -2.1576 -2.6135  1.3871
12914TIP3    H260158   6.602   5.666   2.249 -0.3910  1.5884  0.3724
12915TIP3   OH260159   6.143   3.217   1.964 -0.3005 -0.2036  0.3612
12915TIP3    H160160   6.129   3.309   1.983 -1.4909 -0.4105  0.5259
12915TIP3    H260161   6.238   3.208   1.958 -0.0322  0.5969  2.5617
12916TIP3   OH260162   0.294   3.746  15.228  0.3506  0.4122  0.4020
12916TIP3    H160163   0.216   3.791  15.261  0.6591  2.5283 -1.5569
12916TIP3    H260164   0.285   3.657  15.262 -3.7728  0.0739 -0.9654
12917TIP3   OH260165   3.858   3.218  13.664 -0.6848  0.2865  0.1841
12917TIP3    H160166   3.806   3.253  13.737 -1.0033 -0.3227  0.2601
12917TIP3    H260167   3.798   3.220  13.589 -0.9886 -0.8719  0.3816
12918TIP3   OH260168   0.987   1.269   0.092  0.2646 -0.0246  0.1987
12918TIP3    H160169   1.037   1.219   0.028 -0.9657  0.6591 -1.3706
12918TIP3    H260170   0.901   1.281   0.052 -0.2062  1.3937  1.4966
12919TIP3   OH260171   4.180   6.254  13.540 -0.0122  0.6854 -0.2704
12919TIP3    H160172   4.178   6.332  13.596  1.1874  0.0428  0.7092
12919TIP3    H260173   4.268   6.254  13.502  0.1227 -0.3603  0.0117
12920TIP3   OH260174   3.447   0.977  11.656  0.0974 -0.7529  0.0100
12920TIP3    H160175   3.435   0.933  11.741 -3.6343  0.3689  0.2564
12920TIP3    H260176   3.447   1.070  11.677  0.3791 -0.4812 -1.1276
12921TIP3   OH260177   5.080   4.908   0.093  0.1583 -0.1148 -0.4051
12921TIP3    H160178   5.158   4.960   0.114  0.5338 -0.7928 -0.0596
12921TIP3    H260179   5.089   4.888   0.000 -0.7450  1.6543 -0.9039
12922TIP3   OH260180   3.874   2.827   4.574 -0.3038 -0.6176  0.4685
12922TIP3    H160181   3.966   2.811   4.596  0.6362  1.9600 -1.1793
12922TIP3    H260182   3.842   2.882   4.646  0.1259  0.3566 -0.0758
12923TIP3   OH260183   0.582   2.389   0.204  0.3126  0.1619 -1.1174
12923TIP3    H160184   0.623   2.374   0.119  1.3991 -1.3075 -0.3863
12923TIP3    H260185   0.650   2.369   0.268  0.2268  3.3401  0.1554
12924TIP3   OH260186   5.394   5.871  16.531 -0.6234 -0.1176  0.0556
12924TIP3    H160187   5.349   5.830  16.457  0.7112 -0.5408 -0.5517
12924TIP3    H260188   5.401   5.963  16.506 -0.6343 -0.1600 -0.1089
12925TIP3   OH260189   4.220   0.273  10.966 -0.1668  0.2154 -0.7030
12925TIP3    H160190   4.177   0.242  10.887  0.1799  0.5719 -1.0332
12925TIP3    H260191   4.261   0.195  11.004  0.4443  0.2023 -1.3702
12926TIP3   OH260192   0.136   6.164   6.649 -0.4044  0.4912  0.0286
12926TIP3    H160193   0.142   6.246   6.699 -1.6848  1.5110 -1.3809
12926TIP3    H260194   0.070   6.182   6.582 -2.1429 -2.3454  0.8343
12927TIP3   OH260195   1.114   6.556  11.364 -0.2553  0.4305  0.2403
12927TIP3    H160196   1.076   6.497  11.299  0.0316  0.0503  0.4163
12927TIP3    H260197   1.180   6.605  11.316 -0.5162  0.6325  0.0858
12928TIP3   OH260198   2.608   5.229  11.136 -0.3960 -0.2896 -0.2663
12928TIP3    H160199   2.642   5.250  11.223 -1.1619  1.7662 -0.3928
12928TIP3    H260200   2.684   5.239  11.077  0.1701 -1.8819  0.1388
12929TIP3   OH260201   4.449   3.237   1.690  0.4410 -0.0285  0.4330
12929TIP3    H160202   4.361   3.276   1.690  1.1332  1.7356  2.0682
12929TIP3    H260203   4.465   3.214   1.599 -1.5307  0.0315  0.0236
12930TIP3   OH260204   2.438   0.310  12.723  0.8183 -0.0997 -0.3056
12930TIP3    H160205   2.403   0.226  12.755  0.7754  0.5788  1.5428
12930TIP3    H260206   2.404   0.316  12.634  0.0306 -1.6155 -0.1622
12931TIP3   OH260207   3.910   4.137   1.658 -0.3137 -0.1381  0.3855
12931TIP3    H160208   3.935   4.045   1.642 -0.2608 -0.4331  1.9758
12931TIP3    H260209   3.891   4.140   1.752  0.4574  1.6607  0.5202
12932TIP3   OH260210   1.198   3.295  12.086 -0.0791  0.2080  0.2208
12932TIP3    H160211   1.213   3.247  12.005 -0.3327 -0.2409  0.4396
12932TIP3    H260212   1.178   3.228  12.151  0.2719  0.5519  0.6908
12933TIP3   OH260213   5.373   4.766  11.152 -0.3571 -0.0990 -0.3626
12933TIP3    H160214   5.323   4.731  11.226  0.6952 -0.8991 -0.0045
12933TIP3    H260215   5.356   4.704  11.081 -0.0320 -0.2829 -0.2864
12934TIP3   OH260216   1.073   1.966  11.182 -0.0921  0.4800 -0.5289
12934TIP3    H160217   1.077   1.990  11.090 -1.5454  1.1079 -0.4535
12934TIP3    H260218   0.996   1.909  11.188 -0.1066  0.5834  0.3304
12935TIP3   OH260219   0.506   4.570   4.602  0.0078 -0.2237  0.0349
12935TIP3    H160220   0.488   4.657   4.638  1.5158 -0.0255  0.3629
12935TIP3    H260221   0.579   4.537   4.654 -1.6037 -2.4155  1.0543
12936TIP3   OH260222   2.020   3.018   4.169 -0.5646  0.1714 -0.0300
12936TIP3    H160223   2.064   2.938   4.142  0.1901  0.3230  0.7000
12936TIP3    H260224   2.088   3.070   4.211 -1.1545  0.9848 -0.0487
12937TIP3   OH260225   0.934   3.696   3.490  1.0431  0.2677 -0.7870
12937TIP3    H160226   1.007   3.635   3.499  0.9346  0.4335  3.0753
12937TIP3    H260227   0.924   3.734   3.578 -2.0127  2.2157 -1.8188
12938TIP3   OH260228   6.356   4.007  11.259  0.3542 -0.2584 -0.1404
12938TIP3    H160229   6.308   3.928  11.285  0.6807  0.0231  1.3894
12938TIP3    H260230   6.445   3.976  11.241  0.8203 -0.1077  1.6741
12939TIP3   OH260231   6.038   5.008  12.133  0.3440  0.1814 -0.0381
12939TIP3    H160232   6.031   4.954  12.212 -1.0014  0.8770  0.3348
12939TIP3    H260233   5.968   4.976  12.075  0.3703  0.6660 -0.3445
12940TIP3   OH260234   0.676   5.039   2.841  0.4830  0.5037 -0.5529
12940TIP3    H160235   0.619   5.115   2.855  0.0560 -0.2029  1.9227
12940TIP3    H260236   0.618   4.964   2.845  1.1505 -0.0771 -1.3549
12941TIP3   OH260237   1.690   1.125   5.612 -0.1401  0.1309 -0.3951
12941TIP3    H160238   1.638   1.204   5.628 -0.8138 -0.3121 -0.3734
12941TIP3    H260239   1.752   1.122   5.685  0.1309  0.8347 -0.5912
12942TIP3   OH260240   2.119   6.030  12.070 -0.0055  0.0272 -0.5873
12942TIP3    H160241   2.084   5.962  12.012 -0.1383 -0.7799  0.4187
12942TIP3    H260242   2.192   5.988  12.115  0.2520  0.7264 -0.3410
12943TIP3   OH260243   1.705   2.056   0.377  0.0448  0.1166 -0.6911
12943TIP3    H160244   1.709   1.968   0.414  0.9635 -0.2451 -1.5983
12943TIP3    H260245   1.651   2.047   0.298 -0.6444  0.5651 -0.2760
12944TIP3   OH260246   2.959   3.926   0.434  0.2455 -0.0410 -0.1664
12944TIP3    H160247   3.026   3.979   0.478  0.0098 -0.2533  0.4622
12944TIP3    H260248   2.953   3.962   0.346  0.2807  0.8093  0.1738
12945TIP3   OH260249   4.762   0.875  13.288  0.2394  0.5337 -0.2167
12945TIP3    H160250   4.747   0.795  13.337  0.5748  1.4226  1.4097
12945TIP3    H260251   4.846   0.861  13.244  0.4693  0.1302  0.3399
12946TIP3   OH260252   2.956   2.235   0.615  0.2196 -0.6613 -0.4239
12946TIP3    H160253   2.979   2.162   0.672 -0.4752 -0.1450  0.5334
12946TIP3    H260254   2.865   2.218   0.590 -0.2564  0.3539  0.5625
12947TIP3   OH260255   2.140   6.492   5.392 -0.4688  0.2706 -0.1717
12947TIP3    H160256   2.178   6.570   5.433 -1.1113  0.8472 -0.6358
12947TIP3    H260257   2.046   6.507   5.397 -0.6279 -0.8930  0.5031
12948TIP3   OH260258   6.555   2.896   5.310 -0.4609 -0.6529 -0.2187
12948TIP3    H160259   6.468   2.866   5.338 -0.3677  0.8168  1.8325
12948TIP3    H260260   6.573   2.845   5.231 -3.5037 -0.4653 -1.1526
12949TIP3   OH260261   0.143   1.309   3.725  0.5151  0.4925  0.5686
12949TIP3    H160262   0.188   1.233   3.763  2.1226  0.9410 -0.3361
12949TIP3    H260263   0.169   1.308   3.633 -0.4617  1.4288  0.2751
12950TIP3   OH260264   1.069   5.834  14.193  0.4442  0.1173 -0.4777
12950TIP3    H160265   1.048   5.906  14.134 -1.0474  0.0942 -0.0199
12950TIP3    H260266   1.063   5.756  14.139 -0.3344  0.1461 -0.4500
12951TIP3   OH260267   1.359   4.469   2.251  0.1666  0.0312  0.0252
12951TIP3    H160268   1.363   4.479   2.156 -1.2911  0.3029 -0.0303
12951TIP3    H260269   1.381   4.556   2.286  0.1577  0.0721 -0.0709
12952TIP3   OH260270   3.573   6.255   4.077 -0.0280  0.5205 -0.0617
12952TIP3    H160271   3.561   6.254   3.982  1.8314  1.2110 -0.3472
12952TIP3    H260272   3.521   6.329   4.107  0.0864  0.8434 -0.6515
12953TIP3   OH260273   6.741   5.610  12.581  0.0768 -0.6834  1.1409
12953TIP3    H160274   6.781   5.617  12.494 -0.4532  1.7635  1.0020
12953TIP3    H260275   6.652   5.581  12.564 -0.4912  1.1625  0.6334
12954TIP3   OH260276   5.681   1.679   5.600 -0.0657  0.3178  0.5446
12954TIP3    H160277   5.727   1.761   5.620 -0.1441  0.4482  0.2025
12954TIP3    H260278   5.603   1.707   5.552 -1.7098  0.2826  3.0435
12955TIP3   OH260279   0.194   3.076  11.810 -0.7479  0.4613 -0.4298
12955TIP3    H160280   0.239   3.160  11.815  0.4477 -0.2192  1.1119
12955TIP3    H260281   0.115   3.094  11.758  0.9916  1.8043 -2.8216
12956TIP3   OH260282   2.245   0.930   5.435  0.0601  0.0357 -0.2727
12956TIP3    H160283   2.291   0.958   5.514 -1.3601  0.4815  0.4291
12956TIP3    H260284   2.304   0.953   5.363  0.5550  1.3757  0.5315
12957TIP3   OH260285   2.081   1.725  14.426 -0.1432  0.2360  0.0987
12957TIP3    H160286   2.050   1.665  14.494  2.7474  0.4100  1.7488
12957TIP3    H260287   2.085   1.670  14.347 -0.8986 -0.7611  0.7201
12958TIP3   OH260288   0.163   4.778  16.293 -0.1904  0.3333 -0.5051
12958TIP3    H160289   0.183   4.841  16.362 -1.6356 -0.0317  0.2953
12958TIP3    H260290   0.187   4.822  16.212  0.0321  1.4133  0.1320
12959TIP3   OH260291   6.732   0.270  16.674 -0.0105  0.4056  0.2548
12959TIP3    H160292   6.722   0.232  16.761 -1.7218  1.1566  0.4339
12959TIP3    H260293   6.655   0.327  16.664  0.1261  0.3139 -1.7438
12960TIP3   OH260294   5.121   4.435  13.466 -0.5990 -0.5190  0.2460
12960TIP3    H160295   5.078   4.377  13.402  1.0330 -0.4390 -0.9713
12960TIP3    H260296   5.106   4.523  13.431  0.4398 -0.4859 -0.1303
12961TIP3   OH260297   5.183   4.449  15.898  0.2377  0.5906 -0.6929
12961TIP3    H160298   5.088   4.451  15.890  0.2927  0.5525 -1.4261
12961TIP3    H260299   5.201   4.368  15.946 -0.2009  1.6366  1.3570
12962TIP3   OH260300   5.535   0.655   5.614 -0.0235 -0.0818 -0.8106
12962TIP3    H160301   5.453   0.669   5.661 -1.1484 -0.8556 -2.4325
12962TIP3    H260302   5.566   0.743   5.590 -1.2315  0.1655 -1.5277
12963TIP3   OH260303   4.859   3.590  16.391  0.5138 -0.1047 -0.3364
12963TIP3    H160304   4.906   3.561  16.469  0.1737  1.5075  0.5173
12963TIP3    H260305   4.926   3.632  16.337  1.0356 -2.4155 -1.6372
12964TIP3   OH260306   1.725   4.004   2.181  0.0544  0.1636 -0.2995
12964TIP3    H160307   1.711   4.043   2.267 -0.3336  0.0615 -0.3133
12964TIP3    H260308   1.682   3.919   2.186  0.3852 -0.0124 -0.4627
12965TIP3   OH260309   3.061   4.192  14.076 -0.1744 -0.3110  0.5022
12965TIP3    H160310   3.061   4.216  13.983 -0.6622 -0.9067  0.3431
12965TIP3    H260311   3.153   4.173  14.096  0.0644  0.6173  0.3611
12966TIP3   OH260312   2.547   4.455  14.836  0.3102  0.6689  0.2651
12966TIP3    H160313   2.477   4.391  14.822  0.8127  0.0268  0.5981
12966TIP3    H260314   2.547   4.469  14.931 -0.8075  2.3570  0.0639
12967TIP3   OH260315   5.795   2.097   2.960  0.3588 -0.0598  0.7464
12967TIP3    H160316   5.725   2.081   2.896  1.1408 -0.7388  0.0428
12967TIP3    H260317   5.753   2.083   3.045  0.1494 -2.6345  0.2872
12968TIP3   OH260318   6.515   2.516   1.802  0.2856  0.3629 -0.0146
12968TIP3    H160319   6.605   2.535   1.777  0.5334 -1.0165 -0.2089
12968TIP3    H260320   6.519   2.433   1.848 -0.8468  0.4502  0.2840
12969TIP3   OH260321   5.626   2.894   4.586  0.4081  0.2117 -0.1646
12969TIP3    H160322   5.583   2.810   4.569 -1.8561  1.1810  0.4363
12969TIP3    H260323   5.633   2.898   4.682  1.0519  0.4698 -0.2170
12970TIP3   OH260324   6.410   6.328   2.754 -0.5271 -0.0460 -0.1649
12970TIP3    H160325   6.428   6.400   2.693  1.2259 -0.7671 -0.5379
12970TIP3    H260326   6.458   6.351   2.834  1.3580 -1.5071 -0.8165
12971TIP3   OH260327   4.843   0.632   4.748 -0.5031 -1.2522 -0.0317
12971TIP3    H160328   4.880   0.651   4.834  0.3632 -1.3737 -0.3715
12971TIP3    H260329   4.765   0.580   4.767 -0.1805 -1.4924  0.6690
12972TIP3   OH260330   4.734   4.207  12.908  0.3468 -0.0477  0.6672
12972TIP3    H160331   4.730   4.220  12.813  0.9172  1.4936  0.8232
12972TIP3    H260332   4.774   4.121  12.919 -0.1777 -0.4620 -0.4857
12973TIP3   OH260333   4.018   2.816  14.171 -0.4730 -0.1946  0.0621
12973TIP3    H160334   3.927   2.846  14.165  0.0807  1.7518  0.5528
12973TIP3    H260335   4.012   2.721  14.172 -2.4532 -0.1237 -0.6135
12974TIP3   OH260336   4.771   4.966  16.868  0.8103 -0.5630  0.0638
12974TIP3    H160337   4.712   5.029  16.826  1.1091 -0.0386  0.4068
12974TIP3    H260338   4.858   5.000  16.851  1.0334 -1.4480 -0.6170
12975TIP3   OH260339   5.873   3.546   5.842 -0.0512 -0.6010 -0.3739
12975TIP3    H160340   5.820   3.541   5.921  0.1624  1.8642  0.0140
12975TIP3    H260341   5.848   3.630   5.802  2.1133 -0.3053 -1.2413
12976TIP3   OH260342   2.746   0.439   3.212  0.0959 -0.1253  0.2034
12976TIP3    H160343   2.833   0.479   3.209 -0.4472  1.1542  0.6293
12976TIP3    H260344   2.712   0.464   3.298 -0.2774 -1.5530  0.4894
12977TIP3   OH260345   6.133   3.066  11.080  0.1946 -0.1211  0.5675
12977TIP3    H160346   6.123   2.971  11.085 -0.4073 -0.1033 -0.2640
12977TIP3    H260347   6.103   3.090  10.993  0.1628  0.8591  0.8292
12978TIP3   OH260348   2.421   2.579  14.827  0.4545  0.5171  0.2999
12978TIP3    H160349   2.479   2.609  14.757 -0.3527 -1.2621 -1.2115
12978TIP3    H260350   2.455   2.494  14.853  0.2044  0.7525  1.4484
12979TIP3   OH260351   2.255   5.803  10.666 -0.3994 -0.1159  0.2647
12979TIP3    H160352   2.224   5.719  10.699 -1.1795 -0.7767 -1.9550
12979TIP3    H260353   2.346   5.787  10.641  0.5109  0.6420  2.7468
12980TIP3   OH260354   1.981   5.876  16.926 -0.1265 -0.0983  0.2671
12980TIP3    H160355   2.056   5.926  16.895 -0.6779  0.2190 -0.5723
12980TIP3    H260356   2.020   5.796  16.964  0.6451  0.2041  0.1312
12981TIP3   OH260357   5.155   3.533  12.002 -0.0122  0.2967 -0.1020
12981TIP3    H160358   5.177   3.617  12.041  0.3168 -0.8761  2.4268
12981TIP3    H260359   5.169   3.546  11.908  2.9796  2.1853  0.4750
12982TIP3   OH260360   4.420   4.311  16.928 -0.1058  0.0875 -0.3994
12982TIP3    H160361   4.373   4.233  16.896  0.0765 -0.6570  1.0480
12982TIP3    H260362   4.507   4.304  16.889  0.7757 -1.8848  1.6683
12983TIP3   OH260363   1.944   4.864   2.632  0.0579 -0.7449 -0.4409
12983TIP3    H160364   1.952   4.950   2.674 -0.6791 -0.7368 -0.3048
12983TIP3    H260365   2.002   4.807   2.682  0.9877 -0.2126 -0.8711
12984TIP3   OH260366   2.956   3.058   1.169  0.3146 -0.5042 -0.4413
12984TIP3    H160367   3.040   3.023   1.201  0.3443  0.6505  0.8233
12984TIP3    H260368   2.981   3.124   1.105  0.5215  1.3826  1.4729
12985TIP3   OH260369   6.564   2.254  13.908  0.7680 -0.5805  0.0774
12985TIP3    H160370   6.539   2.282  13.819  0.5153 -1.3450 -0.1052
12985TIP3    H260371   6.588   2.335  13.953 -0.0918 -0.0504 -0.3780
12986TIP3   OH260372   6.403   6.370  17.059  0.3451 -0.1425  0.5832
12986TIP3    H160373   6.418   6.402  17.148 -0.3312 -0.3983  0.8031
12986TIP3    H260374   6.325   6.418  17.029 -0.2071 -0.9841  0.6272
12987TIP3   OH260375   3.385   3.672  12.988  0.0115 -0.4387  0.6296
12987TIP3    H160376   3.431   3.738  13.041 -2.2215  0.7433  1.2275
12987TIP3    H260377   3.431   3.672  12.905  0.7337  1.1132  0.9935
12988TIP3   OH260378   0.216   1.402   1.145 -0.1990 -0.6104  0.0339
12988TIP3    H160379   0.253   1.490   1.153 -1.3189 -0.1026 -0.1685
12988TIP3    H260380   0.248   1.370   1.061 -1.8133  0.6433 -1.1360
12989TIP3   OH260381   1.658   5.470  15.172 -0.5092  0.3097  0.5699
12989TIP3    H160382   1.739   5.423  15.189 -1.9695 -2.3115  0.9290
12989TIP3    H260383   1.657   5.485  15.078  0.6660  0.9933  0.6551
12990TIP3   OH260384   4.241   5.983   3.818 -0.0959 -0.2133  0.2948
12990TIP3    H160385   4.259   5.905   3.766  1.9194  0.3491  0.0752
12990TIP3    H260386   4.300   6.050   3.782 -0.1392  0.7685  1.9590
12991TIP3   OH260387   0.597   3.731  12.408 -0.0113 -0.4197 -0.7487
12991TIP3    H160388   0.512   3.760  12.375  0.4428 -1.4845 -3.1025
12991TIP3    H260389   0.576   3.660  12.469 -0.8506  0.7036  0.3261
12992TIP3   OH260390   5.063   2.471   2.321  0.1745  0.1808  0.1753
12992TIP3    H160391   5.085   2.520   2.400 -2.2340  0.0651  0.9897
12992TIP3    H260392   5.050   2.538   2.254 -0.2581  0.4573  0.5336
12993TIP3   OH260393   3.582   2.022   4.651  0.5338  0.3400  0.4127
12993TIP3    H160394   3.508   2.056   4.700 -1.5065  0.1094 -2.2491
12993TIP3    H260395   3.588   1.930   4.677 -0.6235  0.1715  0.1129
12994TIP3   OH260396   0.757   5.845  13.717 -0.5600 -0.3744 -0.3418
12994TIP3    H160397   0.831   5.811  13.668  0.7910  0.6634  0.8717
12994TIP3    H260398   0.710   5.900  13.655  0.6649  0.2880 -0.7204
12995TIP3   OH260399   3.872   5.191   0.546 -0.1792  0.3156 -0.1612
12995TIP3    H160400   3.836   5.105   0.568 -2.5816  1.6151  1.4772
12995TIP3    H260401   3.802   5.234   0.497  0.9699  1.3848 -0.9142
12996TIP3   OH260402   6.758   2.084  11.961  0.2288  0.5339 -0.5849
12996TIP3    H160403   6.848   2.077  11.928  0.9567  1.0605  1.1816
12996TIP3    H260404   6.712   2.132  11.893  1.0819 -0.3983 -1.8674
12997TIP3   OH260405   2.940   0.655  12.553 -0.3869 -0.5125 -0.2482
12997TIP3    H160406   2.879   0.593  12.513  0.6292 -1.0848 -0.9552
12997TIP3    H260407   2.941   0.730  12.494  0.6059 -1.0760 -0.9684
12998TIP3   OH260408   4.456   0.971  14.315  0.0423 -0.7470  0.0444
12998TIP3    H160409   4.369   0.955  14.277 -0.9480  2.8693  0.3977
12998TIP3    H260410   4.443   0.960  14.409 -0.2887  0.5213  0.1654
12999TIP3   OH260411   0.118   4.325  12.513 -0.8942 -0.9134 -0.0035
12999TIP3    H160412   0.180   4.321  12.586 -0.4207  1.0168 -0.2430
12999TIP3    H260413   0.144   4.253  12.455 -0.5658 -1.7637  1.1615
13000TIP3   OH260414   3.735   1.342   5.171  0.0809 -0.8929 -0.0860
13000TIP3    H160415   3.776   1.402   5.233 -3.1771 -1.7264  3.1983
13000TIP3    H260416   3.693   1.400   5.107 -0.6830  0.3170  1.4267
13001TIP3   OH260417   5.215   4.119   3.123  0.5668 -0.3905  0.4504
13001TIP3    H160418   5.256   4.048   3.074  0.3927 -0.4176  0.3416
13001TIP3    H260419   5.279   4.142   3.190  0.6865 -0.5496  0.3924
13002TIP3   OH260420   4.306   4.052   5.387 -0.1737 -0.2526 -0.2337
13002TIP3    H160421   4.286   4.140   5.419  1.0149  0.5723 -1.6491
13002TIP3    H260422   4.380   4.064   5.327 -0.9886 -1.9908 -1.6767
13003TIP3   OH260423   6.462   0.746   1.993  0.3679 -0.4419 -0.0183
13003TIP3    H160424   6.398   0.792   2.048 -0.6312 -1.8788  0.0758
13003TIP3    H260425   6.515   0.696   2.055 -1.1842 -2.5935 -0.3166
13004TIP3   OH260426   1.787   0.233   5.560 -0.2123  0.2134 -0.3911
13004TIP3    H160427   1.791   0.328   5.550  1.6440  0.0837 -1.3309
13004TIP3    H260428   1.879   0.206   5.564 -0.7088 -1.5567 -0.2422
13005TIP3   OH260429   1.766   0.973  10.680 -0.4486  0.0478  0.2382
13005TIP3    H160430   1.726   1.059  10.690 -0.4265 -0.0271  1.0950
13005TIP3    H260431   1.713   0.916  10.735 -1.6318 -0.9044 -1.7663
13006TIP3   OH260432   1.519   6.767  11.985  0.0269 -0.5315 -0.5076
13006TIP3    H160433   1.474   6.722  12.057  1.4292 -2.3680 -0.7183
13006TIP3    H260434   1.463   6.843  11.966 -2.9709 -2.6196 -0.7144
13007TIP3   OH260435   6.372   1.282   4.263 -0.2154  0.0293 -0.0688
13007TIP3    H160436   6.448   1.262   4.210 -0.0153  1.8643 -0.5377
13007TIP3    H260437   6.303   1.226   4.229  1.1868 -2.6927  1.2613
13008TIP3   OH260438   6.373   1.599  16.468  0.3067 -0.6046  0.0453
13008TIP3    H160439   6.443   1.608  16.532  1.2022  0.1497 -0.9991
13008TIP3    H260440   6.365   1.504  16.454  0.3295 -0.7543  1.0124
13009TIP3   OH260441   0.638   4.597   0.751 -0.1068 -0.9500  0.5532
13009TIP3    H160442   0.700   4.546   0.802 -0.8688 -1.8545  0.5903
13009TIP3    H260443   0.692   4.663   0.708  1.0537 -2.3686 -0.2611
13010TIP3   OH260444   5.482   4.486  16.219  0.4826  0.0804 -0.3818
13010TIP3    H160445   5.498   4.564  16.272  1.0493 -0.5287  0.3711
13010TIP3    H260446   5.547   4.493  16.148 -1.3678  1.7517 -2.0290
13011TIP3   OH260447   0.089   0.352   4.689 -0.3296 -0.0781 -0.6499
13011TIP3    H160448   0.158   0.325   4.750 -0.4227 -0.0608 -0.5387
13011TIP3    H260449   0.137   0.384   4.612 -0.2129 -0.0590 -0.5687
13012TIP3   OH260450   3.774   6.010  14.511 -0.1784  0.3422 -0.1680
13012TIP3    H160451   3.744   5.920  14.525  0.4939 -0.0905 -1.3674
13012TIP3    H260452   3.860   6.000  14.471 -0.1991  1.5274 -0.5326
13013TIP3   OH260453   5.309   4.057   0.566 -0.1702  0.2408  0.0182
13013TIP3    H160454   5.312   4.002   0.487  1.0697  2.2872 -1.4352
13013TIP3    H260455   5.215   4.071   0.581 -0.4735 -1.3546 -0.1979
13014TIP3   OH260456   1.554   3.535   2.667 -0.4345  0.0768 -0.4969
13014TIP3    H160457   1.514   3.534   2.580 -1.1064  1.4286 -0.2285
13014TIP3    H260458   1.618   3.606   2.663 -0.2798 -0.0296  0.0369
13015TIP3   OH260459   0.720   6.504   3.246 -0.0957 -0.0091  0.3933
13015TIP3    H160460   0.722   6.409   3.240  1.2568 -0.1328  1.8502
13015TIP3    H260461   0.634   6.525   3.282  0.0510 -0.7944  1.2288
13016TIP3   OH260462   3.576   0.416  13.934  0.2188  0.2133  0.0491
13016TIP3    H160463   3.546   0.506  13.927 -0.2397 -0.0458 -1.7066
13016TIP3    H260464   3.517   0.366  13.878  0.1294 -1.2821  1.3879
13017TIP3   OH260465   3.150   5.564  12.463 -0.2149  0.1687 -0.0970
13017TIP3    H160466   3.209   5.517  12.404  2.3511  0.8973  1.7264
13017TIP3    H260467   3.170   5.657  12.448 -1.2764  0.4579  0.2206
13018TIP3   OH260468   3.042   1.265  15.684 -0.1464 -0.4780 -0.1169
13018TIP3    H160469   3.023   1.226  15.769 -1.4381 -1.7618 -0.9673
13018TIP3    H260470   3.137   1.280  15.686  0.2501 -2.6771  0.6648
13019TIP3   OH260471   5.516   3.593   4.074 -0.1841 -0.5471 -0.3936
13019TIP3    H160472   5.591   3.565   4.127 -0.8677 -3.0032 -0.5651
13019TIP3    H260473   5.449   3.528   4.093 -2.6360  2.0528  0.4087
13020TIP3   OH260474   3.067   5.111  10.831 -0.3526  0.0443  0.3060
13020TIP3    H160475   3.103   5.144  10.748  0.7577 -3.5041 -0.7787
13020TIP3    H260476   2.984   5.072  10.807  0.0528 -1.1539  0.8025
13021TIP3   OH260477   4.325   2.621  15.243  0.6137  0.8401  0.6746
13021TIP3    H160478   4.345   2.527  15.246 -0.2975  0.6117  0.1417
13021TIP3    H260479   4.265   2.634  15.317 -0.1167  0.7769  0.1008
13022TIP3   OH260480   2.981   1.982  13.120 -0.2447 -0.1186 -0.6816
13022TIP3    H160481   3.024   1.987  13.035  1.2981 -2.5815 -0.1354
13022TIP3    H260482   3.050   1.958  13.181 -1.6760 -0.3065  0.9417
13023TIP3   OH260483   5.869   0.901   4.341  0.4832  0.3232 -0.1465
13023TIP3    H160484   5.891   0.809   4.358 -2.3838 -0.1866  1.3064
13023TIP3    H260485   5.834   0.934   4.423 -3.8638  0.9710 -1.9764
13024TIP3   OH260486   3.491   6.334   3.120 -0.1581 -0.8482 -0.1783
13024TIP3    H160487   3.468   6.326   3.213  0.3811 -0.7231 -0.0322
13024TIP3    H260488   3.408   6.318   3.074 -0.0473 -2.9639  0.2384
13025TIP3   OH260489   4.273   0.921   1.429 -0.9055 -0.4148  0.6087
13025TIP3    H160490   4.313   1.007   1.444  0.8708 -0.7928 -1.4454
13025TIP3    H260491   4.190   0.939   1.386 -0.4563  0.2861  0.0203
13026TIP3   OH260492   6.637   6.355  15.504  0.1730 -0.0733 -0.4868
13026TIP3    H160493   6.668   6.330  15.591  1.2675 -0.3282 -0.9312
13026TIP3    H260494   6.595   6.276  15.470  1.4147 -0.5692 -0.9126
13027TIP3   OH260495   0.263   4.084   0.829  0.3814  0.2352  0.2250
13027TIP3    H160496   0.341   4.035   0.857  0.2976  0.7880  1.4687
13027TIP3    H260497   0.286   4.176   0.843  0.2871  0.5570 -1.4700
13028TIP3   OH260498   0.208   0.522   6.024  0.0777 -0.0011  0.0728
13028TIP3    H160499   0.256   0.510   6.105  1.0723  0.3193 -0.4583
13028TIP3    H260500   0.220   0.615   6.003  2.2739 -0.6425 -1.9195
13029TIP3   OH260501   6.753   2.857  13.509  0.3220 -0.0308  0.1404
13029TIP3    H160502   6.818   2.786  13.507 -0.2506 -0.6747  1.8277
13029TIP3    H260503   6.763   2.895  13.596 -2.2438 -0.8742  0.9176
13030TIP3   OH260504   3.218   6.030  16.548 -0.1573  0.1040 -0.0053
13030TIP3    H160505   3.184   6.115  16.520 -2.3195 -0.5284  0.4905
13030TIP3    H260506   3.306   6.026  16.512 -0.8373  1.5781 -1.9963
13031TIP3   OH260507   6.155   4.166   0.604  0.2848 -0.5873  0.0032
13031TIP3    H160508   6.088   4.167   0.671  1.2136 -1.5942  0.9806
13031TIP3    H260509   6.221   4.228   0.635  1.0286 -1.5451  0.3673
13032TIP3   OH260510   2.718   3.015  14.534 -0.3274 -0.0819 -0.5655
13032TIP3    H160511   2.728   2.996  14.627 -0.4337  1.9472 -0.0807
13032TIP3    H260512   2.784   2.962  14.490  0.3622 -0.3538  0.7694
13033TIP3   OH260513   3.686   2.121   0.499 -0.2306 -0.1157  0.1338
13033TIP3    H160514   3.774   2.087   0.483  0.1786  1.1609 -0.5301
13033TIP3    H260515   3.639   2.050   0.542  0.0141 -2.1893 -2.7500
13034TIP3   OH260516   4.361   0.743  15.611 -0.7166 -0.0129 -0.6152
13034TIP3    H160517   4.390   0.685  15.681 -1.7021 -0.2598 -0.3907
13034TIP3    H260518   4.437   0.798  15.592 -0.2005 -0.4520  0.1204
13035TIP3   OH260519   2.139   4.816  12.429  0.0797  0.0531 -0.0945
13035TIP3    H160520   2.181   4.783  12.508  0.0354  1.9851  0.7833
13035TIP3    H260521   2.210   4.854  12.378 -0.3411  2.2973  0.8662
13036TIP3   OH260522   3.625   1.164  12.757 -0.1928 -0.6541 -0.7624
13036TIP3    H160523   3.652   1.256  12.764 -1.6182 -0.3026  0.7057
13036TIP3    H260524   3.690   1.116  12.808 -1.5663  0.0563  1.8126
13037TIP3   OH260525   5.979   2.598   2.767  0.1894 -0.4235 -0.2689
13037TIP3    H160526   6.018   2.573   2.851  1.5536  0.0357 -0.7319
13037TIP3    H260527   5.900   2.545   2.761  1.0141 -1.8171  0.4960
13038TIP3   OH260528   0.778   4.116   5.476 -0.0174 -0.1660 -0.4477
13038TIP3    H160529   0.769   4.041   5.534  0.2962 -0.8568 -1.2854
13038TIP3    H260530   0.860   4.158   5.504  0.5083 -0.9070 -0.8565
13039TIP3   OH260531   4.164   0.036  13.223  0.0087 -0.4018 -0.3299
13039TIP3    H160532   4.190  -0.045  13.267 -1.8761 -0.2661  1.1881
13039TIP3    H260533   4.239   0.095  13.237  0.5771 -1.2409  0.3249
13040TIP3   OH260534   3.836   5.047  13.015  1.0502 -0.0853  0.6591
13040TIP3    H160535   3.846   4.970  12.958 -0.4615 -0.4912  0.9009
13040TIP3    H260536   3.893   5.029  13.090 -0.0963 -1.5127  1.2366
13041TIP3   OH260537   1.844   4.904  11.412 -0.0950 -0.0108 -0.2180
13041TIP3    H160538   1.937   4.891  11.392  0.3813  2.5832  0.0616
13041TIP3    H260539   1.798   4.875  11.333  0.9035 -1.4586 -0.3076
13042TIP3   OH260540   4.899   0.020   3.426  0.0200  0.2275 -0.6928
13042TIP3    H160541   4.911   0.085   3.495 -0.2542  0.7156 -1.0965
13042TIP3    H260542   4.804   0.009   3.420  0.0209  0.5164 -1.2890
13043TIP3   OH260543   2.626   0.282   5.919  0.3601  0.1351 -0.2617
13043TIP3    H160544   2.632   0.365   5.967 -0.9417  1.0481 -1.5943
13043TIP3    H260545   2.559   0.297   5.853  0.6333 -1.7569 -1.0351
13044TIP3   OH260546   1.118   2.110  10.661  0.2928 -0.2884 -0.2240
13044TIP3    H160547   1.124   2.029  10.611  1.5587 -0.3444  0.0003
13044TIP3    H260548   1.204   2.152  10.651 -0.7031  1.6355 -1.3609
13045TIP3   OH260549   2.006   6.559   4.040 -0.3392 -0.2397  0.2136
13045TIP3    H160550   2.064   6.497   4.083  0.0313 -0.5120 -0.6511
13045TIP3    H260551   1.970   6.511   3.966 -1.1732  0.1328  0.3690
13046TIP3   OH260552   3.771   0.693  16.870 -0.1169  0.6216  0.6860
13046TIP3    H160553   3.827   0.745  16.811 -0.0672 -0.2295 -0.0373
13046TIP3    H260554   3.807   0.605  16.866 -1.2550  0.1482  0.5295
13047TIP3   OH260555   6.530   1.715  12.316  0.2931 -0.5799  0.1311
13047TIP3    H160556   6.571   1.797  12.289  1.1596 -1.0132  0.0979
13047TIP3    H260557   6.437   1.736  12.323  0.7035  0.8696  1.8990
13048TIP3   OH260558   5.019   6.335   4.275  0.4943  0.2193 -0.1183
13048TIP3    H160559   4.938   6.289   4.295  0.0995  1.3698  1.0687
13048TIP3    H260560   5.062   6.280   4.209 -1.1758 -0.4682 -0.6964
13049TIP3   OH260561   1.019   0.521   4.716 -0.2105 -0.7785 -0.4149
13049TIP3    H160562   1.060   0.599   4.678 -1.6250  0.7717  1.0619
13049TIP3    H260563   0.972   0.480   4.643 -1.4788  1.1664 -0.7571
13050TIP3   OH260564   3.509   2.138  11.257  0.0949  0.2452 -0.4612
13050TIP3    H160565   3.565   2.084  11.201  0.6129 -0.4711  0.7144
13050TIP3    H260566   3.569   2.179  11.320 -0.3668  1.7495 -0.9486
13051TIP3   OH260567   3.194   0.224   6.463 -0.3741 -0.2516 -0.6799
13051TIP3    H160568   3.195   0.130   6.445  0.6717 -0.1053 -1.4552
13051TIP3    H260569   3.115   0.237   6.516 -0.5730 -1.5478 -0.6198
13052TIP3   OH260570   0.441   5.166   2.979  0.1692 -0.2134  0.0795
13052TIP3    H160571   0.384   5.150   3.054  0.9932 -0.2815  0.7130
13052TIP3    H260572   0.404   5.244   2.937  0.0550  0.2077  0.9331
13053TIP3   OH260573   2.608   0.332  16.873  0.0047 -0.6634  0.1075
13053TIP3    H160574   2.581   0.291  16.791 -0.7590  1.4118 -0.7314
13053TIP3    H260575   2.638   0.419  16.847  1.2439 -0.5233  1.8619
13054TIP3   OH260576   1.725   4.168   2.411 -0.0830 -0.6022 -0.2225
13054TIP3    H160577   1.678   4.211   2.483 -1.9709 -2.0057 -0.5221
13054TIP3    H260578   1.729   4.235   2.343  1.9357  0.8206  1.1901
13055TIP3   OH260579   1.959   6.642   3.655  0.4751  0.3857 -0.2984
13055TIP3    H160580   1.924   6.648   3.743  2.8361  0.6247  0.7107
13055TIP3    H260581   1.956   6.549   3.634  0.9067  0.1799  0.5120
13056TIP3   OH260582   0.991   2.602  11.440  0.2572 -1.0879  0.3103
13056TIP3    H160583   0.930   2.675  11.452 -0.5502 -1.5548 -0.7725
13056TIP3    H260584   0.943   2.540  11.384  0.8954 -2.4796  1.2607
13057TIP3   OH260585   0.002   1.778   2.518 -0.0786  0.2174 -0.5124
13057TIP3    H160586   0.066   1.842   2.547  2.0177 -2.2356  0.6585
13057TIP3    H260587   0.041   1.737   2.440 -0.7836 -0.4993 -0.5097
13058TIP3   OH260588   4.307   5.220   6.690 -0.4026  0.0498 -0.6510
13058TIP3    H160589   4.286   5.147   6.747  1.6401  0.4631  0.7190
13058TIP3    H260590   4.239   5.285   6.708 -1.3829 -0.9041 -0.8113
13059TIP3   OH260591   1.063   3.262  13.607  0.3232  0.1542  0.0988
13059TIP3    H160592   1.151   3.297  13.594  0.1426 -0.2197 -2.6434
13059TIP3    H260593   1.018   3.330  13.657  0.9959  2.2779 -2.0188
13060TIP3   OH260594   2.132   0.175   3.924 -0.0315  0.0195 -0.5457
13060TIP3    H160595   2.217   0.168   3.879 -0.9024 -0.6802 -2.1724
13060TIP3    H260596   2.138   0.112   3.996  1.1874  0.7126 -0.0193
13061TIP3   OH260597   3.724   4.328  16.063  0.0153  0.3733  0.3258
13061TIP3    H160598   3.750   4.239  16.039 -1.9208 -0.4648  1.1172
13061TIP3    H260599   3.748   4.336  16.155  2.0805  1.4620 -0.2615
13062TIP3   OH260600   1.174   0.423  15.230 -0.2815  0.1928 -0.5937
13062TIP3    H160601   1.192   0.337  15.267 -0.7683  0.3725  0.0649
13062TIP3    H260602   1.191   0.413  15.136 -0.4211 -0.6417 -0.5329
13063TIP3   OH260603   4.326   4.157  14.306 -0.8054  0.7553 -0.5043
13063TIP3    H160604   4.403   4.125  14.354 -0.1202  1.5683 -1.0441
13063TIP3    H260605   4.297   4.233  14.356 -0.2567  1.4378 -1.2051
13064TIP3   OH260606   5.765   0.673   0.681  0.2526 -0.2926  0.2451
13064TIP3    H160607   5.695   0.682   0.617 -0.8481  1.4539  1.5911
13064TIP3    H260608   5.830   0.738   0.655  0.2994 -0.3158  0.3033
13065TIP3   OH260609   1.393   5.922  15.806  0.5221  0.3772 -0.5403
13065TIP3    H160610   1.473   5.870  15.808  0.6780  0.6296 -0.0830
13065TIP3    H260611   1.423   6.011  15.786  0.4261  0.5876  0.2052
13066TIP3   OH260612   3.961   5.110   1.891 -0.1058 -0.9358 -0.1908
13066TIP3    H160613   3.952   5.182   1.953  0.7455 -2.7047  2.1275
13066TIP3    H260614   4.028   5.053   1.929  0.7831 -1.9413 -2.9653
13067TIP3   OH260615   4.907   6.240   2.931 -0.1476 -0.4802 -0.2980
13067TIP3    H160616   4.990   6.242   2.979  0.0490  0.5271 -0.6589
13067TIP3    H260617   4.898   6.328   2.895 -0.9773 -0.8213 -0.9514
13068TIP3   OH260618   1.989   0.923   2.440 -0.1933 -0.8730 -0.0775
13068TIP3    H160619   2.080   0.941   2.465  0.0571  1.0248 -2.0830
13068TIP3    H260620   1.986   0.828   2.427  0.4511 -1.5784  3.6572
13069TIP3   OH260621   4.360   2.194  14.754  0.1258  0.2197 -0.3669
13069TIP3    H160622   4.272   2.194  14.790  0.5243  1.2165  0.6833
13069TIP3    H260623   4.377   2.285  14.730  1.2950  0.3105  0.6333
13070TIP3   OH260624   1.251   2.163  11.223  0.7893 -0.4125 -0.0602
13070TIP3    H160625   1.300   2.150  11.142  2.2772  2.5686  0.2289
13070TIP3    H260626   1.173   2.108  11.213  0.4579  0.4474 -3.9152
13071TIP3   OH260627   5.240   5.820  11.315 -0.1660  0.5236  0.2268
13071TIP3    H160628   5.291   5.796  11.393 -0.7113 -0.4053  0.3167
13071TIP3    H260629   5.222   5.736  11.272 -0.3109  0.9857 -0.6250
13072TIP3   OH260630   3.932   3.402  14.459 -0.1805 -0.4050  0.2161
13072TIP3    H160631   4.022   3.380  14.482  0.0036  0.0107 -0.0829
13072TIP3    H260632   3.903   3.461  14.529  0.0452  0.0777 -0.0943
13073TIP3   OH260633   6.363   3.626   2.701  0.1786  0.2944 -0.2328
13073TIP3    H160634   6.350   3.546   2.650  1.2795  0.1621 -0.3400
13073TIP3    H260635   6.301   3.689   2.665 -0.4972 -0.4241 -0.3436
13074TIP3   OH260636   5.166   6.611   2.709 -0.2166  0.9070  0.4549
13074TIP3    H160637   5.185   6.646   2.796 -0.0375 -0.0360  0.8072
13074TIP3    H260638   5.072   6.591   2.711 -0.5177  2.1757 -0.0534
13075TIP3   OH260639   0.469   2.948   4.323  0.2012 -0.4495  0.0443
13075TIP3    H160640   0.383   2.905   4.316 -1.2064  2.0888  0.4225
13075TIP3    H260641   0.470   2.984   4.412  0.4176  1.8857 -0.8368
13076TIP3   OH260642   2.909   4.598   0.176 -0.1615  0.5253  0.1713
13076TIP3    H160643   3.001   4.579   0.196 -0.7245 -0.8829  1.5436
13076TIP3    H260644   2.900   4.575   0.083  0.5743 -0.5373  0.3456
13077TIP3   OH260645   4.990   1.872   4.882  0.2000  0.1171  0.6956
13077TIP3    H160646   4.981   1.792   4.934  0.1437  0.3298  1.0158
13077TIP3    H260647   4.909   1.920   4.898  0.6467  0.6933  1.2841
13078TIP3   OH260648   2.193   4.583   5.363  0.7248 -0.0998 -0.1983
13078TIP3    H160649   2.130   4.521   5.325 -0.2323  0.6218  0.1512
13078TIP3    H260650   2.156   4.669   5.342  0.4965  0.3265  1.7972
13079TIP3   OH260651   4.107   1.277   1.907  0.0152  0.3498  0.4871
13079TIP3    H160652   4.171   1.340   1.942  1.5404 -1.6752  1.6049
13079TIP3    H260653   4.101   1.210   1.974 -1.2236 -0.9222 -0.8312
13080TIP3   OH260654   2.253   4.609   3.980  0.2335 -0.5524  0.1773
13080TIP3    H160655   2.309   4.675   4.020 -0.3296 -1.0477  1.8584
13080TIP3    H260656   2.207   4.568   4.053 -0.1404 -2.1660 -0.9005
13081TIP3   OH260657   0.450   2.785  15.781 -0.0668 -0.0824 -0.3648
13081TIP3    H160658   0.382   2.753  15.721 -0.2817  0.0548 -0.1967
13081TIP3    H260659   0.466   2.875  15.753  1.5804 -0.7548 -1.7723
13082TIP3   OH260660   3.086   0.701  16.754 -0.0990 -0.2479 -0.5378
13082TIP3    H160661   3.181   0.712  16.746 -0.2650  0.5779 -1.7905
13082TIP3    H260662   3.064   0.738  16.839  0.4351  1.7774 -1.2184
13083TIP3   OH260663   5.448   0.211   2.540  0.0367  0.2407 -0.0280
13083TIP3    H160664   5.467   0.225   2.448  1.5484 -0.6952  0.1003
13083TIP3    H260665   5.379   0.145   2.541  1.1782 -0.9965 -0.4977
13084TIP3   OH260666   0.010   2.777   0.279 -0.0041  0.0063 -0.6088
13084TIP3    H160667  -0.012   2.811   0.366  0.8851  2.9914 -1.4486
13084TIP3    H260668   0.071   2.705   0.295 -0.2937  0.1309  1.2136
13085TIP3   OH260669   5.161   5.232   2.686 -1.1061  0.0515  0.2130
13085TIP3    H160670   5.149   5.245   2.592  0.0643  1.0398  0.1831
13085TIP3    H260671   5.106   5.299   2.727  0.7042  1.6454  0.1499
13086TIP3   OH260672   3.473   4.180   3.722  0.3312 -0.1525  0.2679
13086TIP3    H160673   3.478   4.267   3.760 -1.0730  0.0260  0.0767
13086TIP3    H260674   3.562   4.145   3.730  0.4224  0.4444  2.3258
13087TIP3   OH260675   5.669   4.242   5.424 -0.5651 -0.1164 -0.1331
13087TIP3    H160676   5.737   4.283   5.371 -2.3053 -0.1677 -2.5690
13087TIP3    H260677   5.655   4.303   5.496  1.1455  0.5062 -0.2898
13088TIP3   OH260678   4.091   1.207   4.457  0.0971  0.0724 -0.0657
13088TIP3    H160679   4.151   1.171   4.391  0.0094  0.0524 -0.1345
13088TIP3    H260680   4.004   1.178   4.428  0.2967 -3.1115  2.0110
13089TIP3   OH260681   4.202   3.258   0.435 -0.0914 -0.1184  0.6146
13089TIP3    H160682   4.144   3.233   0.363  0.7848 -3.1737  0.8197
13089TIP3    H260683   4.145   3.267   0.511 -0.5866 -0.8195  0.3371
13090TIP3   OH260684   2.891   3.787  12.796 -0.6086 -0.4312 -0.3058
13090TIP3    H160685   2.918   3.863  12.744  0.0322  0.3110  1.0449
13090TIP3    H260686   2.848   3.825  12.873 -1.1864 -1.4789 -0.0938
13091TIP3   OH260687   5.125   5.130   6.479 -0.0929  0.3437 -0.3487
13091TIP3    H160688   5.205   5.184   6.476  0.2233 -0.1331 -0.7798
13091TIP3    H260689   5.129   5.079   6.398  0.7812 -1.9769  1.0536
13092TIP3   OH260690   5.018   1.861   6.332  0.1092  0.2164 -0.0561
13092TIP3    H160691   5.040   1.802   6.404 -1.6555 -0.4870 -0.0416
13092TIP3    H260692   5.098   1.911   6.316  0.3292  1.0407  2.9798
13093TIP3   OH260693   0.643   2.788  15.318 -0.1676 -0.2936  0.7921
13093TIP3    H160694   0.701   2.829  15.382  0.2676 -0.4544  0.5085
13093TIP3    H260695   0.699   2.771  15.242 -0.8317  0.5510  0.0872
13094TIP3   OH260696   4.009   1.778  11.880 -0.5054 -0.0074  0.0427
13094TIP3    H160697   4.022   1.870  11.856  0.4634 -0.1600 -0.0720
13094TIP3    H260698   3.920   1.774  11.913  0.0332  1.3672  1.8195
13095TIP3   OH260699   4.874   0.014   0.950  0.2695  0.2363 -0.2650
13095TIP3    H160700   4.783   0.041   0.965  0.5235  0.8705  0.1802
13095TIP3    H260701   4.923   0.052   1.023  0.8958 -0.1021 -0.5013
13096TIP3   OH260702   3.109   6.388  14.831 -0.0551  0.4184  0.2751
13096TIP3    H160703   3.159   6.385  14.749  0.0135 -1.4731  0.3451
13096TIP3    H260704   3.121   6.477  14.863  2.1503  0.4289 -0.4237
13097TIP3   OH260705   2.795   1.066  13.856 -0.0502  1.0471  0.2258
13097TIP3    H160706   2.764   1.153  13.882 -0.6649  0.5933  1.0662
13097TIP3    H260707   2.765   1.008  13.926  1.5849  0.3728  0.4211
13098TIP3   OH260708   4.530   1.118   1.791 -0.4077  0.0885 -0.1929
13098TIP3    H160709   4.500   1.204   1.821 -1.5639 -1.2466  2.8536
13098TIP3    H260710   4.620   1.112   1.822 -0.0202  0.5109 -1.2009
13099TIP3   OH260711   1.062   2.906   2.921  0.3404  0.3237  0.4534
13099TIP3    H160712   0.984   2.893   2.866  0.0610 -0.2036  0.9547
13099TIP3    H260713   1.027   2.917   3.010  0.7255  2.2116  0.3983
13100TIP3   OH260714   3.969   2.503   4.662  0.6270 -0.5275  0.6410
13100TIP3    H160715   4.032   2.574   4.678  0.3696 -0.2254  0.3145
13100TIP3    H260716   4.024   2.424   4.656  0.9289 -0.3355  0.8524
13101TIP3   OH260717   1.539   3.904  16.093 -0.1698  0.1146  0.4254
13101TIP3    H160718   1.452   3.931  16.121 -0.3042  0.7903 -0.6022
13101TIP3    H260719   1.567   3.972  16.032  0.0104 -1.4053 -1.2508
13102TIP3   OH260720   5.106   0.717  15.441  0.0350 -0.4900  0.5162
13102TIP3    H160721   5.197   0.687  15.431  0.5657  0.2085  2.6298
13102TIP3    H260722   5.058   0.638  15.466 -0.0315 -0.9215 -0.8915
13103TIP3   OH260723   3.704   3.625  17.089 -0.4682 -0.1926  0.1551
13103TIP3    H160724   3.724   3.532  17.083 -0.4404 -0.3752  2.2141
13103TIP3    H260725   3.625   3.637  17.035 -1.2166 -1.6765  0.8666
13104TIP3   OH260726   6.670   4.214  15.635 -0.8484 -0.1658  0.1262
13104TIP3    H160727   6.650   4.282  15.571  0.3791  0.3699  0.2843
13104TIP3    H260728   6.635   4.247  15.718 -0.1946  0.3014  0.2150
13105TIP3   OH260729   1.971   2.863   0.687  0.2484 -0.4015 -0.2961
13105TIP3    H160730   1.919   2.835   0.762  0.9185 -2.3416 -0.5109
13105TIP3    H260731   2.039   2.919   0.724 -0.3535 -0.0669  0.3206
13106TIP3   OH260732   3.849   1.225  14.271 -0.4253 -0.1310 -0.1335
13106TIP3    H160733   3.842   1.317  14.298 -0.9103 -0.2947  0.3355
13106TIP3    H260734   3.938   1.200  14.294  0.3725  0.7576 -2.0489
13107TIP3   OH260735   0.390   0.559   4.684 -0.0608  0.2471 -0.2649
13107TIP3    H160736   0.449   0.516   4.746 -1.3274  0.1949  0.9240
13107TIP3    H260737   0.367   0.490   4.622  0.3780  0.0287 -0.1904
13108TIP3   OH260738   0.082   6.583   3.553 -0.1083  0.5651  0.2347
13108TIP3    H160739  -0.000   6.547   3.521 -0.1101 -0.0479  0.9262
13108TIP3    H260740   0.113   6.520   3.617  1.2993  0.3824 -0.5744
13109TIP3   OH260741   2.613   3.865   1.399  0.4708 -0.3311  0.1544
13109TIP3    H160742   2.706   3.844   1.396  0.4669 -0.3613  0.2349
13109TIP3    H260743   2.585   3.839   1.487  0.4265 -0.1515  0.1938
13110TIP3   OH260744   3.095   6.291   1.877 -0.3282  0.3033  0.3082
13110TIP3    H160745   3.094   6.243   1.795  0.7168  0.8996 -0.0707
13110TIP3    H260746   3.026   6.356   1.868 -0.1078  0.4726 -0.1672
13111TIP3   OH260747   3.781   4.427  15.723  0.0087  0.3670  0.2936
13111TIP3    H160748   3.737   4.354  15.765 -0.0404  0.4306  0.3523
13111TIP3    H260749   3.792   4.492  15.792  1.5482 -0.2366  0.6676
13112TIP3   OH260750   3.236   1.286  16.564 -0.0163 -0.2369  0.2706
13112TIP3    H160751   3.154   1.306  16.609  0.3807  0.4754  0.6928
13112TIP3    H260752   3.274   1.214  16.615 -0.0536 -0.1080  0.4832
13113TIP3   OH260753   0.122   4.117  11.455  0.4447 -0.2144 -0.1078
13113TIP3    H160754   0.194   4.172  11.424  1.3735 -0.8375  0.8858
13113TIP3    H260755   0.150   4.087  11.541 -1.1808 -0.1770  0.4663
13114TIP3   OH260756   0.067   0.682  11.453  0.5574 -0.8385 -0.4519
13114TIP3    H160757  -0.003   0.660  11.392 -0.5615 -2.0091  1.1376
13114TIP3    H260758   0.106   0.597  11.476 -0.1428 -0.6552  1.6399
13115TIP3   OH260759   1.691   1.646  13.226 -0.2653 -0.2010 -0.1007
13115TIP3    H160760   1.656   1.732  13.251 -0.8967 -0.3112 -0.5740
13115TIP3    H260761   1.751   1.665  13.154  0.1883 -0.0772  0.3062
13116TIP3   OH260762   2.863   5.286  11.267 -0.5446 -0.6718 -0.3276
13116TIP3    H160763   2.956   5.268  11.277 -0.5951 -0.2075  1.2849
13116TIP3    H260764   2.839   5.247  11.183  0.7436 -2.2453  0.0004
13117TIP3   OH260765   4.614   1.029   2.382  0.5019 -0.5413  0.1440
13117TIP3    H160766   4.616   0.933   2.388 -2.7088 -0.7615 -0.4743
13117TIP3    H260767   4.617   1.047   2.289  0.7263 -0.0580  0.2462
13118TIP3   OH260768   3.712   0.623   3.802 -1.0456  0.3165  0.1117
13118TIP3    H160769   3.715   0.544   3.749  4.5466 -1.1379  1.9251
13118TIP3    H260770   3.772   0.684   3.758  2.3740 -0.2899  3.4048
13119TIP3   OH260771   3.773   1.272  13.370 -0.4273  0.1536  0.4486
13119TIP3    H160772   3.700   1.268  13.309 -0.8447 -0.0737  0.9491
13119TIP3    H260773   3.836   1.332  13.330 -0.9536  0.4606  0.0794
13120TIP3   OH260774   1.468   4.170   0.712  0.1491 -0.7315 -0.5985
13120TIP3    H160775   1.523   4.242   0.683 -1.3125 -0.5137 -3.1037
13120TIP3    H260776   1.514   4.091   0.683 -0.0639 -0.6229 -1.2448
13121TIP3   OH260777   0.336   5.352  11.956 -0.2870 -0.1016  0.0922
13121TIP3    H160778   0.325   5.440  11.994 -0.7234 -0.1225  0.0180
13121TIP3    H260779   0.371   5.300  12.027  2.2202  0.6708 -0.4926
13122TIP3   OH260780   0.610   4.951  16.301 -0.5806  0.1709 -0.5619
13122TIP3    H160781   0.621   4.856  16.311  1.9524  0.1314 -2.8176
13122TIP3    H260782   0.611   4.984  16.391 -0.4442 -1.8176  0.2341
13123TIP3   OH260783   3.960   5.920  16.804 -0.2773  0.7924 -0.0455
13123TIP3    H160784   3.929   5.993  16.751 -1.7432 -0.3608 -0.8797
13123TIP3    H260785   4.046   5.898  16.767 -1.4459 -0.2686 -2.3379
13124TIP3   OH260786   2.134   4.682  13.979  0.0831 -0.3177  0.3169
13124TIP3    H160787   2.111   4.724  13.896 -1.3500  0.8104  1.2223
13124TIP3    H260788   2.221   4.717  14.000  0.7831 -1.1885 -1.0436
13125TIP3   OH260789   1.150   4.104  14.067 -0.1246  0.1392 -0.3965
13125TIP3    H160790   1.144   4.138  14.156  0.2965 -0.6056 -0.0745
13125TIP3    H260791   1.059   4.091  14.040 -0.2429 -0.5621  0.2967
13126TIP3   OH260792   2.851   2.903   1.469 -0.5777  0.1875  0.2859
13126TIP3    H160793   2.929   2.959   1.464 -0.8290  0.5360  0.1484
13126TIP3    H260794   2.816   2.904   1.379  1.1683 -2.7788 -0.5617
13127TIP3   OH260795   0.755   6.323  14.949 -0.5335  0.0331 -0.3601
13127TIP3    H160796   0.714   6.238  14.964  2.2348 -1.2126  0.9966
13127TIP3    H260797   0.723   6.378  15.021  0.0306 -0.8811  0.6265
13128TIP3   OH260798   5.269   3.906   4.564 -0.5901  0.2023 -0.3588
13128TIP3    H160799   5.283   3.899   4.658 -2.8812  0.1625  0.0495
13128TIP3    H260800   5.204   3.976   4.555 -0.9611 -0.2989 -1.8292
13129TIP3   OH260801   3.236   5.293  12.589 -0.3093 -0.2531 -0.1837
13129TIP3    H160802   3.250   5.358  12.658 -1.7642 -0.6447  0.5196
13129TIP3    H260803   3.156   5.322  12.545 -1.0841 -1.6313  0.2606
13130TIP3   OH260804   5.920   6.275  15.856  0.1093  0.0719  0.0000
13130TIP3    H160805   5.844   6.241  15.901  0.9710  0.3955  1.7707
13130TIP3    H260806   5.989   6.210  15.870  0.1995 -0.2291 -1.5872
13131TIP3   OH260807   2.011   0.770   4.596  0.0926 -0.0296 -0.1400
13131TIP3    H160808   1.938   0.708   4.601  0.1324 -0.1170 -0.6260
13131TIP3    H260809   1.969   0.856   4.584  0.0776 -0.1383 -0.9254
13132TIP3   OH260810   6.484   1.762   3.168  0.2865 -0.4241  0.0031
13132TIP3    H160811   6.434   1.701   3.222  1.0022  2.3418  4.2594
13132TIP3    H260812   6.418   1.803   3.111 -1.1280 -1.4195  0.8512
13133TIP3   OH260813   5.725   1.810   6.430  0.1811  0.3748 -0.5844
13133TIP3    H160814   5.760   1.898   6.441  0.0521  0.2545  1.0222
13133TIP3    H260815   5.631   1.819   6.443  0.4214 -0.3317  2.1978
13134TIP3   OH260816   0.136   4.816  14.368  0.7112  0.0500  0.3685
13134TIP3    H160817   0.093   4.731  14.379  0.6951  0.1487  1.1394
13134TIP3    H260818   0.073   4.879  14.403  0.6656  0.3977 -0.3276
13135TIP3   OH260819   5.101   5.192   2.099  0.4515  0.2308  0.0126
13135TIP3    H160820   5.087   5.285   2.113 -1.4301 -0.0699  0.3943
13135TIP3    H260821   5.052   5.149   2.169  0.6265 -1.0659 -0.6173
13136TIP3   OH260822   0.891   4.376  15.585 -0.2506 -0.2091 -0.3125
13136TIP3    H160823   0.907   4.362  15.679 -0.7356 -0.0669 -0.2096
13136TIP3    H260824   0.979   4.385  15.548  0.1096 -2.7314 -0.2791
13137TIP3   OH260825   5.232   0.981   0.804  0.3039  0.7989  0.4977
13137TIP3    H160826   5.231   0.889   0.778  2.3069  1.0907 -0.7746
13137TIP3    H260827   5.159   0.988   0.866 -1.4455 -1.0676 -1.1946
13138TIP3   OH260828   3.777   0.070  16.631  0.5964  0.3694  0.3260
13138TIP3    H160829   3.745   0.015  16.702 -0.0464  0.0346 -0.2149
13138TIP3    H260830   3.871   0.076  16.646  0.9879 -2.2456 -0.5137
13139TIP3   OH260831   1.374   4.499  11.918 -0.1014  0.4824 -0.0132
13139TIP3    H160832   1.390   4.527  11.828 -1.7582  0.6806 -0.2857
13139TIP3    H260833   1.391   4.577  11.971  0.5040  0.4747 -0.1992
13140TIP3   OH260834   4.965   1.541   0.239 -0.0251 -0.4236  0.0020
13140TIP3    H160835   5.028   1.592   0.290 -0.6640 -0.0150  0.3810
13140TIP3    H260836   4.930   1.477   0.301 -0.2019 -0.4597 -0.1362
13141TIP3   OH260837   3.956   1.482  13.299 -0.2099  0.4582 -0.1390
13141TIP3    H160838   3.919   1.565  13.330 -1.3937 -0.1943  0.2851
13141TIP3    H260839   3.941   1.483  13.204 -1.5235  0.1533  0.0356
13142TIP3   OH260840   3.624   2.008  12.146 -0.0700  0.3406  0.2798
13142TIP3    H160841   3.538   2.048  12.160  0.7609  1.9234  1.0329
13142TIP3    H260842   3.628   1.937  12.209 -1.0067 -0.0612 -0.0953
13143TIP3   OH260843   1.935   1.696   1.020 -0.5890 -0.3626 -0.5332
13143TIP3    H160844   1.923   1.790   1.022 -2.0364 -0.4539 -2.2038
13143TIP3    H260845   1.927   1.668   1.111 -0.6827  1.0450 -0.0840
13144TIP3   OH260846   2.203   6.398   5.102 -0.5241  0.4242 -0.2106
13144TIP3    H160847   2.144   6.426   5.032 -1.1091  1.2234  0.5888
13144TIP3    H260848   2.189   6.461   5.172 -1.3811 -1.4626  1.3986
13145TIP3   OH260849   6.224   2.513  13.658  0.0611  0.0785  0.2399
13145TIP3    H160850   6.293   2.537  13.720  1.5641  1.6833 -1.8779
13145TIP3    H260851   6.166   2.456  13.708  2.1174 -0.1811  2.5691
13146TIP3   OH260852   6.770   6.054  11.895 -0.4681 -0.3293 -0.3037
13146TIP3    H160853   6.839   6.097  11.845  0.1258 -2.0540 -1.0605
13146TIP3    H260854   6.695   6.052  11.836 -0.0323 -1.5952 -0.8581
13147TIP3   OH260855   3.300   3.402   1.439  0.5088  1.1305 -0.3010
13147TIP3    H160856   3.392   3.384   1.421  0.5801  1.1478  0.0433
13147TIP3    H260857   3.290   3.496   1.423  0.5094  1.0951 -0.5124
13148TIP3   OH260858   5.312   3.020  13.662 -0.8104  0.5203 -0.1554
13148TIP3    H160859   5.338   3.106  13.629  0.8466 -0.4358 -1.5515
13148TIP3    H260860   5.371   3.005  13.736 -1.1919  0.6302  0.1731
13149TIP3   OH260861   0.924   3.474  15.221 -0.1216  0.2205  0.1012
13149TIP3    H160862   1.013   3.491  15.254 -0.1768  0.3912  0.1640
13149TIP3    H260863   0.925   3.509  15.132 -0.4198  1.1257  0.4442
13150TIP3   OH260864   2.995   4.210   2.622  0.4611  0.4959 -0.4617
13150TIP3    H160865   3.052   4.136   2.641  0.7776  0.7415 -0.4402
13150TIP3    H260866   2.961   4.237   2.707 -0.6596 -0.4162 -0.6032
13151TIP3   OH260867   1.970   4.666  11.324 -0.0451 -0.1121  0.0997
13151TIP3    H160868   1.989   4.635  11.236 -0.7027 -0.0686 -0.0604
13151TIP3    H260869   2.046   4.719  11.348 -1.5849  3.3525 -2.0365
13152TIP3   OH260870   4.603   2.863   0.051 -0.2912 -0.0603  0.0138
13152TIP3    H160871   4.557   2.931   0.002 -0.5096  0.1854  0.5535
13152TIP3    H260872   4.641   2.807  -0.016  0.9247  1.2579 -0.4417
13153TIP3   OH260873   6.456   3.379  16.867 -0.5732  0.8164 -0.3057
13153TIP3    H160874   6.409   3.328  16.933  1.6635 -1.1473 -0.0558
13153TIP3    H260875   6.388   3.426  16.820 -2.6283 -0.7636  0.8782
13154TIP3   OH260876   4.948   1.082  16.459 -0.1177 -0.5637  0.2519
13154TIP3    H160877   4.902   1.054  16.381  0.4401 -0.0483 -0.2764
13154TIP3    H260878   4.879   1.103  16.522 -0.5537 -1.8890  0.2342
13155TIP3   OH260879   0.016   2.121  14.534  0.4199  0.1075 -0.0939
13155TIP3    H160880  -0.038   2.192  14.498 -0.2619  0.2132  1.0983
13155TIP3    H260881   0.002   2.048  14.474  2.5352  1.4421 -2.3904
13156TIP3   OH260882   5.309   2.580   2.939 -0.3561 -0.1603  0.4382
13156TIP3    H160883   5.401   2.580   2.909 -0.9528 -0.4150 -1.5705
13156TIP3    H260884   5.301   2.660   2.990  0.8855  0.0709  0.3192
13157TIP3   OH260885   0.128   6.404   0.441 -0.1299  0.2902  0.6648
13157TIP3    H160886   0.214   6.420   0.402 -0.2111 -0.4906  0.1474
13157TIP3    H260887   0.068   6.457   0.389 -0.2661 -0.8922 -0.4453
13158TIP3   OH260888   4.499   1.410  14.611 -0.3794 -0.1230 -0.3462
13158TIP3    H160889   4.532   1.488  14.567  0.2203 -0.5811 -0.7286
13158TIP3    H260890   4.424   1.441  14.663 -0.5543  0.5823 -1.0035
13159TIP3   OH260891   4.529   0.346  10.817  0.2035 -0.1620  0.4832
13159TIP3    H160892   4.477   0.425  10.805  0.0145  0.0035  2.1311
13159TIP3    H260893   4.465   0.274  10.814  0.3114 -0.2285 -0.5270
13160TIP3   OH260894   3.276   1.806   4.596  0.6236  0.2654 -0.0222
13160TIP3    H160895   3.223   1.886   4.596  0.2137 -0.0011  0.0639
13160TIP3    H260896   3.341   1.820   4.527 -0.5176 -0.0314 -1.1880
13161TIP3   OH260897   1.905   4.973   4.019 -0.6397 -0.2639  0.0883
13161TIP3    H160898   1.920   4.878   4.020  1.2169 -0.0111 -0.3353
13161TIP3    H260899   1.970   5.008   4.080 -1.9672  0.6784  1.0080
13162TIP3   OH260900   3.837   3.150  11.679  0.0423  0.3388 -0.2481
13162TIP3    H160901   3.888   3.189  11.608  1.5765  1.1257  1.2194
13162TIP3    H260902   3.853   3.207  11.754 -1.1645 -0.7188  0.8609
13163TIP3   OH260903   0.967   4.484  12.591  0.2859  0.1013 -0.1087
13163TIP3    H160904   0.916   4.406  12.573 -0.0344 -0.1672  1.7886
13163TIP3    H260905   0.967   4.532  12.509 -3.0836  0.1658 -0.2061
13164TIP3   OH260906   1.265   6.166   1.612  0.5359  0.0055 -0.0970
13164TIP3    H160907   1.300   6.151   1.700 -0.7954  0.5748  0.5560
13164TIP3    H260908   1.295   6.091   1.561 -0.5026 -1.4832  1.3993
13165TIP3   OH260909   2.874   1.738   4.479 -0.0910 -0.1723 -0.3811
13165TIP3    H160910   2.784   1.706   4.482 -0.5365  0.9802 -0.9071
13165TIP3    H260911   2.884   1.773   4.390  0.0968  1.8247  0.3733
13166TIP3   OH260912   6.259   6.434  15.299 -0.4243  0.3154  0.2935
13166TIP3    H160913   6.267   6.490  15.377 -0.0291  0.5733  0.0713
13166TIP3    H260914   6.185   6.376  15.319  0.5463 -0.5810  1.4627
13167TIP3   OH260915   1.597   2.530   5.186 -0.9599  0.0443 -0.5417
13167TIP3    H160916   1.634   2.533   5.275 -1.3123  1.6064 -0.4325
13167TIP3    H260917   1.545   2.449   5.185  2.3605 -2.3028 -0.7118
13168TIP3   OH260918   1.830   1.121  12.444  0.6777  0.7288  0.3683
13168TIP3    H160919   1.823   1.026  12.430 -3.9062  0.6133  1.8398
13168TIP3    H260920   1.804   1.159  12.360  0.6165  0.6602  0.3559
13169TIP3   OH260921   3.225   5.084  16.783 -0.1908  0.0868 -0.3542
13169TIP3    H160922   3.252   5.013  16.842 -0.5464  1.0553  1.0098
13169TIP3    H260923   3.133   5.100  16.805 -0.1797  0.8198 -0.8216
13170TIP3   OH260924   3.741   3.859   3.450 -0.2125  0.2597 -0.0019
13170TIP3    H160925   3.649   3.844   3.474 -0.8692  2.4028 -0.9416
13170TIP3    H260926   3.778   3.771   3.440 -2.5129 -0.6778 -0.9406
13171TIP3   OH260927   6.476   4.209  11.614 -0.2221  0.2893 -0.3057
13171TIP3    H160928   6.384   4.189  11.597  0.0810 -0.8535 -0.6612
13171TIP3    H260929   6.524   4.137  11.575  0.8956  1.3662 -0.9658
13172TIP3   OH260930   3.670   1.979   0.091  0.2466 -0.1579 -0.2871
13172TIP3    H160931   3.690   1.910   0.155 -1.3827  0.0919  0.5469
13172TIP3    H260932   3.720   2.055   0.120  1.3777 -0.6996 -0.7211
13173TIP3   OH260933   0.542   4.259   5.825 -0.1939 -0.3973 -0.1286
13173TIP3    H160934   0.497   4.343   5.816 -0.0024 -0.3323 -0.5005
13173TIP3    H260935   0.520   4.210   5.745  2.2392  0.5366 -1.4963
13174TIP3   OH260936   1.842   2.439   6.124  0.7146  0.1730  0.3525
13174TIP3    H160937   1.811   2.491   6.050  0.4533 -0.2596  0.1524
13174TIP3    H260938   1.822   2.348   6.099  1.9724 -0.1001  0.2973
13175TIP3   OH260939   3.244   0.922  16.239  0.4847 -0.3630 -0.1251
13175TIP3    H160940   3.201   0.916  16.325 -0.7836 -0.2160 -0.7317
13175TIP3    H260941   3.229   0.837  16.199 -0.9401  0.3073 -1.1021
13176TIP3   OH260942   0.914   5.243   4.595 -0.0935  0.2859 -0.1348
13176TIP3    H160943   0.879   5.207   4.676 -1.0468 -0.8056 -0.9927
13176TIP3    H260944   1.006   5.258   4.613 -0.5787  1.5618  1.6350
13177TIP3   OH260945   1.309   1.431  11.962  0.4220 -0.0023  0.0814
13177TIP3    H160946   1.278   1.445  11.872 -1.7996  1.4390  0.9958
13177TIP3    H260947   1.386   1.488  11.969  0.2220  0.3871 -0.7009
13178TIP3   OH260948   0.386   0.719   6.214  0.0592  0.5067 -0.2716
13178TIP3    H160949   0.382   0.635   6.259 -0.4447  0.7713  0.1984
13178TIP3    H260950   0.356   0.701   6.125  1.8622 -0.1858 -0.7933
13179TIP3   OH260951   0.932   0.151   4.492  0.2763  0.2141  0.0993
13179TIP3    H160952   0.858   0.090   4.491 -0.7822  1.4167 -1.5067
13179TIP3    H260953   0.993   0.115   4.428  0.6507 -0.2849  0.7341
13180TIP3   OH260954   5.566   2.863   6.160  0.0874  0.0292 -0.1718
13180TIP3    H160955   5.519   2.780   6.153  1.5740 -0.8932  0.3163
13180TIP3    H260956   5.533   2.902   6.241 -0.5679 -0.1000 -0.3664
13181TIP3   OH260957   0.292   0.455  14.829  0.7879 -0.2684  0.3688
13181TIP3    H160958   0.317   0.378  14.879  0.6687  0.3136  1.3350
13181TIP3    H260959   0.247   0.419  14.752 -1.2918 -1.1498  1.8845
13182TIP3   OH260960   1.366   3.237  15.726 -0.0271 -0.4832  0.5313
13182TIP3    H160961   1.419   3.313  15.747 -0.1754 -0.4530  0.8097
13182TIP3    H260962   1.319   3.217  15.807  0.0946 -0.9383  0.4958
13183TIP3   OH260963   2.562   5.758  16.185 -0.0685  0.2030  0.2569
13183TIP3    H160964   2.596   5.846  16.200  1.9555 -0.2385 -1.3291
13183TIP3    H260965   2.470   5.764  16.209  0.7703  1.8016  3.5958
13184TIP3   OH260966   6.339   5.697   3.618 -0.2244  0.4041 -0.0269
13184TIP3    H160967   6.283   5.644   3.675  2.4872 -0.6446  1.9260
13184TIP3    H260968   6.333   5.785   3.654 -0.1803  0.1766  0.5555
13185TIP3   OH260969   2.169   0.051   4.639  0.4084  0.4922  0.3148
13185TIP3    H160970   2.252   0.043   4.685 -0.0018 -0.2247  0.9516
13185TIP3    H260971   2.113   0.101   4.699 -0.2293 -0.7234  0.7650
13186TIP3   OH260972   2.508   4.568   5.022 -0.0291 -0.3246 -0.0871
13186TIP3    H160973   2.541   4.649   4.984  1.4594  0.4958  2.6572
13186TIP3    H260974   2.521   4.579   5.117 -1.5751 -2.9970  0.5474
13187TIP3   OH260975   6.548   5.659   5.592 -0.2525  0.1769 -0.4284
13187TIP3    H160976   6.456   5.631   5.597  0.1027 -1.0557 -0.4750
13187TIP3    H260977   6.597   5.589   5.636  0.6798  0.7144 -0.5885
13188TIP3   OH260978   6.753   5.238   0.214 -0.0551 -0.5319 -0.4636
13188TIP3    H160979   6.766   5.239   0.119  0.3629  0.7480 -0.4221
13188TIP3    H260980   6.659   5.253   0.225  0.0156  0.1569 -0.6878
13189TIP3   OH260981   2.199   3.361  12.391 -0.5093  0.0321 -0.4387
13189TIP3    H160982   2.179   3.279  12.437 -0.9339  0.1817 -0.3572
13189TIP3    H260983   2.295   3.367  12.395 -0.4135 -0.8597 -1.1337
13190TIP3   OH260984   5.415   5.267  12.743 -0.5168  0.2514 -0.1855
13190TIP3    H160985   5.396   5.219  12.824 -0.1128  1.6257  0.7752
13190TIP3    H260986   5.357   5.343  12.746  2.3393  2.5730  0.9899
13191TIP3   OH260987   1.341   1.830   1.240 -0.0646  0.5550  0.0389
13191TIP3    H160988   1.331   1.923   1.223  0.7604  0.4135 -1.2890
13191TIP3    H260989   1.257   1.792   1.216  0.3020  0.6831 -1.5426
13192TIP3   OH260990   3.944   5.750  12.519 -0.0769  0.3187  0.8075
13192TIP3    H160991   3.932   5.824  12.459 -1.3071  1.9484  2.9432
13192TIP3    H260992   3.887   5.682  12.484 -1.2766  1.4561  0.4804
13193TIP3   OH260993   0.344   2.724   1.074  0.0794  0.3789 -0.0541
13193TIP3    H160994   0.404   2.729   1.000  0.2702  2.2516  0.1801
13193TIP3    H260995   0.398   2.747   1.150 -0.3646 -0.4544  0.5336
13194TIP3   OH260996   3.419   2.411   1.975  0.0637  0.1809  0.5815
13194TIP3    H160997   3.330   2.391   1.945  0.1841  0.0498  0.3047
13194TIP3    H260998   3.408   2.436   2.066 -0.2973  0.4580  0.4674
13195TIP3   OH260999   5.389   5.894  14.285 -0.3725  0.5010 -0.5262
13195TIP3    H161000   5.383   5.953  14.210 -2.4897 -0.7283 -1.4034
13195TIP3    H261001   5.387   5.806  14.247  1.3306 -0.1811  0.8360
13196TIP3   OH261002   4.760   3.495   1.302  0.0472  0.2177 -0.0566
13196TIP3    H161003   4.797   3.575   1.340 -0.3109  0.2333  0.2616
13196TIP3    H261004   4.696   3.465   1.366 -0.6306  0.2973 -0.6788
13197TIP3   OH261005   6.302   5.590  13.183 -0.8805 -0.0070  0.2581
13197TIP3    H161006   6.367   5.550  13.241 -1.3110 -0.1614  0.6428
13197TIP3    H261007   6.350   5.658  13.136  0.1981 -1.7775 -1.3334
13198TIP3   OH261008   6.466   0.085   5.243 -0.1910  0.3391 -0.7465
13198TIP3    H161009   6.514   0.168   5.246 -1.9266  1.4063 -0.9545
13198TIP3    H261010   6.476   0.055   5.153 -0.8978  1.1910 -1.1247
13199TIP3   OH261011   0.435   0.160  14.646 -0.3299 -0.4769  0.3517
13199TIP3    H161012   0.415   0.237  14.593  3.3940  0.1764 -0.3914
13199TIP3    H261013   0.397   0.087  14.597 -1.4441  0.6056 -0.4645
13200TIP3   OH261014   1.914   5.168   0.805 -0.1896 -0.5545  0.1391
13200TIP3    H161015   1.913   5.145   0.898 -0.3706 -0.0230  0.2679
13200TIP3    H261016   1.969   5.246   0.800 -1.1782  0.1346 -0.0340
13201TIP3   OH261017   4.824   2.965  15.396 -0.6786 -0.8272 -0.0212
13201TIP3    H161018   4.868   2.971  15.311  0.9621 -3.2104  0.5571
13201TIP3    H261019   4.776   2.883  15.393 -0.3845 -1.0821  1.4368
13202TIP3   OH261020   3.844   0.699   1.790 -0.6632 -0.0052 -0.0375
13202TIP3    H161021   3.896   0.652   1.855 -0.4795  0.5423  0.2157
13202TIP3    H261022   3.760   0.654   1.789 -1.6157  1.5017  2.4502
13203TIP3   OH261023   3.596   0.802  14.152 -0.5225 -0.2656  0.0357
13203TIP3    H161024   3.592   0.896  14.164  0.6363 -0.2594  0.5828
13203TIP3    H261025   3.688   0.780  14.169  0.0687 -1.0408 -3.4065
13204TIP3   OH261026   2.632   0.684   4.385  0.1563 -0.2446 -0.7296
13204TIP3    H161027   2.649   0.590   4.382 -0.6477 -0.4136 -0.3514
13204TIP3    H261028   2.540   0.692   4.358  0.1668  0.4145 -0.5754
13205TIP3   OH261029   1.263   5.225   2.974  0.0348 -0.0256  0.0071
13205TIP3    H161030   1.209   5.290   3.019 -1.4632 -1.7020  0.7471
13205TIP3    H261031   1.231   5.140   3.006  1.3585 -1.1796 -1.5322
13206TIP3   OH261032   6.308   5.475  11.977  0.3429  0.2688 -0.5101
13206TIP3    H161033   6.232   5.458  11.921 -0.5728 -0.3794  0.8674
13206TIP3    H261034   6.273   5.473  12.066  1.6873  1.6134  0.0956
13207TIP3   OH261035   0.613   5.835  15.120 -0.2821  0.5518  0.0451
13207TIP3    H161036   0.644   5.908  15.174  1.1693 -0.8453  1.1810
13207TIP3    H261037   0.692   5.799  15.081 -0.9840 -0.3698 -0.5744
13208TIP3   OH261038   2.447   3.839   4.343  0.4697 -0.1944 -0.1756
13208TIP3    H161039   2.413   3.823   4.431  1.0285 -0.3114  0.0258
13208TIP3    H261040   2.523   3.780   4.336  2.4132  2.0833  0.4721
13209TIP3   OH261041   3.006   0.183  11.121  0.1405  1.0550 -0.1056
13209TIP3    H161042   3.082   0.139  11.159 -0.8973 -1.0566 -0.3085
13209TIP3    H261043   3.038   0.220  11.039  1.0459  0.5587  0.0091
13210TIP3   OH261044   4.911   1.057  13.814  0.4703  0.1516 -0.9648
13210TIP3    H161045   4.994   1.089  13.779 -0.0414  0.8523 -1.5596
13210TIP3    H261046   4.873   1.133  13.859  1.0569 -0.6851  1.0593
13211TIP3   OH261047   1.105   6.193  13.714  0.0653 -0.2082  0.0527
13211TIP3    H161048   1.168   6.134  13.755  0.0415  0.9319  1.7936
13211TIP3    H261049   1.026   6.139  13.702  0.5573 -0.9616  0.1270
13212TIP3   OH261050   2.125   2.344   3.117 -0.3005  0.5024 -0.5056
13212TIP3    H161051   2.078   2.297   3.048 -0.7830  1.8659 -1.1615
13212TIP3    H261052   2.151   2.427   3.076 -1.2145  1.6691  1.1368
13213TIP3   OH261053   6.268   1.925   4.207 -0.5302 -0.0324 -0.6403
13213TIP3    H161054   6.359   1.935   4.178 -0.4994  0.7194 -0.3008
13213TIP3    H261055   6.249   2.005   4.256 -0.8922 -0.8640  0.6078
13214TIP3   OH261056   0.679   2.775  12.374 -0.1708 -0.9362 -0.2980
13214TIP3    H161057   0.740   2.748  12.443  0.2899  1.7575  0.4800
13214TIP3    H261058   0.730   2.834  12.319 -1.3584 -0.7270 -1.2146
13215TIP3   OH261059   3.685   4.946   0.916 -0.7158  0.1597 -0.8399
13215TIP3    H161060   3.695   4.935   1.010  0.8133  1.2266 -0.8434
13215TIP3    H261061   3.598   4.911   0.897 -1.0512 -0.0796  0.9525
13216TIP3   OH261062   4.719   2.562   2.530  0.1104  0.1265 -0.2912
13216TIP3    H161063   4.730   2.642   2.478 -1.4808  0.1689 -0.6253
13216TIP3    H261064   4.778   2.573   2.605 -0.9212  2.1915  0.3000
13217TIP3   OH261065   2.960   6.709   0.861  0.2068 -0.3111 -0.1801
13217TIP3    H161066   2.913   6.734   0.940  1.0383  1.3673 -0.1643
13217TIP3    H261067   3.026   6.646   0.891  0.4991  0.2946  0.4825
13218TIP3   OH261068   2.366   1.187  14.918  0.3356 -0.0803 -0.0293
13218TIP3    H161069   2.429   1.116  14.928  1.0381  0.1692 -2.2073
13218TIP3    H261070   2.412   1.254  14.868 -1.1069  0.8325 -0.2017
13219TIP3   OH261071   5.762   4.568  12.003  0.4495 -0.0077 -0.2391
13219TIP3    H161072   5.841   4.613  12.033  1.1082  0.3981 -2.3775
13219TIP3    H261073   5.741   4.610  11.920 -1.5419 -0.6968 -0.1491
13220TIP3   OH261074   6.714   1.548   3.523  0.0876 -0.7392 -0.5656
13220TIP3    H161075   6.753   1.487   3.461 -0.4261 -1.8909  0.2036
13220TIP3    H261076   6.695   1.495   3.600  0.2358  0.5420  0.3928
13221TIP3   OH261077   3.970   4.914  11.780  0.0967 -0.1378  0.3654
13221TIP3    H161078   3.975   4.881  11.869  0.0259 -0.6792  0.1735
13221TIP3    H261079   4.025   4.854  11.729  0.5614  0.4719  0.1314
13222TIP3   OH261080   1.277   4.104   2.479  0.2440 -0.0146 -0.4025
13222TIP3    H161081   1.255   4.126   2.388 -0.8173 -0.8291 -0.3609
13222TIP3    H261082   1.313   4.185   2.515  0.7091  0.3114 -1.5521
13223TIP3   OH261083   6.160   6.176   0.095 -0.0186 -0.0097  0.0008
13223TIP3    H161084   6.153   6.144   0.185 -0.8545 -0.7093 -0.3000
13223TIP3    H261085   6.141   6.270   0.102 -2.8195 -0.5105  0.2408
13224TIP3   OH261086   3.792   3.063   3.363  0.1055  0.1310  0.5467
13224TIP3    H161087   3.730   3.056   3.290  0.7637  1.5485 -0.2059
13224TIP3    H261088   3.873   3.025   3.329 -0.1597 -1.1485  1.3077
13225TIP3   OH261089   3.617   3.755   4.235 -0.2431 -0.0887  0.0738
13225TIP3    H161090   3.556   3.688   4.203  0.0534  0.3367 -1.5069
13225TIP3    H261091   3.574   3.793   4.311 -0.6926 -1.6447  0.6326
13226TIP3   OH261092   0.679   1.865  10.218 -0.1531  0.2293  0.0373
13226TIP3    H161093   0.614   1.889  10.152 -2.6954 -0.5003  2.0935
13226TIP3    H261094   0.638   1.888  10.301  1.6678 -1.5288  1.5284
13227TIP3   OH261095   4.248   3.621   4.376 -0.1425 -0.1934  0.0439
13227TIP3    H161096   4.324   3.642   4.431  0.0257  0.0512 -0.2783
13227TIP3    H261097   4.277   3.641   4.287 -0.6976  0.2040 -0.0493
13228TIP3   OH261098   0.843   1.775  12.317 -0.0269  0.4273  0.1166
13228TIP3    H161099   0.808   1.761  12.405  1.2148  1.3848  0.8074
13228TIP3    H261100   0.905   1.847  12.327  0.2166  0.4990 -1.5377
13229TIP3   OH261101   3.130   5.971  15.836  0.3330  0.2283 -0.2329
13229TIP3    H161102   3.061   6.037  15.834  1.0631  1.1034  1.4170
13229TIP3    H261103   3.137   5.947  15.929  1.3205 -0.8364 -0.5579
13230TIP3   OH261104   5.374   4.879  12.044  0.0506  0.6803  0.5999
13230TIP3    H161105   5.372   4.822  12.121 -3.8428 -2.4507 -1.4104
13230TIP3    H261106   5.384   4.818  11.970 -0.5843  3.0501 -1.5832
13231TIP3   OH261107   6.264   3.032  16.147 -0.1429  0.7193 -0.1087
13231TIP3    H161108   6.338   2.985  16.107 -0.5463 -1.5077  1.5464
13231TIP3    H261109   6.306   3.098  16.203  0.5691  0.2277 -0.0431
13232TIP3   OH261110   3.033   2.250   6.116 -0.0123 -0.2876 -0.1218
13232TIP3    H161111   2.951   2.217   6.079  0.2921 -0.5145 -0.6121
13232TIP3    H261112   3.007   2.301   6.192 -1.0054  3.1737 -2.5830
13233TIP3   OH261113   5.276   3.164   1.190  0.0979  0.2815  0.6487
13233TIP3    H161114   5.190   3.200   1.211  0.6882  2.7955 -0.8381
13233TIP3    H261115   5.323   3.166   1.274 -1.4061 -1.7993  1.6480
13234TIP3   OH261116   2.856   3.450  14.684 -0.0439  0.3687  0.7467
13234TIP3    H161117   2.786   3.473  14.745 -2.0982 -2.1375 -0.4705
13234TIP3    H261118   2.818   3.464  14.597  1.5054  0.3276  0.0210
13235TIP3   OH261119   2.596   0.656   4.899 -0.0088  0.7944 -0.1201
13235TIP3    H161120   2.605   0.685   4.808 -0.1925  0.2071 -0.3294
13235TIP3    H261121   2.671   0.694   4.944  0.0670  1.1167 -0.5092
13236TIP3   OH261122   3.196   2.847   4.417 -0.2766 -0.1531  0.4480
13236TIP3    H161123   3.290   2.827   4.413  0.1532  1.2704  2.2196
13236TIP3    H261124   3.168   2.813   4.502 -2.0109 -2.7423 -0.9983
13237TIP3   OH261125   3.065   6.223  11.764 -0.0492  0.1526  0.4693
13237TIP3    H161126   2.982   6.255  11.800  0.6813  1.6519  0.8964
13237TIP3    H261127   3.041   6.184  11.680 -0.9191  2.6638 -0.5392
13238TIP3   OH261128   2.364   6.342   3.511  0.1295 -0.2794  0.3917
13238TIP3    H161129   2.433   6.408   3.518 -0.3029  0.3536 -0.8899
13238TIP3    H261130   2.300   6.367   3.578  0.9429 -0.6376  1.3142
13239TIP3   OH261131   2.616   5.361   6.616  0.5802  0.6840  0.1308
13239TIP3    H161132   2.557   5.343   6.542 -0.0781  0.1912  0.7496
13239TIP3    H261133   2.677   5.426   6.584  0.1823  0.6145 -0.7892
13240TIP3   OH261134   3.496   3.511   2.252  0.4644 -0.2506 -0.2858
13240TIP3    H161135   3.512   3.440   2.314  3.2726  0.7292  0.2672
13240TIP3    H261136   3.474   3.468   2.170  1.5659 -1.7265  0.1616
13241TIP3   OH261137   2.006   0.428  10.440 -0.0740 -0.1241 -0.3615
13241TIP3    H161138   2.020   0.385  10.524  3.8858  1.2610 -0.1126
13241TIP3    H261139   1.959   0.508  10.462  1.1213  0.3391  0.6294
13242TIP3   OH261140   5.201   4.491  14.198  0.2883  0.2421  0.4699
13242TIP3    H161141   5.178   4.410  14.242 -0.3970 -0.4115 -1.0308
13242TIP3    H261142   5.117   4.534  14.180  0.3069 -0.6473 -2.2394
13243TIP3   OH261143   2.889   0.426  13.741 -0.0464 -0.7519  0.2321
13243TIP3    H161144   2.804   0.452  13.778  0.2603 -3.0009  2.9278
13243TIP3    H261145   2.953   0.453  13.808  1.2241 -0.3780 -1.0909
13244TIP3   OH261146   0.420   5.410   1.342 -0.8767  0.3674  0.0505
13244TIP3    H161147   0.443   5.464   1.417 -0.6092  2.7244 -1.6116
13244TIP3    H261148   0.432   5.320   1.372 -1.4030  1.1913  2.9718
13245TIP3   OH261149   1.816   5.427  11.651 -0.2877 -0.0714  0.1363
13245TIP3    H161150   1.794   5.344  11.692 -0.1109 -0.5323 -0.6736
13245TIP3    H261151   1.908   5.442  11.674 -0.0923 -0.4910 -0.3410
13246TIP3   OH261152   6.250   3.743  10.560 -0.5274  0.2706 -0.0901
13246TIP3    H161153   6.336   3.784  10.573 -0.8037  0.8952 -0.2073
13246TIP3    H261154   6.187   3.811  10.584 -1.0007  0.1371 -0.9030
13247TIP3   OH261155   5.560   4.539  12.213  0.0875 -0.2523  0.1861
13247TIP3    H161156   5.596   4.533  12.124 -0.2057 -2.6467  0.1778
13247TIP3    H261157   5.636   4.560  12.267  0.6496 -0.7616 -0.3889
13248TIP3   OH261158   5.800   1.471  16.749 -0.0392  0.4070  0.0883
13248TIP3    H161159   5.792   1.513  16.664  0.5122 -1.5247 -0.9787
13248TIP3    H261160   5.736   1.516  16.805 -0.2276  1.8714 -1.2474
13249TIP3   OH261161   4.194   3.372   1.642  0.0538 -0.0345 -0.1786
13249TIP3    H161162   4.182   3.356   1.735  1.5914  1.7700  0.3988
13249TIP3    H261163   4.157   3.459   1.628  0.4415 -0.0135 -1.1218
13250TIP3   OH261164   1.989   1.861   0.073  0.0974 -0.7188 -0.2941
13250TIP3    H161165   1.984   1.854   0.168  0.5585 -4.6205 -0.4113
13250TIP3    H261166   1.906   1.825   0.042  0.2194 -0.0901 -1.3992
13251TIP3   OH261167   0.950   0.642   3.833  0.4664 -0.0924 -0.2228
13251TIP3    H161168   1.015   0.577   3.807  0.8343  0.3871 -0.5222
13251TIP3    H261169   0.941   0.630   3.928  2.6323  1.2735  0.2208
13252TIP3   OH261170   6.718   1.651  17.208 -0.1633 -0.3922  0.1975
13252TIP3    H161171   6.782   1.637  17.278  0.5867 -1.4645 -0.6545
13252TIP3    H261172   6.634   1.660  17.253  0.3107 -0.9753  1.2384
13253TIP3   OH261173   6.593   2.105  15.919  0.5238  0.7345 -0.1701
13253TIP3    H161174   6.664   2.128  15.860  1.2317  1.9940  1.1165
13253TIP3    H261175   6.616   2.018  15.951  1.0188  0.7701 -0.4291
13254TIP3   OH261176   3.864   0.698   2.888  0.3014 -0.1767 -0.3655
13254TIP3    H161177   3.782   0.649   2.876  0.6889 -0.4819 -1.9275
13254TIP3    H261178   3.852   0.744   2.971 -0.1465 -2.7629  1.1093
13255TIP3   OH261179   2.592   2.701   4.274  0.5311  0.1593  0.2045
13255TIP3    H161180   2.627   2.677   4.188  2.7446 -0.8592  1.3112
13255TIP3    H261181   2.628   2.789   4.291  0.4953  0.1577  0.2884
13256TIP3   OH261182   3.717   2.199   4.831  0.0231 -0.0096  0.1535
13256TIP3    H161183   3.704   2.293   4.831  0.4380  0.0592  0.9431
13256TIP3    H261184   3.731   2.176   4.739 -0.7203  0.5982 -0.1178
13257TIP3   OH261185   6.542   2.494   0.549  0.4827 -0.3513  0.3498
13257TIP3    H161186   6.482   2.465   0.618  0.3337 -0.7218  0.0624
13257TIP3    H261187   6.572   2.414   0.507  1.9581 -0.2435  1.1240
13258TIP3   OH261188   4.850   6.749  12.669 -0.2417  0.2123 -0.4021
13258TIP3    H161189   4.836   6.701  12.587 -0.8742  0.1148 -0.2402
13258TIP3    H261190   4.796   6.827  12.661 -0.0517  0.3633 -0.2125
13259TIP3   OH261191   4.104   1.857   0.759 -0.1558  0.0460 -0.1001
13259TIP3    H161192   4.134   1.941   0.792 -1.4322  0.7860 -0.7365
13259TIP3    H261193   4.168   1.832   0.693  1.6746 -0.7939  1.8535
13260TIP3   OH261194   5.390   0.967  15.817  0.2389 -0.3083  0.1755
13260TIP3    H161195   5.314   0.991  15.764  1.0907 -1.6512 -1.7939
13260TIP3    H261196   5.465   0.982  15.759  1.7112  2.3112  2.5002
13261TIP3   OH261197   5.813   6.345   3.691  0.2720 -0.2928  0.3123
13261TIP3    H161198   5.758   6.378   3.620 -0.8551 -1.6196  0.5183
13261TIP3    H261199   5.810   6.414   3.758 -2.0395 -0.7408  0.7463
13262TIP3   OH261200   6.746   4.506  12.363 -0.0276 -0.4512  0.1762
13262TIP3    H161201   6.825   4.463  12.398 -0.6773 -0.7806  1.2760
13262TIP3    H261202   6.773   4.596  12.348  0.5996 -0.5910  0.4082
13263TIP3   OH261203   1.525   5.433  15.914 -0.5688  0.1345 -0.0788
13263TIP3    H161204   1.526   5.366  15.846  0.4266 -0.6597  0.6804
13263TIP3    H261205   1.469   5.396  15.983  0.3229 -0.1198  0.5228
13264TIP3   OH261206   0.728   3.176   5.359  0.1096 -0.0019 -0.0285
13264TIP3    H161207   0.655   3.116   5.377  0.3036 -0.0374  0.6712
13264TIP3    H261208   0.762   3.147   5.274  0.7528 -1.4546  0.6842
13265TIP3   OH261209   6.660   0.210   4.765  0.9674  0.6783  1.0905
13265TIP3    H161210   6.729   0.268   4.734  1.6004 -0.6250 -0.0583
13265TIP3    H261211   6.656   0.140   4.699 -1.0946  0.4427  1.3989
13266TIP3   OH261212   5.626   6.495   4.380 -0.1808 -0.1421 -0.1528
13266TIP3    H161213   5.626   6.591   4.377 -1.6293 -0.1357 -0.5213
13266TIP3    H261214   5.539   6.470   4.348 -0.0655 -1.5606  0.5781
13267TIP3   OH261215   0.516   6.776  13.931 -0.6116  0.3595 -0.5084
13267TIP3    H161216   0.478   6.863  13.914  0.9414  0.7947 -2.0893
13267TIP3    H261217   0.444   6.715  13.916 -1.3356  1.2903 -0.9397
13268TIP3   OH261218   0.114   0.929  15.896  0.7130  0.4288  0.6605
13268TIP3    H161219   0.172   0.979  15.953  1.3307 -1.9052  2.2445
13268TIP3    H261220   0.167   0.855  15.866 -0.6625 -0.3260 -0.0487
13269TIP3   OH261221   0.885   3.468  13.736 -0.3019  0.3670 -0.3505
13269TIP3    H161222   0.835   3.390  13.761 -0.1075  0.0086 -1.0649
13269TIP3    H261223   0.918   3.502  13.819 -0.4116 -0.2979 -0.0238
13270TIP3   OH261224   5.428   5.348   4.666  0.1246 -0.8225 -0.1277
13270TIP3    H161225   5.334   5.346   4.681 -0.3390  2.4110 -1.6625
13270TIP3    H261226   5.462   5.403   4.738 -0.3436  3.8927 -3.0703
13271TIP3   OH261227   3.331   2.932   2.838 -0.6716  0.4371  0.3413
13271TIP3    H161228   3.254   2.877   2.824 -0.0839  0.0304 -1.5982
13271TIP3    H261229   3.326   2.998   2.769  0.3994  0.7807  0.5762
13272TIP3   OH261230   5.157   5.332   2.437 -0.0507  0.2493 -0.2332
13272TIP3    H161231   5.235   5.323   2.381 -0.6242 -1.0245 -0.8661
13272TIP3    H261232   5.127   5.422   2.422  1.8619  1.1298  0.8156
13273TIP3   OH261233   5.249   0.479  16.258 -0.8257  0.6791 -0.0248
13273TIP3    H161234   5.223   0.437  16.176 -1.2782  1.0645 -0.0836
13273TIP3    H261235   5.335   0.516  16.240 -0.6187  0.1719 -0.1107
13274TIP3   OH261236   1.587   0.302   0.596 -0.3054 -0.6188  0.3219
13274TIP3    H161237   1.606   0.209   0.603 -0.0742 -0.5412  0.7574
13274TIP3    H261238   1.498   0.312   0.631  0.8695 -0.2199  3.5097
13275TIP3   OH261239   4.642   2.113   3.968  0.1104  0.4979  0.2105
13275TIP3    H161240   4.620   2.205   3.979  0.6569  0.5476  1.0216
13275TIP3    H261241   4.686   2.089   4.050  1.1953 -0.1234 -0.5164
13276TIP3   OH261242   0.633   1.993  14.710  0.1384  0.2682 -0.2190
13276TIP3    H161243   0.626   2.045  14.630  2.1222 -0.0331 -0.6376
13276TIP3    H261244   0.546   2.000  14.750 -0.6138  1.2398 -1.8759
13277TIP3   OH261245   0.490   4.529   1.367  0.0881  0.4058 -0.5836
13277TIP3    H161246   0.485   4.448   1.418  2.4349 -0.5869 -1.7550
13277TIP3    H261247   0.571   4.571   1.397 -0.2790  1.5446 -1.1185
13278TIP3   OH261248   2.124   6.572  10.775 -0.1293  0.1337  0.0777
13278TIP3    H161249   2.091   6.653  10.736 -1.9493 -0.4384  0.3085
13278TIP3    H261250   2.128   6.591  10.869  0.5874  0.3118  0.0174
13279TIP3   OH261251   6.094   3.612  11.935  0.1951 -0.4986 -0.4740
13279TIP3    H161252   6.186   3.589  11.926  0.2995  0.1668 -1.2769
13279TIP3    H261253   6.057   3.543  11.990  1.5644  0.2428  1.5213
13280TIP3   OH261254   3.809   5.615  15.903 -0.2217 -0.2971  0.2311
13280TIP3    H161255   3.784   5.589  15.814  0.9790 -1.0542  0.0892
13280TIP3    H261256   3.733   5.663  15.936  0.3376  2.5032 -2.1782
13281TIP3   OH261257   3.419   5.803   0.887  0.3491  0.1313 -0.1674
13281TIP3    H161258   3.437   5.822   0.794 -0.3470 -0.7791 -0.5026
13281TIP3    H261259   3.496   5.836   0.933  0.2756  1.4905 -0.9615
13282TIP3   OH261260   3.930   0.616  11.687  0.1189 -0.1638  0.3323
13282TIP3    H161261   3.989   0.557  11.734 -1.6151 -0.9855  1.5718
13282TIP3    H261262   3.952   0.703  11.719 -0.1090 -0.5799  1.6628
13283TIP3   OH261263   2.614   4.932   3.651 -0.0559 -0.0089 -0.2429
13283TIP3    H161264   2.556   4.984   3.707  1.3127  0.6721  0.5974
13283TIP3    H261265   2.687   4.991   3.630  0.5139 -0.9433 -0.9790
13284TIP3   OH261266   0.718   3.874   1.604  0.2198  0.3185 -0.1129
13284TIP3    H161267   0.807   3.909   1.610  1.2768 -2.3739  3.6422
13284TIP3    H261268   0.665   3.936   1.654  0.3367  0.9574 -0.7668
13285TIP3   OH261269   3.442   1.979   3.652  0.4712 -0.3377  0.1859
13285TIP3    H161270   3.526   1.997   3.611  0.0888 -0.4293 -0.6622
13285TIP3    H261271   3.449   1.890   3.686  0.4959 -0.5824 -0.4582
13286TIP3   OH261272   2.425   6.247   5.262  1.2183  0.5882 -0.0101
13286TIP3    H161273   2.488   6.308   5.301  1.1143  1.8969 -1.7925
13286TIP3    H261274   2.376   6.299   5.200 -0.7232 -0.7401  0.3141
13287TIP3   OH261275   0.123   1.241  16.675 -0.1585 -0.5972  0.2721
13287TIP3    H161276   0.121   1.148  16.699  0.5274 -0.2645  1.7021
13287TIP3    H261277   0.198   1.248  16.616 -0.4972 -1.0164 -0.2275
13288TIP3   OH261278   1.535   6.329   0.189 -0.6266 -0.1814  0.5867
13288TIP3    H161279   1.566   6.391   0.256  2.6024 -0.3747 -0.5362
13288TIP3    H261280   1.497   6.383   0.121 -1.2772  0.2454  1.2816
13289TIP3   OH261281   4.584   1.222  16.879 -0.3836  0.4028  0.4685
13289TIP3    H161282   4.588   1.230  16.784  0.2214  1.3691  0.5677
13289TIP3    H261283   4.659   1.168  16.902  0.5671  1.7123  0.5438
13290TIP3   OH261284   2.094   0.578   1.781 -0.5010 -0.2474  0.0476
13290TIP3    H161285   2.005   0.599   1.808  0.4373  1.7083  1.9556
13290TIP3    H261286   2.123   0.510   1.842  0.5140  1.8623  2.0944
13291TIP3   OH261287   0.430   3.624  16.792  0.0812  0.1582 -0.8682
13291TIP3    H161288   0.524   3.609  16.802 -0.1876 -1.8824 -0.9054
13291TIP3    H261289   0.389   3.556  16.846 -1.3683  0.3058 -1.7292
13292TIP3   OH261290   5.375   3.539   2.700 -0.0963 -0.3364 -0.2280
13292TIP3    H161291   5.365   3.608   2.634  0.1588 -0.0329  0.0437
13292TIP3    H261292   5.305   3.557   2.763 -0.8145 -1.0777 -0.7996
13293TIP3   OH261293   3.834   0.855   2.655 -0.0634 -0.3712  0.3184
13293TIP3    H161294   3.889   0.827   2.583  1.2053  1.5150  0.4861
13293TIP3    H261295   3.863   0.803   2.730  0.0154 -0.8890 -0.0679
13294TIP3   OH261296   0.979   0.908  12.969 -0.1485 -0.4219 -0.5945
13294TIP3    H161297   0.978   0.925  13.063  1.4766  0.1227 -0.6504
13294TIP3    H261298   0.919   0.835  12.958  1.1789 -1.8791  1.1645
13295TIP3   OH261299   5.276   0.936  11.824  0.3292 -0.2958  0.2740
13295TIP3    H161300   5.343   0.941  11.756  0.5283  1.4589  0.5542
13295TIP3    H261301   5.193   0.935  11.776  0.4244  1.9664 -0.0406
13296TIP3   OH261302   3.176   3.631   2.472 -0.0358 -0.1943 -0.3413
13296TIP3    H161303   3.113   3.661   2.538  1.2781 -0.9381  1.3075
13296TIP3    H261304   3.176   3.536   2.480 -0.9215 -0.4214 -2.4799
13297TIP3   OH261305   0.364   2.668  12.657 -0.1970  0.6875  0.0316
13297TIP3    H161306   0.317   2.628  12.730  0.5867  0.6047  0.5104
13297TIP3    H261307   0.439   2.711  12.699 -0.3693  1.6245 -0.6031
13298TIP3   OH261308   2.393   1.716   1.049 -0.1322 -0.2138 -0.1483
13298TIP3    H161309   2.481   1.713   1.086  0.7429 -2.0759 -2.1719
13298TIP3    H261310   2.402   1.766   0.969 -1.2938  0.9238  0.3918
13299TIP3   OH261311   5.381   5.454  10.805 -0.0068  0.3424 -0.2607
13299TIP3    H161312   5.418   5.493  10.726  1.5445  1.9201  1.1674
13299TIP3    H261313   5.414   5.364  10.806  0.1268  0.3724 -1.2756
13300TIP3   OH261314   6.622   1.595   1.115 -0.2264 -0.0815  0.4337
13300TIP3    H161315   6.544   1.564   1.162 -0.5971  1.0701  0.6068
13300TIP3    H261316   6.594   1.674   1.071  0.5039 -0.3823 -0.6172
13301TIP3   OH261317   2.232   3.929  13.104 -0.1985 -0.7628 -0.0575
13301TIP3    H161318   2.326   3.912  13.111  0.3113  1.8485  0.6693
13301TIP3    H261319   2.218   3.951  13.011  0.2674  0.3965  0.1254
13302TIP3   OH261320   0.361   3.551  14.858 -0.1296  0.0373 -0.0571
13302TIP3    H161321   0.341   3.546  14.765  1.7049 -0.6816 -0.4470
13302TIP3    H261322   0.456   3.560  14.863 -0.0928 -0.7600  1.7517
13303TIP3   OH261323   4.961   3.310   2.583  0.6579  0.1305 -0.1306
13303TIP3    H161324   4.971   3.324   2.488 -2.1279 -0.9888 -0.6979
13303TIP3    H261325   4.906   3.383   2.612  0.1567 -0.3982  0.2717
13304TIP3   OH261326   1.038   6.794  16.900 -0.2357 -0.0687  0.3375
13304TIP3    H161327   1.091   6.777  16.822 -0.7678  0.3208 -0.1144
13304TIP3    H261328   1.016   6.707  16.933  3.6926 -0.4276  2.6733
13305TIP3   OH261329   6.431   4.114  12.111 -0.5112  0.2275 -0.0822
13305TIP3    H161330   6.500   4.176  12.135 -1.2483  1.5599 -1.2653
13305TIP3    H261331   6.473   4.055  12.048 -0.1227  0.2530  0.1486
13306TIP3   OH261332   3.353   0.980  15.299  0.3461  0.7153  0.2924
13306TIP3    H161333   3.277   0.962  15.354  0.4865  0.3788  0.3814
13306TIP3    H261334   3.333   0.937  15.216  0.5723  0.3570  0.4207
13307TIP3   OH261335   1.129   2.001  16.106  0.2001 -0.2437  0.5793
13307TIP3    H161336   1.065   2.014  16.176 -0.8154 -2.2797  0.0846
13307TIP3    H261337   1.083   2.027  16.026  0.1501 -1.1885  0.2890
13308TIP3   OH261338   6.177   5.501  11.753 -0.1055  0.0597  0.4530
13308TIP3    H161339   6.235   5.542  11.689 -0.1294 -0.3345  0.1774
13308TIP3    H261340   6.151   5.418  11.713 -0.4816  0.0167  0.7792
13309TIP3   OH261341   1.976   3.708   1.435 -0.0150 -0.3573  0.1111
13309TIP3    H161342   1.942   3.707   1.345 -2.2381  2.9248  0.7223
13309TIP3    H261343   2.003   3.799   1.449 -1.5044 -0.2845  3.3208
13310TIP3   OH261344   6.104   0.528   4.652  0.2794  0.0141  0.1683
13310TIP3    H161345   6.063   0.614   4.646  3.0040  1.3173 -2.4110
13310TIP3    H261346   6.085   0.498   4.741 -1.8056  2.7038  0.7403
13311TIP3   OH261347   6.323   1.389   0.113  0.6257 -0.2634  0.4473
13311TIP3    H161348   6.304   1.446   0.038  0.2958 -1.8936 -0.7688
13311TIP3    H261349   6.417   1.397   0.125  0.4879  1.1435  0.8470
13312TIP3   OH261350   4.247   1.541  15.836 -0.2249  0.3286 -0.4500
13312TIP3    H161351   4.341   1.549  15.850 -0.2035 -0.3813 -0.1221
13312TIP3    H261352   4.235   1.552  15.741  0.1278  0.8754 -0.4356
13313TIP3   OH261353   2.811   0.701   5.281 -0.1379 -0.2501  0.0644
13313TIP3    H161354   2.761   0.628   5.245  0.3144 -0.6356  0.2219
13313TIP3    H261355   2.767   0.721   5.364  0.1015 -0.7342  0.3109
13314TIP3   OH261356   1.110   0.056  13.339 -0.0860  0.1624  0.8777
13314TIP3    H161357   1.017   0.040  13.353  0.0456 -0.3091  1.1994
13314TIP3    H261358   1.153  -0.027  13.358  0.2118 -0.2234 -1.2434
13315TIP3   OH261359   4.621   4.166   3.769 -0.6964  0.5233 -0.2736
13315TIP3    H161360   4.634   4.071   3.774 -0.4878  0.5699  0.1554
13315TIP3    H261361   4.700   4.199   3.726 -0.5722  0.5428 -0.0345
13316TIP3   OH261362   2.159   1.813  16.773  0.2685 -0.2833  0.6191
13316TIP3    H161363   2.139   1.769  16.856  1.7776 -0.2514  1.0338
13316TIP3    H261364   2.242   1.858  16.790  1.6269 -1.8261 -1.4642
13317TIP3   OH261365   0.108   0.437  16.066 -0.0674  0.1583 -0.0212
13317TIP3    H161366   0.091   0.528  16.043  0.3387  0.1074 -0.5512
13317TIP3    H261367   0.038   0.413  16.127  0.3209  1.0822  0.8065
13318TIP3   OH261368   3.240   5.324   6.051  0.5237  0.2612 -0.0336
13318TIP3    H161369   3.334   5.315   6.038  0.5949  0.6058  0.2153
13318TIP3    H261370   3.230   5.408   6.097  0.0393  0.5965 -0.7291
13319TIP3   OH261371   2.064   2.164   2.883  0.1897 -0.3248  0.9432
13319TIP3    H161372   1.993   2.109   2.914  0.7503 -0.2981  2.3537
13319TIP3    H261373   2.143   2.110   2.893  0.4778 -0.0810  0.1347
13320TIP3   OH261374   6.704   0.623   0.397 -0.2220  0.4528 -0.6163
13320TIP3    H161375   6.711   0.703   0.449 -2.1667 -0.5616  1.3463
13320TIP3    H261376   6.624   0.581   0.428  1.2461 -2.7604 -0.8289
13321TIP3   OH261377   0.949   4.173   0.395 -0.2714 -0.7879  0.4194
13321TIP3    H161378   0.956   4.199   0.487  1.7520  1.9878 -0.3808
13321TIP3    H261379   0.884   4.233   0.358 -0.0807 -0.9632 -0.2167
13322TIP3   OH261380   4.129   1.949   4.211 -0.0025 -0.6927  0.4614
13322TIP3    H161381   4.046   1.996   4.201  0.2984 -0.4291 -1.0528
13322TIP3    H261382   4.148   1.915   4.124  1.9044 -0.0414  0.5798
13323TIP3   OH261383   0.012   3.774   5.442  0.1474 -0.6378 -0.4735
13323TIP3    H161384  -0.042   3.847   5.471 -0.3450 -1.1939  0.0305
13323TIP3    H261385   0.007   3.777   5.347  2.2348  1.5495 -0.6190
13324TIP3   OH261386   5.523   1.967  15.923 -0.1498  0.4810  0.2095
13324TIP3    H161387   5.600   1.930  15.967 -0.1092 -0.3430 -0.5348
13324TIP3    H261388   5.559   2.033  15.864 -0.0112  0.0979 -0.1362
13325TIP3   OH261389   2.331   1.631  17.190  0.3917  0.5689 -0.0667
13325TIP3    H161390   2.283   1.624  17.273  1.5110 -0.4658  0.5310
13325TIP3    H261391   2.357   1.723  17.184  1.1308  0.4685  1.2310
13326TIP3   OH261392   3.961   0.458   1.038  0.2234  0.4544  0.7327
13326TIP3    H161393   3.952   0.405   1.117 -2.4335 -0.5095 -0.1158
13326TIP3    H261394   4.040   0.511   1.053  0.4241 -0.4964  3.5126
13327TIP3   OH261395   6.153   1.831  16.073 -0.1906  0.3189 -0.2520
13327TIP3    H161396   6.207   1.909  16.081 -0.7597  0.8441 -1.3116
13327TIP3    H261397   6.209   1.759  16.101  0.7664  0.9581 -0.5058
13328TIP3   OH261398   4.471   6.023   6.595 -0.2443 -0.5290 -0.1865
13328TIP3    H161399   4.410   6.093   6.571  0.0222 -0.2038  0.0687
13328TIP3    H261400   4.530   6.064   6.659  1.9179 -0.0122 -2.3637
13329TIP3   OH261401   3.667   2.596  12.853 -0.3126  0.1368 -0.0915
13329TIP3    H161402   3.718   2.515  12.841 -0.4332  0.0031  0.2912
13329TIP3    H261403   3.636   2.592  12.943  0.4139  1.0310  0.2175
13330TIP3   OH261404   3.946   0.509   0.546  0.4496 -0.5643  0.0160
13330TIP3    H161405   4.028   0.463   0.531  0.3746 -0.3696 -1.0785
13330TIP3    H261406   3.884   0.468   0.485 -0.3318 -0.8503  0.9672
13331TIP3   OH261407   0.488   5.682   5.797  0.2677 -0.1502  0.2239
13331TIP3    H161408   0.440   5.659   5.877  1.3669 -1.0381  0.6462
13331TIP3    H261409   0.575   5.706   5.827  1.3555 -2.4743 -0.8213
13332TIP3   OH261410   4.096   2.066  15.253  0.5681  0.1407 -0.4502
13332TIP3    H161411   4.113   2.040  15.162  0.0140  0.0475 -0.5310
13332TIP3    H261412   4.100   1.983  15.302  0.6816  0.1661 -0.4153
13333TIP3   OH261413   6.735   3.991   4.873  0.1193  0.2450  0.3292
13333TIP3    H161414   6.795   4.026   4.807 -1.2327  0.7246 -0.7113
13333TIP3    H261415   6.742   3.896   4.863  0.7617  0.2947  0.2788
13334TIP3   OH261416   1.349   2.936  12.068 -0.4840 -0.7055 -0.4468
13334TIP3    H161417   1.428   2.990  12.073 -0.3567 -0.8590 -0.8060
13334TIP3    H261418   1.341   2.898  12.156 -2.1540  2.0918  0.7451
13335TIP3   OH261419   2.726   3.240   2.860  0.1679  0.2811  0.3419
13335TIP3    H161420   2.662   3.203   2.920 -0.6473 -0.9499 -1.1958
13335TIP3    H261421   2.677   3.258   2.780  1.9141 -1.9303 -1.3737
13336TIP3   OH261422   5.029   5.832   2.305 -0.7727 -0.3434  0.0226
13336TIP3    H161423   5.118   5.797   2.314 -0.5584 -0.2654 -1.4843
13336TIP3    H261424   5.029   5.912   2.358  0.5678  0.5100 -1.1901
13337TIP3   OH261425   6.606   5.247  13.465  0.2391 -0.1903  0.2259
13337TIP3    H161426   6.670   5.212  13.404  0.2572  0.5486 -0.1841
13337TIP3    H261427   6.658   5.278  13.540  0.4168  0.8960 -0.3377
13338TIP3   OH261428   1.994   0.857   3.844  0.1451 -0.2221  0.4217
13338TIP3    H161429   1.999   0.810   3.761 -1.4977  0.7093 -0.2604
13338TIP3    H261430   1.947   0.798   3.903 -1.3804  0.2789 -0.2526
13339TIP3   OH261431   6.502   1.114  13.796  0.3715 -0.6651 -0.2081
13339TIP3    H161432   6.504   1.137  13.888  0.3584  1.4676 -0.6989
13339TIP3    H261433   6.411   1.127  13.769  0.5004 -0.6725 -0.6664
13340TIP3   OH261434   2.782   1.972   1.380  0.3421 -0.4298 -0.5236
13340TIP3    H161435   2.826   1.996   1.461 -1.6602  1.4577  0.0951
13340TIP3    H261436   2.723   2.045   1.361 -1.0301 -1.8901 -2.3742
13341TIP3   OH261437   6.182   4.407  16.333  0.0350  0.3973 -0.2412
13341TIP3    H161438   6.165   4.390  16.426 -1.5806 -1.4333 -0.8114
13341TIP3    H261439   6.211   4.323  16.298 -0.2559  0.8239 -1.5729
13342TIP3   OH261440   2.403   3.373   4.360  0.4117 -0.3258  0.4821
13342TIP3    H161441   2.393   3.405   4.270 -0.0329  1.4949  1.1347
13342TIP3    H261442   2.317   3.383   4.399  0.9400  0.3644  1.5383
13343TIP3   OH261443   1.428   4.705  13.859  0.4529 -0.1924  0.4957
13343TIP3    H161444   1.492   4.764  13.901 -0.0350 -0.6241  1.8813
13343TIP3    H261445   1.479   4.661  13.791  0.6074  2.5264 -1.3030
13344TIP3   OH261446   5.131   0.969  16.194 -0.3085 -0.1185 -0.1678
13344TIP3    H161447   5.058   1.016  16.154 -0.1407  0.0827 -0.2356
13344TIP3    H261448   5.130   0.883  16.151 -0.9798 -0.3927  0.3722
13345TIP3   OH261449   2.340   4.287  14.827  0.8411  0.0968 -0.0956
13345TIP3    H161450   2.290   4.295  14.745  1.5012 -0.5823 -0.5781
13345TIP3    H261451   2.293   4.221  14.878  0.5176  0.4068  0.0105
13346TIP3   OH261452   6.734   3.481   3.387 -0.6445  0.0898  0.2523
13346TIP3    H161453   6.783   3.452   3.310 -0.6748 -1.3147  0.7185
13346TIP3    H261454   6.780   3.560   3.416 -1.7606  1.7842 -2.2444
13347TIP3   OH261455   3.400   6.416   5.870  0.1022  0.5146  0.0311
13347TIP3    H161456   3.345   6.338   5.861 -1.0346  1.1679  0.9914
13347TIP3    H261457   3.471   6.402   5.808  0.5734 -1.8050  0.9775
13348TIP3   OH261458   1.702   1.450  12.730  0.2106  0.0040 -0.3494
13348TIP3    H161459   1.791   1.485  12.718 -0.0909  0.6600 -0.7586
13348TIP3    H261460   1.650   1.496  12.664 -0.6708  0.5147  0.6835
13349TIP3   OH261461   4.748   2.321  15.506 -0.0206 -0.5331 -0.2140
13349TIP3    H161462   4.805   2.244  15.499 -0.8512 -1.3041  1.0635
13349TIP3    H261463   4.672   2.290  15.555 -0.2465  1.1930  0.6114
13350TIP3   OH261464   5.016   2.116   2.519  0.5850  0.4912  0.5421
13350TIP3    H161465   4.965   2.172   2.460  1.5790 -0.6086 -1.4781
13350TIP3    H261466   5.102   2.110   2.478 -0.1266 -4.5460 -0.9322
13351TIP3   OH261467   6.656   5.837   1.835 -0.3432 -0.1569 -0.6770
13351TIP3    H161468   6.618   5.772   1.777  0.9911 -1.1097 -0.5175
13351TIP3    H261469   6.719   5.885   1.781 -1.1948  0.9283 -0.7521
13352TIP3   OH261470   3.065   3.969   1.048  0.8313  0.6726 -0.6404
13352TIP3    H161471   2.997   4.025   1.087  1.0966  1.6136 -1.4927
13352TIP3    H261472   3.081   3.902   1.115 -0.3905  0.8681 -0.1111
13353TIP3   OH261473   6.267   2.548   5.705  0.4624  0.4435  0.6079
13353TIP3    H161474   6.277   2.643   5.715 -0.3836  0.5777  0.2847
13353TIP3    H261475   6.251   2.516   5.794  1.5579  0.4895  0.8318
13354TIP3   OH261476   0.993   2.075   0.125  0.4355 -0.3473  0.2070
13354TIP3    H161477   1.005   2.164   0.092  0.2663 -0.8945 -1.4470
13354TIP3    H261478   0.913   2.079   0.178  0.4175  0.4663  0.1290
13355TIP3   OH261479   5.972   0.377   5.575 -0.8467 -0.2040  0.4600
13355TIP3    H161480   5.959   0.351   5.484  2.9087 -1.7374  0.1695
13355TIP3    H261481   6.004   0.468   5.570  0.1145 -0.5431  0.1050
13356TIP3   OH261482   5.466   1.544   1.381 -0.3049  0.0183 -0.4156
13356TIP3    H161483   5.530   1.473   1.371  0.1826  0.3859  0.0488
13356TIP3    H261484   5.384   1.508   1.346  0.1599 -0.4488 -1.0371
13357TIP3   OH261485   5.348   5.585   0.216 -0.2854  0.3298 -0.5227
13357TIP3    H161486   5.332   5.546   0.301  0.1553  0.7747 -0.2310
13357TIP3    H261487   5.319   5.519   0.153 -0.5279 -0.0347 -0.0302
13358TIP3   OH261488   2.034   0.067   0.375  0.3290  0.1114 -0.0480
13358TIP3    H161489   1.997  -0.004   0.323 -0.5046 -0.0616  0.7489
13358TIP3    H261490   2.098   0.109   0.318  1.0622 -1.4686 -0.4385
13359TIP3   OH261491   4.374   4.560   1.337  0.0589  0.1914  0.6560
13359TIP3    H161492   4.411   4.495   1.397  0.4005 -0.1825  0.0416
13359TIP3    H261493   4.391   4.644   1.380  1.7170  0.0418  0.3321
13360TIP3   OH261494   6.111   3.701  14.599  0.4866  0.2145 -0.0867
13360TIP3    H161495   6.190   3.648  14.591  1.3343  0.7257  3.3094
13360TIP3    H261496   6.051   3.647  14.650  0.5898  1.6707  1.6502
13361TIP3   OH261497   1.776   4.434  14.073 -0.3793  0.3332 -0.0568
13361TIP3    H161498   1.728   4.430  14.157  0.7950 -1.0760  0.5897
13361TIP3    H261499   1.857   4.481  14.094 -0.7904  1.4253 -0.8155
13362TIP3   OH261500   1.922   0.301   5.264 -0.5247 -0.0357  0.6034
13362TIP3    H161501   1.909   0.391   5.235  1.2020  0.4354  1.1389
13362TIP3    H261502   1.990   0.308   5.331 -1.7650 -1.5086  2.0964
13363TIP3   OH261503   6.740   6.358  11.670 -0.1016 -0.6374  0.2675
13363TIP3    H161504   6.814   6.401  11.713 -0.3213  0.6256 -0.5252
13363TIP3    H261505   6.748   6.266  11.693  2.0421 -0.6351 -0.2215
13364TIP3   OH261506   3.528   1.289  16.539 -0.3246 -0.2607  0.6383
13364TIP3    H161507   3.440   1.275  16.504 -0.7574  2.2344  0.5436
13364TIP3    H261508   3.530   1.239  16.620 -1.6484 -0.7861  0.3643
13365TIP3   OH261509   2.179   4.269  14.601 -0.4351 -0.1571  0.1217
13365TIP3    H161510   2.165   4.363  14.612  1.7421  0.2874 -0.4141
13365TIP3    H261511   2.195   4.257  14.508  1.8093 -0.6122  0.5053
13366TIP3   OH261512   6.195   1.021   0.489 -0.1466 -0.0483 -0.1766
13366TIP3    H161513   6.241   1.042   0.408  1.2073 -0.5180  0.4606
13366TIP3    H261514   6.200   1.102   0.540  0.3421 -0.2303  0.0648
13367TIP3   OH261515   1.805   6.230  12.885 -0.2045 -0.7920  0.6017
13367TIP3    H161516   1.788   6.321  12.909 -0.0467 -0.6787  0.2862
13367TIP3    H261517   1.719   6.188  12.891 -0.1630 -0.7853  1.4155
13368TIP3   OH261518   0.451   6.571   3.356  0.0071  0.0202 -0.2761
13368TIP3    H161519   0.381   6.623   3.316  0.4193 -0.4306 -1.6490
13368TIP3    H261520   0.455   6.601   3.447  0.3821  2.5779 -1.0596
13369TIP3   OH261521   3.287   6.218   2.508  0.0618  0.1049 -0.1003
13369TIP3    H161522   3.340   6.195   2.585  0.5283  0.5371 -0.2852
13369TIP3    H261523   3.341   6.193   2.433 -0.7497 -1.1147 -0.3013
13370TIP3   OH261524   4.609   3.685   3.650  0.0282 -0.1073  0.0855
13370TIP3    H161525   4.583   3.597   3.675  2.6165 -1.7827 -2.6181
13370TIP3    H261526   4.703   3.689   3.668  0.6827  0.8215 -2.9758
13371TIP3   OH261527   4.263   3.763   1.788  0.1982 -0.3223  0.1133
13371TIP3    H161528   4.355   3.737   1.776  0.6194  1.3665 -0.6763
13371TIP3    H261529   4.216   3.717   1.719  0.3586 -1.4431  0.7100
13372TIP3   OH261530   2.298   5.204  13.576 -0.3264 -0.0325 -0.5798
13372TIP3    H161531   2.244   5.210  13.655  1.4479  0.3594  0.6504
13372TIP3    H261532   2.342   5.119  13.584 -0.2144 -0.0428 -1.2275
13373TIP3   OH261533   5.296   3.786  12.870 -0.3446 -0.7188 -0.7588
13373TIP3    H161534   5.204   3.787  12.844 -0.5672 -2.0119 -0.0987
13373TIP3    H261535   5.341   3.746  12.795 -0.0781  1.1827 -1.6805
13374TIP3   OH261536   2.725   5.812  12.039  0.2129  0.0588 -0.7826
13374TIP3    H161537   2.783   5.795  12.113  0.6028  0.7102 -0.9358
13374TIP3    H261538   2.745   5.743  11.976 -0.9087 -1.1850  0.1574
13375TIP3   OH261539   3.692   5.885   2.136 -0.0718 -0.1328 -0.2844
13375TIP3    H161540   3.781   5.915   2.155 -0.0014  0.0677 -0.9094
13375TIP3    H261541   3.669   5.831   2.212 -0.2091  1.5109  0.9032
13376TIP3   OH261542   1.178   3.315   0.239  0.2472 -0.2107  0.0884
13376TIP3    H161543   1.230   3.365   0.302  2.1128 -2.5952  0.5872
13376TIP3    H261544   1.161   3.232   0.283 -0.9907 -0.8199 -1.4574
13377TIP3   OH261545   4.549   5.695   2.173  0.7357  0.2467 -0.4289
13377TIP3    H161546   4.485   5.756   2.207 -0.3644 -2.2899  2.5219
13377TIP3    H261547   4.628   5.711   2.224  1.2365  0.7182 -1.3144
13378TIP3   OH261548   4.083   6.707  11.563  0.0142 -0.0556  0.8446
13378TIP3    H161549   4.068   6.712  11.469 -0.3219 -0.4242  0.8743
13378TIP3    H261550   3.999   6.729  11.602  0.3057  0.6656  1.0741
13379TIP3   OH261551   1.408   1.985   0.480  0.3870 -0.3245  0.3176
13379TIP3    H161552   1.473   1.989   0.410  1.5596  0.0140  1.3815
13379TIP3    H261553   1.359   2.067   0.471  0.5893 -0.2391 -0.0450
13380TIP3   OH261554   5.951   4.186  11.138  0.4703  0.3208 -0.2090
13380TIP3    H161555   5.895   4.260  11.159 -1.1250 -1.0017  0.3395
13380TIP3    H261556   6.021   4.189  11.204  0.3283  1.2078 -0.0848
13381TIP3   OH261557   6.678   2.601  13.047  0.7299  0.0376  0.4117
13381TIP3    H161558   6.722   2.682  13.073 -0.1134  0.3076  1.0661
13381TIP3    H261559   6.684   2.545  13.125 -0.6871  0.3568  0.7739
13382TIP3   OH261560   0.359   0.887   4.923  0.0338 -0.4716  0.0761
13382TIP3    H161561   0.416   0.814   4.947 -2.1211 -1.4125  2.8408
13382TIP3    H261562   0.270   0.854   4.936 -1.0516  2.2988  0.3680
13383TIP3   OH261563   2.907   0.448   0.680 -0.0894 -0.1020  0.8427
13383TIP3    H161564   2.968   0.382   0.648  0.4991  0.7046  0.2952
13383TIP3    H261565   2.961   0.525   0.696 -1.3001  1.4836 -2.1087
13384TIP3   OH261566   1.411   4.083  11.426 -0.7158 -0.0927 -0.4885
13384TIP3    H161567   1.486   4.132  11.459 -0.8548 -0.6289  0.6561
13384TIP3    H261568   1.449   4.004  11.386 -0.7302 -1.5669  2.1891
13385TIP3   OH261569   1.162   4.307   1.640 -0.0118  0.1497  0.3574
13385TIP3    H161570   1.196   4.292   1.552  0.2608  0.1560  0.4622
13385TIP3    H261571   1.181   4.225   1.687 -3.0858 -1.1977 -0.4981
13386TIP3   OH261572   4.278   5.005   0.646  0.2990  0.3634  0.3482
13386TIP3    H161573   4.269   5.070   0.717 -0.9863 -1.8888  2.3980
13386TIP3    H261574   4.348   4.947   0.676  0.2116 -0.2365 -0.5887
13387TIP3   OH261575   1.136   6.547   6.297  0.3802 -0.0110 -0.6307
13387TIP3    H161576   1.163   6.582   6.382  2.1279 -0.9886 -0.7294
13387TIP3    H261577   1.047   6.516   6.311  0.0743  1.2618  0.3991
13388TIP3   OH261578   2.861   2.303  16.248 -0.2786 -0.4311  0.3744
13388TIP3    H161579   2.945   2.349  16.255  0.1659 -1.3296  1.2798
13388TIP3    H261580   2.804   2.347  16.311 -0.1105 -0.5961  0.6413
13389TIP3   OH261581   4.363   1.095   2.861 -0.2093  0.0355 -0.2887
13389TIP3    H161582   4.285   1.138   2.895 -0.2470 -0.5451  0.3944
13389TIP3    H261583   4.349   1.088   2.767  0.2436  2.4031 -0.5911
13390TIP3   OH261584   5.673   0.017   4.395 -0.6505  0.1740  0.3011
13390TIP3    H161585   5.730   0.055   4.462 -0.5619 -0.7399  0.7577
13390TIP3    H261586   5.604   0.082   4.382 -0.8070  0.2490  1.4623
13391TIP3   OH261587   6.419   3.752  12.092  0.0728  0.2369  0.1151
13391TIP3    H161588   6.346   3.791  12.140  0.7423 -0.7818  2.0479
13391TIP3    H261589   6.497   3.793  12.129  0.5514  0.7697 -1.4085
13392TIP3   OH261590   6.515   3.039   1.203  0.7417 -0.0116  0.4492
13392TIP3    H161591   6.559   3.049   1.118  0.4759  0.6568  0.3791
13392TIP3    H261592   6.576   3.076   1.266  0.8986 -0.4223  0.5410
13393TIP3   OH261593   3.601   0.599   1.770  0.4961 -0.5569  0.3199
13393TIP3    H161594   3.548   0.620   1.693  1.8469 -3.6934 -1.6889
13393TIP3    H261595   3.537   0.571   1.836 -0.6986  2.2766  0.4891
13394TIP3   OH261596   4.579   4.789  16.211  0.1591  0.5412 -0.1600
13394TIP3    H161597   4.672   4.784  16.189 -0.2217 -0.5195 -1.6627
13394TIP3    H261598   4.551   4.697  16.213 -0.6622  0.7956  1.2567
13395TIP3   OH261599   0.371   0.236  16.092  0.4183  0.3062 -0.7312
13395TIP3    H161600   0.344   0.322  16.061 -0.0221  0.4696  0.0787
13395TIP3    H261601   0.293   0.181  16.082  0.6937 -0.0006 -1.2371
13396TIP3   OH261602   1.917   1.064  13.943 -0.5261  0.0739 -0.0524
13396TIP3    H161603   1.946   1.097  14.029 -0.9406 -0.1177  0.1610
13396TIP3    H261604   1.846   1.004  13.963 -0.9830  0.4323 -0.5663
13397TIP3   OH261605   6.233   2.120   3.335 -0.3544  0.0149  0.1299
13397TIP3    H161606   6.184   2.037   3.337 -1.0778  0.3726 -1.1434
13397TIP3    H261607   6.279   2.123   3.418 -1.5665 -0.9296  0.8747
13398TIP3   OH261608   0.707   2.438  11.512  0.0917 -0.1341 -0.0819
13398TIP3    H161609   0.668   2.353  11.491 -1.3257  0.4225  0.1954
13398TIP3    H261610   0.753   2.463  11.432  1.9407 -1.8599  0.3365
13399TIP3   OH261611   0.716   2.798  10.809  0.3149 -0.0266  0.7885
13399TIP3    H161612   0.651   2.824  10.743 -0.1706  0.5882  1.4817
13399TIP3    H261613   0.691   2.709  10.834  0.7567 -0.4304 -0.1416
13400TIP3   OH261614   2.463   0.096   2.827 -0.1338  0.4529 -0.4568
13400TIP3    H161615   2.405   0.153   2.776 -1.2571 -0.6173 -0.4285
13400TIP3    H261616   2.430   0.102   2.917 -0.5206 -0.5280 -0.5192
13401TIP3   OH261617   6.447   2.334  13.670 -0.6598  0.2649 -0.8146
13401TIP3    H161618   6.358   2.317  13.639 -1.8547  2.4574  1.1304
13401TIP3    H261619   6.469   2.420  13.634  0.0240  0.4643  0.0476
13402TIP3   OH261620   6.606   3.915  14.351  0.0042  0.4608  0.1711
13402TIP3    H161621   6.607   3.955  14.264 -0.5960  0.4046  0.1299
13402TIP3    H261622   6.689   3.941  14.391  0.8643 -0.5599 -0.8897
13403TIP3   OH261623   1.780   6.188   2.298 -0.5304  0.3820  0.3670
13403TIP3    H161624   1.758   6.269   2.343 -0.0970 -0.1682  1.6149
13403TIP3    H261625   1.696   6.144   2.286 -0.6422  0.5033  0.6946
13404TIP3   OH261626   1.025   5.107   0.922  0.1665 -0.0122  0.1086
13404TIP3    H161627   1.055   5.033   0.975 -0.5216 -0.8981 -0.6894
13404TIP3    H261628   1.048   5.184   0.973  2.7260 -0.6640  0.0675
13405TIP3   OH261629   5.062   3.547  16.605 -0.1752  0.1190  0.6868
13405TIP3    H161630   5.076   3.636  16.570  0.7805  0.4761  1.9327
13405TIP3    H261631   5.058   3.559  16.700 -2.0053 -0.9316  0.7922
13406TIP3   OH261632   0.525   4.344  13.315  0.0232  0.7198 -0.1578
13406TIP3    H161633   0.573   4.268  13.283  1.8935  1.0113  1.7159
13406TIP3    H261634   0.458   4.309  13.373  1.6070  0.4288  1.6197
13407TIP3   OH261635   6.062   1.678   4.983  0.0140 -0.6324  0.2410
13407TIP3    H161636   6.031   1.678   4.893  1.2902 -1.1180 -0.2227
13407TIP3    H261637   5.985   1.699   5.035 -0.9139 -1.0964 -0.9068
13408TIP3   OH261638   3.313   4.854   4.141  0.7573  0.0301  0.1135
13408TIP3    H161639   3.371   4.786   4.176  0.0953 -0.7835 -0.3212
13408TIP3    H261640   3.371   4.915   4.096  1.3676 -0.2438  0.5191
13409TIP3   OH261641   0.938   6.612   0.545 -0.5733 -0.0248  0.6290
13409TIP3    H161642   0.899   6.527   0.528 -0.5860  0.1658 -0.4140
13409TIP3    H261643   1.029   6.602   0.516 -0.5158  0.2498  0.7133
13410TIP3   OH261644   2.830   0.054  15.998 -0.3990 -0.1441  0.3739
13410TIP3    H161645   2.825  -0.035  16.033  2.1665 -0.6957 -0.4391
13410TIP3    H261646   2.901   0.051  15.934 -1.4773  2.0729 -1.0689
13411TIP3   OH261647   2.191   5.441  16.576  0.3192 -0.0839 -0.3020
13411TIP3    H161648   2.143   5.478  16.502 -0.2664 -1.8160 -0.8324
13411TIP3    H261649   2.139   5.366  16.604 -0.0224  1.1224  2.5788
13412TIP3   OH261650   4.003   5.089   3.572  0.1098 -0.3753  0.7475
13412TIP3    H161651   3.997   5.139   3.491  1.6753  0.6220  1.1810
13412TIP3    H261652   3.924   5.111   3.620 -0.3860 -0.2492 -0.1194
13413TIP3   OH261653   3.126   4.674  13.406  0.9215 -0.2007 -0.2125
13413TIP3    H161654   3.089   4.620  13.335 -0.6161 -1.4921  1.4557
13413TIP3    H261655   3.050   4.697  13.460  2.2252 -0.8979  2.0593
13414TIP3   OH261656   6.450   6.346  16.268  0.6235 -0.1086  0.4816
13414TIP3    H161657   6.356   6.357  16.252  0.6939 -0.4188 -0.1960
13414TIP3    H261658   6.470   6.407  16.339  0.3718  1.7185 -0.9647
13415TIP3   OH261659   1.123   5.672   3.399  0.0975  0.6967  0.9788
13415TIP3    H161660   1.047   5.705   3.352  0.0915 -2.6425 -1.7749
13415TIP3    H261661   1.198   5.709   3.352  0.0964 -0.1220  0.3047
13416TIP3   OH261662   3.581   2.979   1.649  0.2532  0.3338 -0.3499
13416TIP3    H161663   3.668   3.017   1.664  0.3873 -0.0350 -0.1810
13416TIP3    H261664   3.521   3.053   1.659  0.4944  0.4615  0.2232
13417TIP3   OH261665   4.980   4.475  16.258 -0.5914 -0.2461  0.3743
13417TIP3    H161666   5.038   4.529  16.312 -0.6475 -1.3209  1.5467
13417TIP3    H261667   4.957   4.532  16.184 -0.3453  1.2091  1.3646
13418TIP3   OH261668   0.776   4.272   5.986 -0.4593 -0.2776 -0.0168
13418TIP3    H161669   0.700   4.265   5.928  0.1359  0.8088 -0.9651
13418TIP3    H261670   0.823   4.190   5.975 -1.2584 -0.7880  0.2623
13419TIP3   OH261671   3.251   6.496   3.704 -0.5638 -0.3818 -0.1247
13419TIP3    H161672   3.221   6.415   3.746  1.6230 -0.7742  0.8201
13419TIP3    H261673   3.238   6.564   3.770 -0.5287 -0.3346 -0.1663
13420TIP3   OH261674   2.222   5.576   6.131 -0.2552 -0.4331 -0.2232
13420TIP3    H161675   2.279   5.620   6.194 -0.5899 -0.3459  0.0186
13420TIP3    H261676   2.140   5.563   6.178 -0.5513 -0.2509 -0.6822
13421TIP3   OH261677   5.631   5.440   2.320 -0.3984  0.1051  0.1696
13421TIP3    H161678   5.653   5.439   2.227  0.2006  0.2002  0.3044
13421TIP3    H261679   5.716   5.434   2.365 -0.7266 -0.7216  0.7092
13422TIP3   OH261680   2.438   0.058   3.985  0.1917 -0.0629  0.3085
13422TIP3    H161681   2.359   0.040   4.037  0.3178 -0.5021  0.3531
13422TIP3    H261682   2.415   0.134   3.932 -0.5261 -0.6421 -0.2313
13423TIP3   OH261683   0.759   4.560  11.432  0.2245 -0.0945  0.2767
13423TIP3    H161684   0.826   4.496  11.452  0.5198  0.4015  0.9224
13423TIP3    H261685   0.750   4.611  11.513  0.5705  1.1920 -0.4671
13424TIP3   OH261686   0.120   3.731  12.206 -0.0320 -0.4827  0.6092
13424TIP3    H161687   0.036   3.747  12.162  0.1232  0.5544  0.6636
13424TIP3    H261688   0.111   3.644  12.243 -0.2995 -1.2732 -1.1896
13425TIP3   OH261689   1.156   3.384  15.900 -0.2748 -0.0196  0.3713
13425TIP3    H161690   1.075   3.436  15.903  0.6474  1.5247 -0.1318
13425TIP3    H261691   1.155   3.334  15.981 -2.4679 -1.2294 -0.3195
13426TIP3   OH261692   5.531   1.712   6.129  0.0231  0.0425 -0.1155
13426TIP3    H161693   5.494   1.749   6.209  0.0411 -0.7948  0.2896
13426TIP3    H261694   5.475   1.637   6.109 -0.8806  1.0833 -1.7192
13427TIP3   OH261695   2.574   5.937  13.528 -0.0813 -0.1153 -0.2015
13427TIP3    H161696   2.611   5.892  13.604  1.5457 -0.8812 -1.3862
13427TIP3    H261697   2.591   6.029  13.545 -0.3657 -0.2166  0.6872
13428TIP3   OH261698   4.622   1.786   0.449  0.2172 -0.5459  0.0839
13428TIP3    H161699   4.662   1.726   0.387  0.3359  1.4799 -1.9146
13428TIP3    H261700   4.528   1.779   0.431  0.2868  0.4235 -0.7535
13429TIP3   OH261701   5.971   2.753   6.678  0.4127  0.2225  0.2403
13429TIP3    H161702   5.994   2.663   6.698 -0.0475 -0.2161 -1.0727
13429TIP3    H261703   6.054   2.801   6.681  0.7266 -0.3281  0.4762
13430TIP3   OH261704   5.744   4.497  13.869  0.1656 -0.1436  0.0455
13430TIP3    H161705   5.808   4.473  13.802 -0.4317 -0.0542 -0.5698
13430TIP3    H261706   5.783   4.572  13.914  1.1734 -1.0410  0.7063
13431TIP3   OH261707   2.297   4.404   1.520 -0.7728 -0.0123 -0.0645
13431TIP3    H161708   2.247   4.382   1.441 -0.5282  2.1139 -0.8564
13431TIP3    H261709   2.360   4.332   1.529 -0.9206 -0.3796 -1.7102
13432TIP3   OH261710   0.088   3.867   0.840  0.3538  0.8841 -0.5410
13432TIP3    H161711   0.006   3.914   0.856 -0.0052  0.5387 -1.2816
13432TIP3    H261712   0.157   3.929   0.863 -0.0350  0.1976  3.1052
13433TIP3   OH261713   2.410   1.668  12.819  0.2652  0.3117  0.0550
13433TIP3    H161714   2.454   1.734  12.765  0.2274  0.4967  0.2469
13433TIP3    H261715   2.372   1.718  12.891  2.0953 -0.1519  1.4236
13434TIP3   OH261716   5.021   5.618  11.727  0.2746 -0.7428  0.6234
13434TIP3    H161717   5.053   5.642  11.814  0.3046  0.5531  0.2741
13434TIP3    H261718   4.928   5.602  11.739  0.0325  0.6164  0.6945
13435TIP3   OH261719   5.984   6.289  13.881 -0.4417 -0.2586  0.0065
13435TIP3    H161720   6.025   6.203  13.881 -0.8443 -0.4574  0.4597
13435TIP3    H261721   5.898   6.275  13.921 -0.1446  0.5238  0.9713
13436TIP3   OH261722   4.525   1.563  15.936  0.1715  0.4642 -0.9120
13436TIP3    H161723   4.546   1.620  16.010  1.3811 -0.4835 -0.4892
13436TIP3    H261724   4.607   1.557  15.887 -0.2608  0.0189 -1.5849
13437TIP3   OH261725   0.104   2.404  16.834  0.7166  0.1092 -0.2106
13437TIP3    H161726   0.164   2.341  16.794  1.2247 -1.0202  2.1031
13437TIP3    H261727   0.144   2.489  16.818  4.0100 -0.6651  2.5751
13438TIP3   OH261728   0.945   6.105   3.985  0.4728 -0.5784 -0.1747
13438TIP3    H161729   1.020   6.108   4.044 -0.8658 -0.6660  1.6351
13438TIP3    H261730   0.906   6.192   3.991  0.9722 -0.1975 -1.9129
13439TIP3   OH261731   0.502   0.628   0.709 -0.2982 -0.0067  0.3759
13439TIP3    H161732   0.434   0.585   0.658 -0.6594  1.2198 -0.1945
13439TIP3    H261733   0.534   0.698   0.653  1.3643 -0.4727  0.6843
13440TIP3   OH261734   3.123   4.827   0.791 -0.0513 -0.3377  1.1177
13440TIP3    H161735   3.047   4.844   0.847  0.1254  0.4658  1.1216
13440TIP3    H261736   3.104   4.742   0.751 -0.3450 -0.7575  2.1145
13441TIP3   OH261737   2.483   0.622   5.731 -0.7400 -0.5546 -0.6440
13441TIP3    H161738   2.455   0.531   5.727 -1.1241 -0.6204  1.7361
13441TIP3    H261739   2.409   0.668   5.770  0.2585  0.3563  0.2569
13442TIP3   OH261740   0.805   3.888   0.111 -0.3810 -0.2643 -0.2393
13442TIP3    H161741   0.883   3.937   0.137 -1.1438 -0.9958  4.1847
13442TIP3    H261742   0.734   3.926   0.162 -2.5244 -1.2120 -2.3056
13443TIP3   OH261743   2.674   6.007   1.074  0.1168  0.1143 -0.3091
13443TIP3    H161744   2.727   5.936   1.036  0.7157  2.0229 -3.3827
13443TIP3    H261745   2.735   6.056   1.129 -0.8428 -2.8979  3.9201
13444TIP3   OH261746   1.698   1.944  10.819  0.3843  0.0389 -0.0789
13444TIP3    H161747   1.681   1.978  10.732 -2.7641  0.1816  0.4695
13444TIP3    H261748   1.704   1.849  10.807 -2.5982 -0.2252 -0.2704
13445TIP3   OH261749   1.109   3.631  10.935 -0.3159 -0.0814 -0.0208
13445TIP3    H161750   1.058   3.683  10.872  0.3959  0.5096 -0.1245
13445TIP3    H261751   1.055   3.630  11.014 -0.2750  0.9705  0.0371
13446TIP3   OH261752   4.272   1.877  13.827 -0.1630 -0.1654  0.3623
13446TIP3    H161753   4.193   1.862  13.878 -0.2832  1.0426  0.5628
13446TIP3    H261754   4.344   1.858  13.887 -0.3081 -0.0910  0.5596
13447TIP3   OH261755   4.996   5.980  15.315 -0.2771  0.4912  0.0210
13447TIP3    H161756   5.011   6.010  15.225  1.2959  1.9285  0.6928
13447TIP3    H261757   4.956   6.055  15.358 -1.0369 -0.1956  0.5278
13448TIP3   OH261758   2.919   2.695   2.293 -0.4732 -0.4552  0.1372
13448TIP3    H161759   2.969   2.656   2.365  0.5430 -0.3468 -0.4749
13448TIP3    H261760   2.831   2.705   2.327  0.2337  0.6584  1.7783
13449TIP3   OH261761   4.091   2.080   1.626 -0.6189  0.0216 -0.4352
13449TIP3    H161762   4.013   2.027   1.642 -2.8781  2.6957 -1.7402
13449TIP3    H261763   4.097   2.138   1.702 -0.1185  0.1001 -0.5272
13450TIP3   OH261764   1.186   4.788   5.249  0.5099 -0.3419 -0.1427
13450TIP3    H161765   1.188   4.864   5.308 -3.5907 -0.0699 -0.0219
13450TIP3    H261766   1.275   4.782   5.215  1.9552  2.2321  2.6282
13451TIP3   OH261767   1.176   1.210   1.451  0.3275  0.4894 -0.1206
13451TIP3    H161768   1.138   1.176   1.370 -0.7538  0.9427  0.1703
13451TIP3    H261769   1.270   1.211   1.436  0.1120  1.0223 -1.5535
13452TIP3   OH261770   6.750   2.137  10.485 -0.4271 -0.3337 -0.2497
13452TIP3    H161771   6.695   2.059  10.496 -0.2622 -0.2879  1.0920
13452TIP3    H261772   6.785   2.129  10.396  1.9160 -3.3844  0.7656
13453TIP3   OH261773   4.246   5.636  17.042  0.0362  0.3531  0.3089
13453TIP3    H161774   4.303   5.600  16.974 -1.2531 -0.9506 -0.1318
13453TIP3    H261775   4.183   5.567  17.059 -0.0795  0.9104  2.3842
13454TIP3   OH261776   5.273   2.366   1.931 -0.0678 -0.1601  0.1383
13454TIP3    H161777   5.300   2.320   1.852 -1.7791 -0.2429 -0.4426
13454TIP3    H261778   5.351   2.414   1.959  1.0180 -1.3956 -0.6740
13455TIP3   OH261779   0.822   3.970   4.708 -0.3287 -0.4528 -0.0893
13455TIP3    H161780   0.870   4.021   4.774  0.9062 -2.5500  0.7271
13455TIP3    H261781   0.761   3.917   4.759 -2.7534  1.2435 -1.0388
13456TIP3   OH261782   0.692   1.743   2.700 -0.2066 -0.0955 -0.3566
13456TIP3    H161783   0.668   1.791   2.780 -0.4029 -1.1427  0.2280
13456TIP3    H261784   0.769   1.790   2.666 -0.1337  0.3740  0.4273
13457TIP3   OH261785   1.016   3.248   4.526  0.2160 -0.3907 -0.4964
13457TIP3    H161786   1.029   3.234   4.620 -1.8081 -1.1503 -0.2771
13457TIP3    H261787   1.004   3.342   4.518  2.4379 -0.0445 -0.3236
13458TIP3   OH261788   2.278   2.783   4.734 -0.0022  0.1430 -0.1762
13458TIP3    H161789   2.230   2.855   4.693  3.0096  3.2861  1.2018
13458TIP3    H261790   2.316   2.734   4.661 -1.8346  0.1385 -1.1640
13459TIP3   OH261791   6.679   2.234   2.387 -0.1456  0.2805  0.0871
13459TIP3    H161792   6.691   2.281   2.470  1.6113  2.2322 -1.1742
13459TIP3    H261793   6.764   2.193   2.371 -0.7153 -0.7445 -0.3940
13460TIP3   OH261794   3.705   2.945   0.644 -0.0283 -0.6521  0.2699
13460TIP3    H161795   3.788   2.903   0.624  0.4969  1.1445 -1.7239
13460TIP3    H261796   3.639   2.877   0.628  0.9282 -1.5967  0.2275
13461TIP3   OH261797   2.633   6.140   3.701  0.1139 -0.3316 -0.6248
13461TIP3    H161798   2.601   6.081   3.632  1.6227 -0.4060 -1.3076
13461TIP3    H261799   2.728   6.140   3.689  0.6040 -1.4956  2.3785
13462TIP3   OH261800   5.927   0.122   4.126 -0.2549  0.0135 -0.0162
13462TIP3    H161801   5.879   0.205   4.123 -1.6618 -0.8016 -1.3514
13462TIP3    H261802   5.859   0.055   4.114  0.7648 -1.3922  1.6134
13463TIP3   OH261803   0.700   5.771  17.087  0.3380 -0.2062  0.3265
13463TIP3    H161804   0.718   5.846  17.143  2.7249  0.7292 -1.5288
13463TIP3    H261805   0.786   5.736  17.064 -0.6657 -2.5611 -0.1484
13464TIP3   OH261806   2.001   0.426  15.613  0.1851 -0.1428  0.6422
13464TIP3    H161807   2.089   0.398  15.585  0.8705  1.1715  1.3916
13464TIP3    H261808   1.963   0.348  15.652  0.9435 -0.7926  0.1261
13465TIP3   OH261809   6.655   1.375   0.921  0.3880  0.2246 -0.0814
13465TIP3    H161810   6.660   1.463   0.959 -0.9766  0.2938 -0.0186
13465TIP3    H261811   6.599   1.386   0.844  1.5948 -0.2754 -1.0625
13466TIP3   OH261812   1.969   1.338  14.800 -0.0595 -0.0717  0.8033
13466TIP3    H161813   1.882   1.305  14.823 -0.3685  1.5067  2.0742
13466TIP3    H261814   2.017   1.340  14.883  0.4543  1.1421  0.4956
13467TIP3   OH261815   5.759   5.646  11.380  0.9487 -0.1810 -0.0028
13467TIP3    H161816   5.845   5.608  11.366  0.9280  0.2398 -1.4452
13467TIP3    H261817   5.702   5.599  11.319  0.2221 -0.2388  0.7086
13468TIP3   OH261818   0.193   0.089  16.528  0.6529  0.4198  0.6153
13468TIP3    H161819   0.219   0.079  16.620 -0.3323  0.7931  0.9471
13468TIP3    H261820   0.154   0.176  16.523 -0.9744 -0.2890  0.2678
13469TIP3   OH261821   4.226   1.251  11.880  0.4191  0.6843 -0.7590
13469TIP3    H161822   4.160   1.182  11.892 -2.9929  3.2355 -2.8813
13469TIP3    H261823   4.254   1.242  11.789 -0.4143  2.2157 -1.2127
13470TIP3   OH261824   5.272   4.692  13.672  0.6617  0.1302  0.1499
13470TIP3    H161825   5.179   4.668  13.677  0.5445  0.3188 -0.8950
13470TIP3    H261826   5.294   4.719  13.761 -0.1925 -0.2520  0.4958
13471TIP3   OH261827   5.340   2.834  12.202 -0.0286  0.4987 -0.2097
13471TIP3    H161828   5.355   2.902  12.137 -0.6095  0.6207 -0.2225
13471TIP3    H261829   5.293   2.878  12.273 -2.9543 -0.4140 -1.4118
13472TIP3   OH261830   3.096   0.386  10.300  0.6041 -0.4338  0.3838
13472TIP3    H161831   3.003   0.404  10.290  0.9601  1.9021  0.6111
13472TIP3    H261832   3.109   0.378  10.395  0.4740 -2.0556  0.2962
13473TIP3   OH261833   0.990   3.377  14.499  0.1868 -0.4445  0.2445
13473TIP3    H161834   1.039   3.423  14.568 -0.6080  0.2113  0.3866
13473TIP3    H261835   1.002   3.432  14.422 -1.1239  0.2781  0.5168
13474TIP3   OH261836   5.159   6.770  14.164  0.2438 -0.2428 -0.1411
13474TIP3    H161837   5.067   6.797  14.171  0.7418  1.5599 -0.1424
13474TIP3    H261838   5.175   6.765  14.070  0.3386  0.1423 -0.1458
13475TIP3   OH261839   6.766   3.678  13.368 -0.2226 -0.0352  0.5907
13475TIP3    H161840   6.779   3.660  13.461  0.7792  0.4021  0.5513
13475TIP3    H261841   6.780   3.593  13.325 -1.6672 -0.4515  0.9054
13476TIP3   OH261842   4.860   1.301  13.017  0.2444  0.3718 -0.7437
13476TIP3    H161843   4.848   1.393  13.043 -0.6362  0.2915 -0.8309
13476TIP3    H261844   4.930   1.269  13.073  0.5967  1.1183 -0.7506
13477TIP3   OH261845   4.058   2.963  13.665  0.0805  0.1804  0.1089
13477TIP3    H161846   4.069   3.008  13.748 -1.1626  0.1555  0.3137
13477TIP3    H261847   4.028   3.031  13.604 -0.1179 -0.0192 -0.0203
13478TIP3   OH261848   4.844   3.945   1.884 -0.0334  0.3354 -0.0363
13478TIP3    H161849   4.754   3.917   1.898 -0.0489  1.2353  2.2376
13478TIP3    H261850   4.898   3.877   1.925  0.5728 -1.4213 -3.3930
13479TIP3   OH261851   3.368   4.408  11.658 -0.1947  0.3578 -0.1145
13479TIP3    H161852   3.392   4.433  11.747  0.9219 -0.4239 -0.1685
13479TIP3    H261853   3.277   4.435  11.649 -0.5584 -0.2115  1.5178
13480TIP3   OH261854   0.528   1.822  15.349 -0.2706  0.3447 -0.0861
13480TIP3    H161855   0.539   1.878  15.272  0.9823  0.4521  0.1569
13480TIP3    H261856   0.518   1.883  15.422 -0.3204  0.2401 -0.0055
13481TIP3   OH261857   2.459   4.110   5.072  0.0961  0.1182  0.0294
13481TIP3    H161858   2.434   4.020   5.093 -3.4147  1.2949  1.7075
13481TIP3    H261859   2.499   4.104   4.985  1.5646 -3.1883  0.7735
13482TIP3   OH261860   1.420   6.509   4.707  0.6981  0.7025  0.4446
13482TIP3    H161861   1.498   6.505   4.651  0.6620  0.0595  0.4365
13482TIP3    H261862   1.378   6.424   4.697 -0.6928  1.4670 -0.5193
13483TIP3   OH261863   0.605   0.443   2.571  0.1139 -0.2551 -0.0166
13483TIP3    H161864   0.534   0.380   2.554  0.2187  0.0956 -1.9898
13483TIP3    H261865   0.682   0.388   2.584 -0.1734 -0.5854  0.3240
13484TIP3   OH261866   5.848   1.106   6.682  0.4173  0.5696  0.5154
13484TIP3    H161867   5.808   1.186   6.715 -0.4086  1.1781 -1.7424
13484TIP3    H261868   5.919   1.136   6.624 -0.2880 -0.2503 -0.8341
13485TIP3   OH261869   6.676   4.062  13.650  0.0440  0.0568  0.6827
13485TIP3    H161870   6.636   4.003  13.586  0.2971 -0.9343  1.4160
13485TIP3    H261871   6.616   4.137  13.653 -1.4981 -1.1407  1.3314
13486TIP3   OH261872   0.570   0.077   2.825 -0.1030  0.4506  0.1819
13486TIP3    H161873   0.487   0.069   2.872  0.6913 -0.3454  1.5031
13486TIP3    H261874   0.600   0.166   2.844 -0.2746  0.4764  0.3272
13487TIP3   OH261875   5.652   0.785   3.553  0.2052 -0.3320  0.2374
13487TIP3    H161876   5.611   0.864   3.518  1.0921 -0.5202 -1.3456
13487TIP3    H261877   5.708   0.817   3.624  0.0626  0.3811  0.0409
13488TIP3   OH261878   3.141   4.925  12.768  0.1182  0.6379  0.8683
13488TIP3    H161879   3.056   4.927  12.724 -0.7113  1.0507  2.4376
13488TIP3    H261880   3.148   4.837  12.803  1.1373  0.0514 -0.6895
13489TIP3   OH261881   0.540   1.281   2.192  0.1852 -0.1503 -0.6106
13489TIP3    H161882   0.497   1.348   2.246  2.6926  1.0896  0.0062
13489TIP3    H261883   0.582   1.330   2.122  0.8331 -1.2584 -1.0210
13490TIP3   OH261884   1.983   1.288   4.194  0.2606 -0.2772 -0.2423
13490TIP3    H161885   2.019   1.342   4.124  0.9796 -1.0124 -0.4611
13490TIP3    H261886   1.992   1.198   4.162 -3.1300 -0.4927 -0.9532
13491TIP3   OH261887   3.718   0.814  12.187 -0.4422  0.0404 -0.7648
13491TIP3    H161888   3.656   0.749  12.153 -0.9498  0.0415  0.1149
13491TIP3    H261889   3.663   0.872  12.241  0.1899  0.5519 -0.6666
13492TIP3   OH261890   2.526   3.764  11.480 -0.1551  0.3901  0.3537
13492TIP3    H161891   2.549   3.781  11.571  1.5131  0.0985  0.0266
13492TIP3    H261892   2.580   3.689  11.455 -3.1459 -1.8960  0.1031
13493TIP3   OH261893   3.622   3.891  12.836  0.2762  0.2968  0.1920
13493TIP3    H161894   3.699   3.899  12.780 -0.1630  0.5606 -0.3811
13493TIP3    H261895   3.568   3.825  12.794  0.6313 -0.6058  1.1223
13494TIP3   OH261896   1.452   3.160  13.296 -0.2187 -0.0088  0.2579
13494TIP3    H161897   1.465   3.078  13.343 -0.9702 -0.4542 -0.2877
13494TIP3    H261898   1.534   3.207  13.308  1.3236 -1.9758 -1.6148
13495TIP3   OH261899   0.713   1.470   3.650 -0.0332  0.5881  0.4550
13495TIP3    H161900   0.631   1.492   3.693 -0.5114  1.2585 -0.7519
13495TIP3    H261901   0.779   1.480   3.718 -1.0099 -0.7018  1.6468
13496TIP3   OH261902   5.536   5.526   1.344 -0.8158  0.5731  0.6479
13496TIP3    H161903   5.568   5.594   1.285 -2.1645  0.7265  0.0457
13496TIP3    H261904   5.553   5.444   1.297 -1.5921  0.6759  0.1638
13497TIP3   OH261905   5.715   0.116  15.442  0.5360 -0.2112 -0.0972
13497TIP3    H161906   5.632   0.150  15.476  1.5662  0.6804  1.6942
13497TIP3    H261907   5.744   0.054  15.509  0.6886 -1.5394 -1.3574
13498TIP3   OH261908   2.718   0.267  11.985 -0.2830 -0.3496  0.1132
13498TIP3    H161909   2.763   0.218  11.917  0.7989  0.0274  0.5408
13498TIP3    H261910   2.691   0.200  12.049  0.3427 -0.5031  0.2241
13499TIP3   OH261911   2.690   2.816   4.756  0.3048 -0.2909  0.1089
13499TIP3    H161912   2.729   2.832   4.670  0.6737  0.4864  0.4125
13499TIP3    H261913   2.638   2.737   4.744  1.2973 -0.8721 -0.5263
13500TIP3   OH261914   4.747   5.876  11.895  0.3025  0.2667 -0.2278
13500TIP3    H161915   4.658   5.898  11.866  0.7789 -0.1082 -2.1455
13500TIP3    H261916   4.743   5.784  11.918  0.2801  0.1291 -0.7624
13501TIP3   OH261917   5.556   5.580  13.319  0.1742 -0.1838 -0.0280
13501TIP3    H161918   5.470   5.595  13.359  1.0699  2.9851  1.0505
13501TIP3    H261919   5.616   5.575  13.394  1.0818 -1.3121 -0.7986
13502TIP3   OH261920   1.884   2.329   4.929  0.1054 -0.0567 -0.6673
13502TIP3    H161921   1.896   2.410   4.978 -0.7097  0.3868 -1.1804
13502TIP3    H261922   1.957   2.273   4.956 -0.6317 -0.0678  1.5054
13503TIP3   OH261923   4.315   0.783   2.756 -0.1989 -0.3425  0.3770
13503TIP3    H161924   4.251   0.826   2.812  0.7530  0.0830  1.1627
13503TIP3    H261925   4.303   0.689   2.773 -1.0153 -0.2983  0.0552
13504TIP3   OH261926   6.337   4.254   2.031 -0.4983 -0.3096  0.6203
13504TIP3    H161927   6.326   4.346   2.054 -0.6334 -0.1194 -0.1786
13504TIP3    H261928   6.248   4.221   2.019 -0.4240  0.3803 -2.5707
13505TIP3   OH261929   2.240   3.404   0.210  0.1931  0.6208 -0.4100
13505TIP3    H161930   2.249   3.337   0.141 -1.8020 -1.6662  1.3956
13505TIP3    H261931   2.310   3.383   0.271 -1.2398 -0.7853  0.8295
13506TIP3   OH261932   4.166   0.457  11.809 -0.5957 -0.3392  0.7948
13506TIP3    H161933   4.193   0.366  11.800  0.6373  0.0392  0.4522
13506TIP3    H261934   4.124   0.461  11.895 -0.5469 -1.2015  0.8706
13507TIP3   OH261935   6.791   6.318  15.270  0.3119 -0.4428  0.3047
13507TIP3    H161936   6.883   6.337  15.251  0.2447  0.3622  0.7111
13507TIP3    H261937   6.791   6.287  15.361  0.1326  0.0075  0.4611
13508TIP3   OH261938   1.769   2.630  15.979 -0.0169 -0.2231 -0.1536
13508TIP3    H161939   1.683   2.603  15.947  0.0512 -0.9461  0.2589
13508TIP3    H261940   1.791   2.707  15.926  0.4566 -1.8288 -2.4568
13509TIP3   OH261941   4.094   3.400  16.283 -0.2167 -0.0581 -0.8392
13509TIP3    H161942   4.093   3.324  16.341 -0.3431 -1.8203 -3.0149
13509TIP3    H261943   4.048   3.468  16.333 -1.3205 -1.8075  0.6936
13510TIP3   OH261944   1.238   4.665  15.339  0.2091  0.5973  0.7202
13510TIP3    H161945   1.233   4.757  15.311  0.7065  0.0259 -1.4559
13510TIP3    H261946   1.332   4.650  15.354  0.3435  0.0447 -0.5487
13511TIP3   OH261947   1.807   2.876   3.915  0.4152  0.4551 -0.1804
13511TIP3    H161948   1.864   2.804   3.940  0.1480 -0.2576 -1.5021
13511TIP3    H261949   1.863   2.953   3.917  1.3596 -0.1775 -1.1139
13512TIP3   OH261950   0.649   3.898   3.330  0.4377 -0.2745  0.1202
13512TIP3    H161951   0.634   3.929   3.419  1.4484 -1.9121  0.8999
13512TIP3    H261952   0.725   3.947   3.299  0.2978  0.0438  0.2853
13513TIP3   OH261953   5.826   4.515   0.902 -0.4859  0.3162 -0.3445
13513TIP3    H161954   5.791   4.475   0.981  0.6985  0.4250  0.2591
13513TIP3    H261955   5.910   4.472   0.888  0.4202  1.9181 -0.1663
13514TIP3   OH261956   1.391   5.356   4.470  0.6026 -0.0755 -0.0225
13514TIP3    H161957   1.331   5.333   4.399  0.0317 -2.9147  1.2361
13514TIP3    H261958   1.478   5.340   4.434  0.4085  0.1828 -0.6167
13515TIP3   OH261959   4.138   5.755  13.033 -0.0672 -0.0915 -0.2295
13515TIP3    H161960   4.208   5.737  13.096 -0.4563  0.6882  0.4446
13515TIP3    H261961   4.180   5.807  12.965 -0.5124  2.8198  1.5504
13516TIP3   OH261962   5.196   4.184   5.427 -0.7427  0.8698 -0.0433
13516TIP3    H161963   5.104   4.161   5.438 -0.7901  1.6642  1.5518
13516TIP3    H261964   5.195   4.278   5.409 -0.2350  0.9666  0.4066
13517TIP3   OH261965   2.874   4.866   3.079  0.2540  0.4878 -0.2886
13517TIP3    H161966   2.905   4.956   3.093 -1.1146  0.7806  1.2098
13517TIP3    H261967   2.939   4.812   3.124  0.2816  0.8653  0.1473
13518TIP3   OH261968   2.350   4.041   4.156  0.3113  0.1164  0.0723
13518TIP3    H161969   2.400   4.002   4.228  1.6594  0.9007 -0.4119
13518TIP3    H261970   2.393   4.125   4.139 -1.2429  0.8831 -0.3046
13519TIP3   OH261971   6.326   5.199  14.727  0.0609 -0.3954  0.1578
13519TIP3    H161972   6.333   5.148  14.646 -1.7197 -0.1239 -0.2287
13519TIP3    H261973   6.237   5.182  14.758  0.4104  0.2141  1.5824
13520TIP3   OH261974   5.304   3.818   3.567  0.3102 -0.9078 -0.3172
13520TIP3    H161975   5.338   3.890   3.621  0.1676  0.5214 -2.0504
13520TIP3    H261976   5.244   3.771   3.625  0.8002  0.0383  1.0228
13521TIP3   OH261977   2.060   5.741   0.442  0.7494  0.5117 -1.0700
13521TIP3    H161978   1.980   5.752   0.493  0.3005 -0.2315 -1.6010
13521TIP3    H261979   2.089   5.831   0.423 -0.0736  0.7846 -1.0610
13522TIP3   OH261980   4.036   4.570   6.061  0.5753 -0.2682  0.0852
13522TIP3    H161981   4.093   4.632   6.108 -2.4948  2.5529  0.4248
13522TIP3    H261982   3.991   4.522   6.130 -1.0002  1.0473  0.0253
13523TIP3   OH261983   0.792   0.908  12.452  0.2113  0.0715 -0.5471
13523TIP3    H161984   0.867   0.967  12.458 -0.5291  1.0149 -0.3330
13523TIP3    H261985   0.762   0.897  12.542  0.8011 -1.2775 -0.4845
13524TIP3   OH261986   3.868   5.338  15.905  0.2197  0.0636 -0.0602
13524TIP3    H161987   3.963   5.331  15.913  0.3448  1.0111 -0.6610
13524TIP3    H261988   3.852   5.427  15.873 -0.8080 -0.4562 -1.0714
13525TIP3   OH261989   2.880   0.945   0.332 -0.0534  0.1763  0.3293
13525TIP3    H161990   2.888   0.957   0.426 -1.4472 -3.5209  1.0511
13525TIP3    H261991   2.968   0.920   0.304  0.2341  0.7209  0.7274
13526TIP3   OH261992   6.216   2.922   2.487  0.6421 -0.6550  0.2682
13526TIP3    H161993   6.193   2.876   2.568 -0.2117 -0.7445 -0.0089
13526TIP3    H261994   6.229   3.013   2.514 -0.1654 -0.5753  0.4417
13527TIP3   OH261995   4.909   2.817   0.795 -0.3976  0.1707  0.0017
13527TIP3    H161996   4.996   2.819   0.755 -1.1171  1.5621 -1.6318
13527TIP3    H261997   4.895   2.725   0.818  1.6406 -0.0246  0.6946
13528TIP3   OH261998   2.797   2.093  15.045  0.4625  0.3599  0.6251
13528TIP3    H161999   2.718   2.060  15.005  0.7146  0.0142  0.4120
13528TIP3    H262000   2.854   2.117  14.972 -1.1154  4.8954  0.5826
13529TIP3   OH262001   4.948   3.154   0.308 -0.0170 -0.2510 -0.0825
13529TIP3    H162002   4.890   3.101   0.363  1.3662 -2.3978 -0.5701
13529TIP3    H262003   4.913   3.142   0.220 -0.8933  1.3599  0.0139
13530TIP3   OH262004   0.939   6.054   0.295 -0.5480  0.3154  0.0209
13530TIP3    H162005   1.029   6.043   0.267 -0.4177 -1.1995  0.9334
13530TIP3    H262006   0.941   6.036   0.389 -1.7690  0.4052  0.0806
13531TIP3   OH262007   4.383   6.082  11.234 -0.3730 -0.0860 -0.2413
13531TIP3    H162008   4.363   6.165  11.278 -0.9057  0.2509 -1.1004
13531TIP3    H262009   4.448   6.105  11.168 -1.8478  0.0346 -1.7308
13532TIP3   OH262010   6.094   4.497  16.862 -0.2735 -0.1867 -0.7347
13532TIP3    H162011   6.077   4.565  16.797 -0.2350  1.1019  0.5560
13532TIP3    H262012   6.010   4.485  16.906 -0.1272 -0.5266 -0.5479
13533TIP3   OH262013   5.499   3.229  16.862 -0.2551  0.3999 -0.1693
13533TIP3    H162014   5.480   3.157  16.923  0.5699 -0.5509 -1.0062
13533TIP3    H262015   5.503   3.188  16.776 -1.8029  1.7835 -0.9709
13534TIP3   OH262016   1.830   5.315  12.276 -0.2704  0.2853  0.0123
13534TIP3    H162017   1.876   5.344  12.197 -0.1301 -0.3077 -0.1333
13534TIP3    H262018   1.868   5.229  12.295 -2.2120 -0.8761 -0.9027
13535TIP3   OH262019   1.845   0.293  15.853  0.4678 -0.3114  0.2219
13535TIP3    H162020   1.774   0.297  15.789  0.4774  0.8320  0.2610
13535TIP3    H262021   1.811   0.237  15.923 -0.4086  0.2179  0.2420
13536TIP3   OH262022   2.037   0.474   3.412  0.4526  0.1373 -0.1090
13536TIP3    H162023   2.094   0.412   3.457  0.0876  0.6361  1.1032
13536TIP3    H262024   1.948   0.447   3.438  0.0641 -0.9859 -2.4192
13537TIP3   OH262025   2.736   0.918  14.077 -0.2745  0.6335  0.5742
13537TIP3    H162026   2.644   0.895  14.060  0.1814 -0.2015 -1.0519
13537TIP3    H262027   2.780   0.833  14.086  0.5771  0.9668 -0.2427
13538TIP3   OH262028   1.407   2.392  13.876 -0.2754  0.7176 -0.1225
13538TIP3    H162029   1.372   2.464  13.823 -0.1514 -0.2516 -1.6148
13538TIP3    H262030   1.330   2.339  13.896 -0.1279  0.3106 -0.6084
13539TIP3   OH262031   3.595   4.973  12.683  0.6252 -0.4116 -0.4508
13539TIP3    H162032   3.533   5.036  12.721  2.5064  0.0904  1.9958
13539TIP3    H262033   3.540   4.901  12.653 -1.1650 -0.3763  2.3712
13540TIP3   OH262034   6.380   3.079  16.846 -0.4574 -0.3164  0.0711
13540TIP3    H162035   6.311   3.140  16.869 -1.2676 -1.6692  1.3703
13540TIP3    H262036   6.429   3.124  16.777 -2.1977  0.9553 -0.4061
13541TIP3   OH262037   0.559   3.757  14.456  0.1375 -0.0052  0.2919
13541TIP3    H162038   0.650   3.786  14.452 -0.1524  0.8638 -0.3447
13541TIP3    H262039   0.517   3.799  14.380 -1.1990  1.0866  1.5724
13542TIP3   OH262040   5.033   4.344  11.211  0.2549 -0.2670  0.0544
13542TIP3    H162041   5.059   4.419  11.158  1.5583 -2.0066 -1.9180
13542TIP3    H262042   5.037   4.376  11.301  1.7492  1.7370 -0.6437
13543TIP3   OH262043   5.859   2.765  14.248 -0.1535  0.0708 -0.6340
13543TIP3    H162044   5.789   2.725  14.299 -0.1233 -0.9070 -1.3380
13543TIP3    H262045   5.860   2.717  14.166  2.1273 -0.7758 -0.1931
13544TIP3   OH262046   4.293   6.442   4.745 -0.1253  0.5013  0.0794
13544TIP3    H162047   4.322   6.532   4.759 -0.8615  0.5394  1.5382
13544TIP3    H262048   4.222   6.449   4.680 -0.9330  1.1152  1.0082
13545TIP3   OH262049   3.593   2.736   6.139 -0.4655  0.1243  0.4422
13545TIP3    H162050   3.538   2.724   6.062 -1.1305  0.2608  0.8905
13545TIP3    H262051   3.557   2.813   6.183  0.3728  0.4987  0.5044
13546TIP3   OH262052   6.309   3.503  13.271  0.1967 -0.3962  0.1191
13546TIP3    H162053   6.276   3.413  13.280 -1.9648  0.5170  2.6072
13546TIP3    H262054   6.230   3.555  13.253  1.1524  1.2024  0.3794
13547TIP3   OH262055   2.260   0.957   2.437  0.5847  0.1779 -0.1869
13547TIP3    H162056   2.280   0.916   2.521 -0.2943  0.8091  0.3544
13547TIP3    H262057   2.294   1.047   2.446  0.8440  0.1296 -0.6596
13548TIP3   OH262058   2.354   3.514   0.995  0.2742 -0.2057  0.1758
13548TIP3    H162059   2.421   3.455   1.028 -1.0774 -1.8044  0.2377
13548TIP3    H262060   2.276   3.493   1.046  0.5264  4.3213  2.9685
13549TIP3   OH262061   6.647   2.416   5.456  0.1541  0.3094  0.3223
13549TIP3    H162062   6.701   2.455   5.387  1.3417 -0.3195  0.8548
13549TIP3    H262063   6.710   2.393   5.525 -0.0428 -4.2385 -0.6555
13550TIP3   OH262064   0.410   6.716   6.156  0.5980 -0.4518  0.1588
13550TIP3    H162065   0.396   6.774   6.231  1.8044 -0.5508  0.4804
13550TIP3    H262066   0.483   6.660   6.182  1.7071  0.1758 -1.4552
13551TIP3   OH262067   3.602   5.025  15.942  0.1188  0.4238 -0.0133
13551TIP3    H162068   3.640   5.054  15.859  0.3266 -0.3718 -0.2038
13551TIP3    H262069   3.650   5.075  16.008 -0.0699  1.0889 -0.3655
13552TIP3   OH262070   3.458   3.408  14.885  0.0500 -0.2840 -0.4510
13552TIP3    H162071   3.472   3.378  14.975 -1.5267  0.5800  0.1286
13552TIP3    H262072   3.546   3.425  14.851  0.7911 -2.4027  0.2693
13553TIP3   OH262073   2.706   3.753  16.808  0.7956 -0.2136  1.1529
13553TIP3    H162074   2.642   3.687  16.780  2.4650 -0.6339 -2.2496
13553TIP3    H262075   2.677   3.834  16.766  1.8944 -0.2002  0.3604
13554TIP3   OH262076   3.271   4.168   1.491  0.4713 -0.0447  0.3724
13554TIP3    H162077   3.303   4.082   1.462 -1.6238 -0.6921 -0.1545
13554TIP3    H262078   3.223   4.149   1.571 -0.6990  0.4918 -0.1844
13555TIP3   OH262079   2.950   0.946  14.414 -0.0495  0.0303  0.3322
13555TIP3    H162080   2.889   0.975  14.346  1.1927  0.3397 -0.6983
13555TIP3    H262081   2.968   0.854  14.392  0.2008  0.0722  0.3610
13556TIP3   OH262082   4.121   1.820  17.213 -0.1093  0.1062 -0.2710
13556TIP3    H162083   4.031   1.793  17.232 -1.4852  1.9941 -3.3059
13556TIP3    H262084   4.127   1.909  17.247  0.8677 -0.2166  0.4574
13557TIP3   OH262085   4.087   1.578   3.838 -0.5407  0.4948  0.3180
13557TIP3    H162086   4.088   1.522   3.916 -0.5105 -0.7533 -0.5662
13557TIP3    H262087   3.995   1.585   3.815 -0.3656 -1.9627 -1.4851
13558TIP3   OH262088   1.042   3.082   2.306  0.0262  0.3212 -0.2565
13558TIP3    H162089   1.020   3.007   2.251 -0.9220  0.1909  0.2759
13558TIP3    H262090   1.072   3.043   2.388 -1.1083  0.5040  0.2647
13559TIP3   OH262091   0.599   1.259   0.141  0.0101 -0.0437  0.3672
13559TIP3    H162092   0.661   1.304   0.084 -0.9728 -0.2333 -0.8967
13559TIP3    H262093   0.529   1.322   0.156  0.6146  0.2902  2.0677
13560TIP3   OH262094   4.474   4.039   3.374 -0.6389  0.2717 -0.5880
13560TIP3    H162095   4.421   4.108   3.412 -0.1578  1.0874 -1.3584
13560TIP3    H262096   4.414   3.988   3.320 -0.6192  1.3044 -1.6096
13561TIP3   OH262097   4.376   4.913  10.678  0.5266 -0.4238  0.2508
13561TIP3    H162098   4.432   4.973  10.630 -0.2350  0.7847  0.8406
13561TIP3    H262099   4.388   4.936  10.770 -0.1900 -0.7965  0.4486
13562TIP3   OH262100   4.130   3.588  14.290 -0.4456  0.3321  0.1661
13562TIP3    H162101   4.117   3.514  14.231 -0.7908  0.3388  0.2321
13562TIP3    H262102   4.077   3.566  14.367  0.9842 -0.2900  1.0246
13563TIP3   OH262103   6.228   6.164   5.956  1.0680 -0.2101 -0.1803
13563TIP3    H162104   6.236   6.177   6.051 -0.1255  1.2253 -0.2495
13563TIP3    H262105   6.314   6.186   5.922  1.0815  0.7209  0.4275
13564TIP3   OH262106   3.269   1.170   0.229  0.6080 -0.1499  0.1127
13564TIP3    H162107   3.308   1.257   0.225  1.7052 -0.6026  0.5491
13564TIP3    H262108   3.326   1.115   0.175  0.3934 -0.7657  0.5009
13565TIP3   OH262109   3.904   2.823  15.248 -0.2348  0.7643  0.2242
13565TIP3    H162110   3.912   2.784  15.161  2.8072 -3.1469  1.9431
13565TIP3    H262111   3.882   2.915  15.231 -0.5563  0.0677 -4.5737
13566TIP3   OH262112   0.242   4.340  15.540  0.0337 -0.6814 -0.4514
13566TIP3    H162113   0.254   4.367  15.449 -0.9757  0.9026 -0.1612
13566TIP3    H262114   0.310   4.387  15.588  0.8585 -1.8710 -0.4185
13567TIP3   OH262115   3.338   4.663   5.276  0.2779  0.4700 -0.1176
13567TIP3    H162116   3.352   4.757   5.267 -0.5972  0.6992  0.8090
13567TIP3    H262117   3.243   4.652   5.272  0.4199 -0.5130 -1.4021
13568TIP3   OH262118   4.911   2.335   0.609 -0.4619 -0.0186 -0.1902
13568TIP3    H162119   4.887   2.328   0.517 -0.8137 -1.7018  0.0045
13568TIP3    H262120   4.988   2.393   0.610  0.1258 -0.7433 -1.6415
13569TIP3   OH262121   0.237   3.223   0.238 -0.1790 -0.0120 -0.0023
13569TIP3    H162122   0.331   3.208   0.227 -0.2486  0.4573 -1.3521
13569TIP3    H262123   0.197   3.138   0.218 -0.0995  0.0451 -0.4195
13570TIP3   OH262124   0.779   4.132  13.496 -0.2992  0.3163  0.2730
13570TIP3    H162125   0.766   4.113  13.404  1.3267  0.7568 -0.0777
13570TIP3    H262126   0.775   4.047  13.540 -1.1580  0.1168 -0.1755
13571TIP3   OH262127   2.395   0.898  11.721 -0.0781  0.2500 -0.0751
13571TIP3    H162128   2.408   0.804  11.717  0.1143  0.3011 -1.0938
13571TIP3    H262129   2.389   0.919  11.814 -3.2313 -1.1890  0.1881
13572TIP3   OH262130   6.232   5.627  16.134 -0.2125 -0.3876  0.1037
13572TIP3    H162131   6.196   5.585  16.056  0.7875  1.7838 -1.6592
13572TIP3    H262132   6.155   5.654  16.185 -0.9091 -1.0291 -0.5955
13573TIP3   OH262133   4.686   5.213   0.175 -0.5058  0.0250 -0.0079
13573TIP3    H162134   4.739   5.133   0.167 -2.4669 -1.4088  0.3868
13573TIP3    H262135   4.596   5.181   0.182 -1.1865  2.1300  2.8410
13574TIP3   OH262136   4.528   0.378   2.716 -0.0151  0.2773 -0.5965
13574TIP3    H162137   4.434   0.361   2.709 -0.1387  0.9876 -0.7500
13574TIP3    H262138   4.538   0.427   2.797  0.4189 -1.0337  0.1784
13575TIP3   OH262139   0.120   1.263   0.051  0.0873  0.0052 -0.1048
13575TIP3    H162140   0.164   1.281  -0.032 -0.3165  0.6751 -0.1763
13575TIP3    H262141   0.191   1.264   0.116  0.0805  2.2024 -0.0528
13576TIP3   OH262142   0.635   1.606  12.884 -0.2548  0.1620  0.0582
13576TIP3    H162143   0.716   1.573  12.922  0.4517  1.6020 -0.1157
13576TIP3    H262144   0.646   1.701  12.884 -1.1819  0.3020 -1.6532
13577TIP3   OH262145   5.108   5.619   3.105 -0.0362  0.1051 -0.4647
13577TIP3    H162146   5.191   5.602   3.061  0.3471  1.6411 -0.3758
13577TIP3    H262147   5.118   5.705   3.145 -0.8605 -0.6389  1.4996
13578TIP3   OH262148   3.793   1.576   3.847  0.8063 -0.4023 -0.2355
13578TIP3    H162149   3.809   1.605   3.757  1.4425 -1.7115 -0.5765
13578TIP3    H262150   3.737   1.499   3.837  2.2344 -1.5689  0.3501
13579TIP3   OH262151   0.039   6.225   2.147  0.6459 -0.1279  0.1345
13579TIP3    H162152   0.098   6.150   2.136  2.1899  1.1780 -0.8290
13579TIP3    H262153   0.077   6.294   2.094 -1.1844  1.1315  0.3518
13580TIP3   OH262154   6.086   0.895  12.830  0.5990 -0.1347 -0.0511
13580TIP3    H162155   6.014   0.953  12.853  1.3331  0.4567  0.8042
13580TIP3    H262156   6.143   0.894  12.907  1.6131 -0.4285 -0.7779
13581TIP3   OH262157   3.171   6.002  17.103 -0.1497  0.4199 -0.2369
13581TIP3    H162158   3.217   5.981  17.184 -1.2978 -1.7664 -0.0882
13581TIP3    H262159   3.238   5.997  17.035  0.3475 -0.1015  0.2856
13582TIP3   OH262160   6.286   0.171  15.802  0.2528 -0.5070 -0.8925
13582TIP3    H162161   6.260   0.252  15.757 -0.6661  1.0275  2.1218
13582TIP3    H262162   6.373   0.152  15.768  0.2212  1.3335 -2.2059
13583TIP3   OH262163   2.575   4.113   4.798  0.3726  0.4352  0.7048
13583TIP3    H162164   2.542   4.202   4.782 -2.0142 -0.2617  1.2638
13583TIP3    H262165   2.593   4.078   4.711  1.5483  1.5060  0.4921
13584TIP3   OH262166   3.844   3.836   0.304  0.1141  0.5210 -0.8816
13584TIP3    H162167   3.830   3.808   0.394  0.3889  0.8017 -0.7486
13584TIP3    H262168   3.805   3.767   0.251 -0.3597  0.5245 -0.5455
13585TIP3   OH262169   5.800   1.035   5.417  0.3451 -0.2437  0.0445
13585TIP3    H162170   5.851   0.977   5.360 -2.6507 -1.6740 -1.3816
13585TIP3    H262171   5.787   1.114   5.365 -1.2681 -1.0383 -0.8533
13586TIP3   OH262172   2.705   2.413  13.674  0.5411 -0.5705  0.5090
13586TIP3    H162173   2.650   2.491  13.659 -0.0428 -1.1281 -0.3334
13586TIP3    H262174   2.743   2.394  13.588  3.2626  0.6608  1.3434
13587TIP3   OH262175   5.212   4.542  16.453 -0.0006  0.0489 -0.0497
13587TIP3    H162176   5.160   4.539  16.534 -1.3290 -0.7480 -0.9011
13587TIP3    H262177   5.261   4.460  16.454 -0.6973 -0.3907 -0.4544
13588TIP3   OH262178   1.217   3.559  17.035  0.2499  0.4327 -0.1678
13588TIP3    H162179   1.170   3.488  17.078  0.2980 -1.2368 -2.6265
13588TIP3    H262180   1.278   3.592  17.101  0.4220 -2.0366  1.0125
13589TIP3   OH262181   5.827   1.990  15.930  0.1185  0.4727 -0.0616
13589TIP3    H162182   5.865   1.928  15.992  0.8146  0.5761 -0.3764
13589TIP3    H262183   5.888   1.990  15.857 -1.7414 -1.2626 -1.7422
13590TIP3   OH262184   6.278   3.459   1.358 -0.3606 -0.6969  0.1270
13590TIP3    H162185   6.252   3.378   1.403  0.1483 -1.1634 -0.4135
13590TIP3    H262186   6.264   3.440   1.265 -0.5692 -0.0385  0.0223
13591TIP3   OH262187   1.434   0.030   3.304  0.8874  0.5115  0.2454
13591TIP3    H162188   1.524   0.023   3.271  1.5498  1.9963  1.5941
13591TIP3    H262189   1.408  -0.061   3.322  3.3291  0.1799  2.8128
13592TIP3   OH262190   4.138   1.150   3.616  0.7353  0.3282  0.0367
13592TIP3    H162191   4.150   1.242   3.640  1.6956  0.4878 -0.9484
13592TIP3    H262192   4.200   1.103   3.672  0.2556  0.2803  0.5292
13593TIP3   OH262193   4.396   3.802  14.089 -0.2267  0.4912 -0.5499
13593TIP3    H162194   4.435   3.818  14.003  1.4697  0.6770  0.2162
13593TIP3    H262195   4.445   3.859  14.149 -1.1369  0.1050  0.6028
13594TIP3   OH262196   5.537   0.486   5.141  0.6209 -0.0911  0.0395
13594TIP3    H162197   5.540   0.401   5.185  0.7259  0.2857  0.7717
13594TIP3    H262198   5.539   0.550   5.212 -1.0852  0.5129 -0.4056
13595TIP3   OH262199   3.868   1.512   2.515  0.3076 -0.5041  0.1690
13595TIP3    H162200   3.950   1.562   2.517 -1.1304  2.0597  0.1028
13595TIP3    H262201   3.882   1.447   2.447  1.1912  2.0859 -2.3465
13596TIP3   OH262202   6.005   5.364   4.520 -0.1201  0.0577 -0.1084
13596TIP3    H162203   6.073   5.317   4.568  0.1217  1.3621  0.8646
13596TIP3    H262204   5.924   5.348   4.569 -0.2981 -0.4776 -0.5669
13597TIP3   OH262205   3.567   3.878  14.189  0.3492 -0.1097 -0.2468
13597TIP3    H162206   3.520   3.859  14.108 -0.3797  0.2009  0.0926
13597TIP3    H262207   3.501   3.868  14.258  0.4746  1.4443  0.1408
13598TIP3   OH262208   0.441   2.287   5.379 -0.1211  0.2812 -0.0822
13598TIP3    H162209   0.375   2.356   5.390  1.6182  2.1901 -0.9398
13598TIP3    H262210   0.409   2.215   5.433 -2.4626  1.4263  0.1950
13599TIP3   OH262211   5.492   4.019   0.988  0.7895  0.3978  0.0605
13599TIP3    H162212   5.554   4.022   0.916  0.8986  0.3216  0.1496
13599TIP3    H262213   5.547   4.012   1.066  0.6531 -0.3890  0.0934
13600TIP3   OH262214   6.056   0.017  13.408 -0.0263  0.2464  0.2279
13600TIP3    H162215   6.145   0.051  13.419 -0.7337  1.9257  1.1889
13600TIP3    H262216   6.000   0.095  13.412 -1.4771 -0.6286 -1.4921
13601TIP3   OH262217   0.843   2.390   2.383 -0.6023 -0.4213  0.5134
13601TIP3    H162218   0.785   2.412   2.310  0.0536 -3.5270 -1.0910
13601TIP3    H262219   0.792   2.331   2.438 -0.4426  0.4048  1.5723
13602TIP3   OH262220   4.698   3.434   1.628  0.0594 -0.4518 -0.1098
13602TIP3    H162221   4.671   3.511   1.679  3.4318 -0.0963  1.4190
13602TIP3    H262222   4.616   3.391   1.604 -1.8490  1.4536  2.4288
13603TIP3   OH262223   2.021   0.742  10.657  0.1586 -0.0030  0.6819
13603TIP3    H162224   2.032   0.660  10.705  0.1474  0.1154  0.8869
13603TIP3    H262225   1.932   0.738  10.624  1.6866 -2.6859 -4.1388
13604TIP3   OH262226   6.762   3.063  11.575 -0.8615 -0.3694 -0.1500
13604TIP3    H162227   6.727   3.037  11.490 -0.5966  0.1867 -0.4309
13604TIP3    H262228   6.835   3.121  11.555  1.6243 -3.1184  0.3773
13605TIP3   OH262229   1.032   6.679   3.608  0.7878  0.4383 -0.0197
13605TIP3    H162230   1.076   6.598   3.582  1.9984  1.0711 -0.0330
13605TIP3    H262231   0.972   6.698   3.535  0.6350 -0.3452 -0.0994
13606TIP3   OH262232   0.447   1.512  12.349  0.1562  0.6253 -0.2178
13606TIP3    H162233   0.457   1.607  12.350  0.9382  0.5454  0.0428
13606TIP3    H262234   0.479   1.484  12.263  0.5419  0.5331 -0.0437
13607TIP3   OH262235   2.692   4.397  12.909 -0.2031  0.2872 -1.1423
13607TIP3    H162236   2.770   4.386  12.856  0.7390  0.9766  0.0578
13607TIP3    H262237   2.653   4.309  12.913  1.9364 -0.6851  0.3471
13608TIP3   OH262238   5.299   2.443   1.264 -0.2121  0.2839 -0.3409
13608TIP3    H162239   5.361   2.371   1.250 -2.0992 -1.0331 -2.7136
13608TIP3    H262240   5.251   2.418   1.343 -1.0873 -1.3533 -1.3281
13609TIP3   OH262241   2.657   6.018  16.280  0.8345  0.6335 -0.3746
13609TIP3    H162242   2.569   6.030  16.245  1.0885 -0.7573 -1.5658
13609TIP3    H262243   2.715   6.032  16.205  1.4574 -1.3473 -0.3184
13610TIP3   OH262244   4.121   3.166  12.488  0.5848  0.6768 -0.2782
13610TIP3    H162245   4.027   3.176  12.470  0.4212 -0.1501  0.0911
13610TIP3    H262246   4.163   3.222  12.423 -0.0393 -1.1219 -2.3722
13611TIP3   OH262247   1.960   5.453  12.043 -0.2025  0.0219  0.3117
13611TIP3    H162248   1.926   5.408  11.965 -0.7270  1.5531 -0.3939
13611TIP3    H262249   2.054   5.438  12.040 -0.4926 -2.1907  0.8956
13612TIP3   OH262250   1.403   3.326  14.449  0.3748 -0.4226  0.0132
13612TIP3    H162251   1.492   3.327  14.414  1.1324 -0.8328  1.8126
13612TIP3    H262252   1.385   3.234  14.467 -1.5486 -0.7462 -2.9126
13613TIP3   OH262253   3.065   2.455  15.558 -0.3010  0.3065 -0.2325
13613TIP3    H162254   3.107   2.480  15.640 -0.3846 -1.4593  0.3970
13613TIP3    H262255   3.093   2.364  15.543 -3.1207 -0.6617 -0.2609
13614TIP3   OH262256   0.666   1.890   0.034 -0.4657  0.2304  0.0903
13614TIP3    H162257   0.667   1.971  -0.017  0.2598 -0.1967 -0.5800
13614TIP3    H262258   0.723   1.909   0.109  0.7950 -0.0794 -0.7546
13615TIP3   OH262259   0.489   3.768  10.571 -0.2146 -0.6941 -0.2837
13615TIP3    H162260   0.482   3.730  10.484  1.2670  0.3875 -0.9413
13615TIP3    H262261   0.582   3.790  10.580 -0.0672 -1.8985  2.0826
13616TIP3   OH262262   2.728   4.080  13.056  0.6516 -0.2290  0.0004
13616TIP3    H162263   2.717   3.986  13.051  1.1719 -0.3063  0.2073
13616TIP3    H262264   2.796   4.100  12.992  0.7156 -0.0290  0.1272
13617TIP3   OH262265   2.363   6.419   2.067 -0.0276 -0.1283 -0.0580
13617TIP3    H162266   2.323   6.505   2.082  1.5072  0.8664 -1.3875
13617TIP3    H262267   2.289   6.360   2.051 -1.0795  1.0487  0.3408
13618TIP3   OH262268   2.120   4.166  14.965  0.4020  0.5370 -0.4979
13618TIP3    H162269   2.087   4.147  14.877 -2.0844  1.1377  0.2229
13618TIP3    H262270   2.098   4.259  14.978 -0.1733  0.1992  1.0951
13619TIP3   OH262271   0.410   6.572  15.184  0.9840 -0.6415 -0.6743
13619TIP3    H162272   0.342   6.580  15.251  2.0270  1.1225  0.2469
13619TIP3    H262273   0.407   6.480  15.158 -0.4981 -1.0235  0.6665
13620TIP3   OH262274   4.779   3.504  12.480 -0.1118  0.3234 -0.3684
13620TIP3    H162275   4.850   3.495  12.543  0.9471  2.0864 -1.2507
13620TIP3    H262276   4.701   3.518  12.533  0.2734 -0.9117  0.5901
13621TIP3   OH262277   0.278   1.038   1.219 -0.1342  0.4910  0.0573
13621TIP3    H162278   0.293   0.988   1.299  2.0040 -0.6599 -0.9869
13621TIP3    H262279   0.248   0.973   1.155  0.5017  0.9460 -0.7241
13622TIP3   OH262280   1.964   6.605   4.676  0.3306  0.5389  0.5113
13622TIP3    H162281   1.979   6.698   4.661 -0.0916  0.2159 -2.4876
13622TIP3    H262282   1.988   6.563   4.593  0.4721 -2.0311  1.7640
13623TIP3   OH262283   4.182   2.465  16.471  0.2097  0.3285  0.2415
13623TIP3    H162284   4.172   2.457  16.376 -1.2234  1.5640  0.2491
13623TIP3    H262285   4.167   2.376  16.504  1.1618 -0.2046 -0.6927
13624TIP3   OH262286   5.330   3.271   0.353 -0.5361  0.0354  0.3474
13624TIP3    H162287   5.425   3.286   0.355 -0.1352 -1.9420 -0.8529
13624TIP3    H262288   5.299   3.321   0.278 -0.4059  0.5185  0.6146
13625TIP3   OH262289   5.753   1.362   1.420  0.8552 -0.1133 -0.2702
13625TIP3    H162290   5.807   1.432   1.457  1.2118 -0.8380  0.6253
13625TIP3    H262291   5.775   1.361   1.327  3.6217 -1.3999  0.2875
13626TIP3   OH262292   5.379   0.701  16.697  0.1146 -0.3239 -0.0814
13626TIP3    H162293   5.430   0.643  16.641  0.9008  0.4278 -0.1588
13626TIP3    H262294   5.292   0.661  16.700 -1.0861  1.3533 -4.6454
13627TIP3   OH262295   1.137   1.011   2.628  0.4898  0.4366 -0.4938
13627TIP3    H162296   1.064   1.073   2.626  0.5376  0.6654  1.7139
13627TIP3    H262297   1.212   1.060   2.595  0.2989  1.2524  0.2410
13628TIP3   OH262298   3.479   0.293   2.603 -0.6878 -0.0008  0.2643
13628TIP3    H162299   3.408   0.231   2.583  1.1752 -1.5099 -2.2331
13628TIP3    H262300   3.490   0.342   2.521  1.9914 -0.7471  0.1081
13629TIP3   OH262301   4.377   3.378   2.223  0.3470 -0.4082 -0.0600
13629TIP3    H162302   4.410   3.415   2.141 -0.9119 -0.7172 -0.7338
13629TIP3    H262303   4.455   3.362   2.275  1.0388  2.3390 -0.0834
13630TIP3   OH262304   6.589   5.558  11.943  0.7811 -0.0856 -0.1711
13630TIP3    H162305   6.560   5.619  11.876  1.2596  3.6048  2.6683
13630TIP3    H262306   6.511   5.544  11.998  1.3676  0.3134  0.7884
13631TIP3   OH262307   4.040   6.524  16.771  0.2930 -0.4875 -0.0524
13631TIP3    H162308   4.013   6.551  16.858  2.6134 -0.2248  0.6274
13631TIP3    H262309   4.056   6.430  16.779  1.4932 -0.2825  0.0960
13632TIP3   OH262310   2.742   5.891   4.220 -0.3906 -0.0845  0.1023
13632TIP3    H162311   2.696   5.873   4.302 -1.8391  0.9106 -0.4654
13632TIP3    H262312   2.747   5.986   4.215  0.1204 -0.1430 -0.7464
13633TIP3   OH262313   1.806   3.725  11.461 -0.3135 -0.4519  0.3479
13633TIP3    H162314   1.880   3.785  11.451 -0.8872  0.1201 -0.6221
13633TIP3    H262315   1.841   3.639  11.440 -0.0810 -0.0849 -0.8305
13634TIP3   OH262316   4.768   2.532   3.913 -0.2009 -0.0881 -0.2637
13634TIP3    H162317   4.760   2.504   3.821  0.9603  1.3139 -0.8262
13634TIP3    H262318   4.702   2.480   3.959 -0.1454 -1.5451 -1.7180
13635TIP3   OH262319   5.347   1.440   4.380 -0.0987 -0.4901  0.9633
13635TIP3    H162320   5.342   1.429   4.475 -0.2922  0.1374  1.0325
13635TIP3    H262321   5.327   1.354   4.345 -1.9411 -0.3125  1.4629
13636TIP3   OH262322   5.708   6.326  16.422  0.0291 -0.0076 -0.2471
13636TIP3    H162323   5.702   6.418  16.399  0.2738  0.3803  1.1506
13636TIP3    H262324   5.617   6.297  16.433 -0.0143  0.2986  0.1896
13637TIP3   OH262325   0.210   6.763   1.125  0.3630  0.2171  0.3862
13637TIP3    H162326   0.136   6.703   1.131 -0.9628  1.6199 -0.8523
13637TIP3    H262327   0.175   6.847   1.156  1.2583  1.0121 -0.6554
13638TIP3   OH262328   0.486   4.735   6.525 -0.0046  0.0095 -0.0406
13638TIP3    H162329   0.490   4.790   6.447  0.2179  0.4250  0.2569
13638TIP3    H262330   0.557   4.767   6.580  0.2667 -0.7175  0.0502
13639TIP3   OH262331   5.488   2.616   2.591  0.1446  0.0544 -0.5377
13639TIP3    H162332   5.415   2.554   2.600  1.1994 -1.1773 -0.3021
13639TIP3    H262333   5.461   2.673   2.519 -1.0831 -0.3216 -0.4138
13640TIP3   OH262334   4.116   1.911   0.318  0.4492  0.3069  0.2354
13640TIP3    H162335   4.099   1.965   0.241 -0.5103 -0.3900 -0.0608
13640TIP3    H262336   4.051   1.940   0.382 -1.2755 -1.6621 -0.5355
13641TIP3   OH262337   2.089   0.710  15.139  0.4813 -0.3265  0.5706
13641TIP3    H162338   2.165   0.717  15.081 -0.2667  0.2618 -0.3922
13641TIP3    H262339   2.097   0.625  15.180  0.0632 -1.6858 -1.9161
13642TIP3   OH262340   0.193   6.325   3.718 -0.2029  0.5409  0.5999
13642TIP3    H162341   0.114   6.313   3.772  0.5453  0.1070  1.6329
13642TIP3    H262342   0.171   6.284   3.634 -0.5720 -0.9226  1.3741
13643TIP3   OH262343   5.297   6.617   1.066  0.4216 -0.1869 -0.3253
13643TIP3    H162344   5.253   6.676   1.128  0.8397  0.0147 -0.2144
13643TIP3    H262345   5.265   6.644   0.980  1.4325  0.9453 -0.3726
13644TIP3   OH262346   0.367   0.536  13.815 -0.5004 -0.0335  0.2182
13644TIP3    H162347   0.444   0.592  13.819  1.2868 -2.4412  2.9294
13644TIP3    H262348   0.374   0.479  13.891 -4.0449 -1.6226 -0.4383
13645TIP3   OH262349   1.938   5.565   3.111 -0.1702 -0.2442 -0.5204
13645TIP3    H162350   1.924   5.474   3.084  0.6121 -0.9086  1.2008
13645TIP3    H262351   2.029   5.583   3.090 -0.5342  0.4615 -1.6254
13646TIP3   OH262352   6.349   1.183   2.742 -0.0475 -0.7966 -0.4214
13646TIP3    H162353   6.393   1.266   2.760 -0.4936 -0.6827  0.1938
13646TIP3    H262354   6.339   1.143   2.828 -0.7609 -1.0131 -0.5971
13647TIP3   OH262355   5.951   2.638   3.331  0.0462 -0.5187  0.1045
13647TIP3    H162356   5.882   2.691   3.369 -0.9747  0.3066 -2.6947
13647TIP3    H262357   5.985   2.690   3.258  2.9130 -1.3576  0.7084
13648TIP3   OH262358   0.650   0.548   5.973  0.2053  0.1671 -0.2710
13648TIP3    H162359   0.688   0.478   5.920  0.6777  0.6684 -0.6085
13648TIP3    H262360   0.611   0.503   6.048  0.3028 -0.4726 -0.5963
13649TIP3   OH262361   4.488   4.897  17.010 -0.1734 -0.1049 -0.0413
13649TIP3    H162362   4.408   4.947  16.992 -0.3451 -0.2016  0.4419
13649TIP3    H262363   4.501   4.843  16.932 -0.6609 -0.1936 -0.0635
13650TIP3   OH262364   0.979   4.315  14.658 -0.5046  0.2039 -0.0979
13650TIP3    H162365   1.037   4.364  14.716 -1.5106  0.5999  0.6016
13650TIP3    H262366   1.038   4.264  14.602  0.4855 -0.7417  1.7421
13651TIP3   OH262367   0.046   1.078   5.526 -0.1565  0.4167  0.3637
13651TIP3    H162368   0.072   1.087   5.434  0.1377 -1.1699  0.2674
13651TIP3    H262369  -0.049   1.071   5.524 -0.0693 -0.8818  0.0421
13652TIP3   OH262370   6.738   3.681  11.920 -0.0753  0.1441  0.4526
13652TIP3    H162371   6.718   3.648  12.007  1.7373 -0.9150  0.5118
13652TIP3    H262372   6.803   3.619  11.885 -1.1474  0.2146 -1.8601
13653TIP3   OH262373   4.905   1.549  14.741  0.8625 -0.2619  0.1196
13653TIP3    H162374   4.941   1.466  14.709 -1.8019 -0.9119 -1.4901
13653TIP3    H262375   4.884   1.598  14.662  0.6373  1.1638  1.0331
13654TIP3   OH262376   3.541   3.847   5.084  0.1657  0.4347  0.2753
13654TIP3    H162377   3.480   3.866   5.013 -0.2658 -2.1089 -0.1264
13654TIP3    H262378   3.486   3.841   5.162 -0.2338 -1.9756 -0.1056
13655TIP3   OH262379   2.678   1.954  16.489  0.1051  0.6049  0.2560
13655TIP3    H162380   2.679   2.049  16.492  1.7592  0.5958  1.4478
13655TIP3    H262381   2.771   1.929  16.495 -0.2632 -1.0716 -0.4454
13656TIP3   OH262382   2.119   3.125  11.014 -0.6724 -0.5682 -0.5565
13656TIP3    H162383   2.038   3.083  10.986  0.9660 -2.7771 -2.4106
13656TIP3    H262384   2.153   3.068  11.084 -1.9441  1.8463  2.2284
13657TIP3   OH262385   5.463   1.966   1.661 -0.2964 -0.2095 -0.6379
13657TIP3    H162386   5.441   2.055   1.688  0.5676 -0.6895  1.8970
13657TIP3    H262387   5.379   1.925   1.643 -0.7528  0.9001 -1.1082
13658TIP3   OH262388   0.693   0.368  13.183  0.3708  0.0409 -0.2165
13658TIP3    H162389   0.634   0.294  13.172  0.0049  0.2733  0.1329
13658TIP3    H262390   0.746   0.346  13.260 -1.7110  1.3718  1.7448
13659TIP3   OH262391   2.173   5.567   3.670  0.3347  0.2767 -0.6474
13659TIP3    H162392   2.256   5.580   3.625  0.7612 -1.5261 -0.4820
13659TIP3    H262393   2.149   5.477   3.648 -0.5008  0.0550  1.0347
13660TIP3   OH262394   3.740   6.079  11.619  0.2648 -0.1921 -0.7246
13660TIP3    H162395   3.668   6.025  11.654 -0.1920  0.1870 -1.0672
13660TIP3    H262396   3.785   6.021  11.557  0.8657 -0.7521  0.2073
13661TIP3   OH262397   2.625   0.204   3.133  0.0436 -0.4525  0.5089
13661TIP3    H162398   2.675   0.283   3.154 -0.3801  0.1621 -0.7157
13661TIP3    H262399   2.689   0.133   3.140  1.1358  0.3182 -1.0231
13662TIP3   OH262400   4.757   0.243   5.357 -0.0539  0.0827 -0.3828
13662TIP3    H162401   4.795   0.216   5.441 -0.5562 -1.0283 -0.4942
13662TIP3    H262402   4.665   0.261   5.378 -0.0455  0.3518 -0.5822
13663TIP3   OH262403   4.612   1.185  13.140  0.7019  0.1435  0.8864
13663TIP3    H162404   4.539   1.130  13.111  0.9497 -0.1445  0.8101
13663TIP3    H262405   4.679   1.174  13.073  0.3507  1.3980  0.2862
13664TIP3   OH262406   3.880   4.079  16.888 -0.1490 -0.8123 -0.3065
13664TIP3    H162407   3.891   4.170  16.914 -1.4298 -0.5752 -0.5313
13664TIP3    H262408   3.908   4.076  16.797 -1.9983 -0.1790 -0.9361
13665TIP3   OH262409   2.310   5.417   4.754  0.2285  0.0181  0.4384
13665TIP3    H162410   2.385   5.459   4.711  1.4823 -1.6414  0.9192
13665TIP3    H262411   2.345   5.335   4.789 -1.2745  0.2663  2.7099
13666TIP3   OH262412   4.061   2.679   0.278  0.6747 -0.2110 -0.2527
13666TIP3    H162413   4.048   2.680   0.183 -0.9504 -1.1875 -0.0855
13666TIP3    H262414   4.150   2.644   0.289  0.3594 -1.5145 -1.4160
13667TIP3   OH262415   2.393   0.037  13.150 -0.1369 -0.5316 -1.0612
13667TIP3    H162416   2.369   0.004  13.236  0.5182  1.2971 -0.1274
13667TIP3    H262417   2.482   0.071  13.161 -0.6738  1.3231 -1.9553
13668TIP3   OH262418   4.010   2.299   3.506  0.1473 -0.4948 -0.0060
13668TIP3    H162419   4.103   2.288   3.486  0.1578 -1.6214  0.5937
13668TIP3    H262420   3.969   2.219   3.472 -0.8268  0.6177 -1.5488
13669TIP3   OH262421   5.921   6.351  16.263 -0.3394 -0.0019  0.3609
13669TIP3    H162422   5.869   6.400  16.200 -0.3090 -1.4912 -0.8815
13669TIP3    H262423   5.859   6.331  16.334 -1.2826 -1.0544 -0.7200
13670TIP3   OH262424   1.136   4.472   3.736 -0.5524  1.1274  0.2090
13670TIP3    H162425   1.099   4.409   3.674 -0.2948  1.8206 -0.6702
13670TIP3    H262426   1.070   4.480   3.805 -0.1322 -0.9033  0.9225
13671TIP3   OH262427   6.543   4.551   2.607 -0.3950  0.2237 -0.5273
13671TIP3    H162428   6.559   4.500   2.528  0.2439  0.2198 -0.4025
13671TIP3    H262429   6.465   4.512   2.646 -0.3215 -0.2012 -0.8020
13672TIP3   OH262430   5.369   4.633   4.330 -0.4784  0.1938  0.8963
13672TIP3    H162431   5.377   4.720   4.369  0.3330  0.1074  0.9315
13672TIP3    H262432   5.430   4.634   4.257 -3.3264  1.0200 -1.6938
13673TIP3   OH262433   0.511   4.761   0.383  0.3989  0.5871 -0.0197
13673TIP3    H162434   0.560   4.814   0.319  1.0366 -0.6880 -0.6228
13673TIP3    H262435   0.568   4.687   0.401 -0.1003  0.5383  1.4937
13674TIP3   OH262436   3.674   5.116  12.484 -0.0797 -0.1369 -0.1546
13674TIP3    H162437   3.685   5.046  12.549  0.8557  1.2393  1.2368
13674TIP3    H262438   3.593   5.094  12.438 -0.1764 -1.7504  0.7136
13675TIP3   OH262439   6.661   6.404  14.088  0.5941 -0.4010 -0.5496
13675TIP3    H162440   6.590   6.468  14.095  1.2834  0.3082  0.0697
13675TIP3    H262441   6.736   6.454  14.057  0.8950 -1.1011 -0.9859
13676TIP3   OH262442   2.251   3.186  13.073 -0.6259 -0.1357  0.0159
13676TIP3    H162443   2.294   3.193  13.158 -0.3088  1.9905 -0.2622
13676TIP3    H262444   2.227   3.276  13.051 -1.0181 -0.6896 -1.9916
13677TIP3   OH262445   0.051   5.586  12.075 -0.0358  0.2684  0.0360
13677TIP3    H162446   0.023   5.620  11.990 -0.2197 -0.3753 -0.1632
13677TIP3    H262447  -0.026   5.599  12.131 -0.8698 -1.7023 -0.5655
13678TIP3   OH262448   1.423   4.223   1.765  1.4438 -0.0778  0.3427
13678TIP3    H162449   1.480   4.151   1.792  2.4042  0.9399  1.0897
13678TIP3    H262450   1.419   4.216   1.669  1.3289 -1.2484  0.4166
13679TIP3   OH262451   3.768   4.853  15.048 -0.1012 -0.0489  0.2136
13679TIP3    H162452   3.789   4.911  14.975 -0.6557  1.8877  1.5055
13679TIP3    H262453   3.679   4.822  15.030 -1.0437  2.0265  0.9701
13680TIP3   OH262454   4.673   2.532   3.642  0.1226 -0.4546  0.5357
13680TIP3    H162455   4.616   2.455   3.636  0.1645 -0.6699  2.3498
13680TIP3    H262456   4.742   2.516   3.578 -1.0042 -0.9087 -0.6128
13681TIP3   OH262457   4.122   4.001  15.835 -0.3647  0.1327 -0.2588
13681TIP3    H162458   4.063   3.939  15.876 -1.7589  2.0370  0.7925
13681TIP3    H262459   4.069   4.048  15.771 -0.0158  1.7482  0.5595
13682TIP3   OH262460   4.887   6.493   5.835 -0.2498 -0.9488  0.3117
13682TIP3    H162461   4.804   6.540   5.843  1.3795  2.0830  0.7533
13682TIP3    H262462   4.879   6.444   5.753 -2.0543  0.1376 -0.2217
13683TIP3   OH262463   6.035   6.564   0.533  0.0528  0.2823  0.5600
13683TIP3    H162464   5.994   6.517   0.460 -0.6847 -2.1308  2.4099
13683TIP3    H262465   5.968   6.566   0.601  0.3999  3.3233  0.9148
13684TIP3   OH262466   2.225   2.272  13.642 -0.4505  0.2611 -0.2551
13684TIP3    H162467   2.250   2.211  13.711 -0.2325  0.2509 -0.3433
13684TIP3    H262468   2.271   2.353  13.663 -0.3493  0.2447 -0.4123
13685TIP3   OH262469   6.275   4.758  13.212  1.2464  0.3453 -0.9391
13685TIP3    H162470   6.344   4.701  13.178 -0.2270 -0.2353 -3.1045
13685TIP3    H262471   6.224   4.783  13.136 -0.4411  1.4823  0.4835
13686TIP3   OH262472   4.877   6.128  16.987 -0.0864 -0.4014  0.2546
13686TIP3    H162473   4.960   6.082  16.995 -0.8847 -1.8550  0.5935
13686TIP3    H262474   4.879   6.167  16.900  1.5995  0.9772  0.8634
13687TIP3   OH262475   3.196   6.765  11.223  0.7015  0.2112 -0.4767
13687TIP3    H162476   3.123   6.719  11.181  0.0019 -1.4385  2.3002
13687TIP3    H262477   3.273   6.712  11.200  0.4056 -0.3730 -0.1596
13688TIP3   OH262478   0.691   2.483   5.940 -0.3587 -0.2253 -0.6263
13688TIP3    H162479   0.640   2.559   5.914  0.2275 -0.1201 -1.5319
13688TIP3    H262480   0.626   2.415   5.958 -1.0286  1.0818  2.4571
13689TIP3   OH262481   3.633   5.078   2.949 -0.4288  0.1337 -0.0331
13689TIP3    H162482   3.581   5.000   2.968  2.5195 -2.2085 -0.6838
13689TIP3    H262483   3.679   5.097   3.030 -1.8982  1.9714  0.4398
13690TIP3   OH262484   4.375   3.055   3.141 -0.1619 -0.1229  0.6956
13690TIP3    H162485   4.293   3.096   3.170 -1.0599 -2.3004  1.5564
13690TIP3    H262486   4.348   2.998   3.068  0.8670  0.2396  0.0267
13691TIP3   OH262487   3.079   3.566   5.283 -0.0550  0.0718 -0.5253
13691TIP3    H162488   3.104   3.474   5.275  0.7725  0.1551  0.7705
13691TIP3    H262489   3.111   3.592   5.370 -0.3044  1.5754 -0.8546
13692TIP3   OH262490   4.856   4.781  14.653 -0.1789 -0.4809  0.4310
13692TIP3    H162491   4.880   4.862  14.608 -0.0156 -0.3944  0.6744
13692TIP3    H262492   4.833   4.721  14.582 -0.6779 -0.1027  0.2655
13693TIP3   OH262493   3.300   6.042  16.861  0.0368 -0.1567 -0.7237
13693TIP3    H162494   3.262   6.008  16.780 -0.8728 -0.3625 -0.2244
13693TIP3    H262495   3.266   6.131  16.869 -1.8886 -0.9370  0.6417
13694TIP3   OH262496   4.510   1.403   3.647  1.2409  0.1066 -0.2330
13694TIP3    H162497   4.434   1.404   3.704  0.8333 -0.0367 -0.7706
13694TIP3    H262498   4.576   1.454   3.695  1.0868 -0.4567  0.6009
13695TIP3   OH262499   2.448   3.196  10.975 -0.0381 -0.7929  0.2578
13695TIP3    H162500   2.522   3.207  10.915  0.1351  0.5243  0.6791
13695TIP3    H262501   2.379   3.159  10.920  0.5065 -0.7676 -0.4660
13696TIP3   OH262502   3.127   5.821   0.823  0.1152  0.0182  0.1554
13696TIP3    H162503   3.087   5.739   0.792  0.4827  0.8433 -2.8716
13696TIP3    H262504   3.221   5.807   0.811  0.1441  1.0691 -1.0077
13697TIP3   OH262505   1.268   1.831  13.039  0.1801  0.1660  0.2812
13697TIP3    H162506   1.291   1.759  13.098  0.2701  0.8811  1.1259
13697TIP3    H262507   1.334   1.827  12.970  1.3090  0.5710  1.3041
13698TIP3   OH262508   3.017   5.075  13.016 -0.5474 -0.1917 -0.0214
13698TIP3    H162509   3.082   5.012  13.046  1.0105  1.2666 -0.1918
13698TIP3    H262510   3.043   5.096  12.927 -1.9282 -0.3972 -0.4985
13699TIP3   OH262511   6.078   3.168   3.862  0.2263 -0.0092  0.2077
13699TIP3    H162512   6.111   3.079   3.876 -0.9549 -0.2528  1.5779
13699TIP3    H262513   6.097   3.214   3.943  1.3339  1.2052 -0.6841
13700TIP3   OH262514   3.867   6.414   1.260 -0.2539 -0.6852  0.2166
13700TIP3    H162515   3.796   6.472   1.234 -1.6795 -1.0907  2.7929
13700TIP3    H262516   3.926   6.469   1.311 -0.3169 -0.9677  0.6035
13701TIP3   OH262517   1.088   5.896   2.771  0.2022  0.1504 -0.0500
13701TIP3    H162518   1.036   5.976   2.784  1.9962  1.0441  2.4968
13701TIP3    H262519   1.176   5.928   2.754  1.1660 -1.1919  1.9987
13702TIP3   OH262520   2.278   5.996  13.360 -0.6251  0.3525 -0.1702
13702TIP3    H162521   2.298   5.992  13.266  1.8037 -1.5414  0.3260
13702TIP3    H262522   2.348   6.049  13.398  0.8951 -2.2910  1.0090
13703TIP3   OH262523   0.437   6.668  15.635 -0.8456  0.2134  0.1662
13703TIP3    H162524   0.498   6.648  15.564 -0.7924  0.8214  0.0372
13703TIP3    H262525   0.492   6.708  15.703 -1.1745  1.3249 -0.1893
13704TIP3   OH262526   5.179   1.600  12.863 -0.1370  0.4884 -0.1361
13704TIP3    H162527   5.227   1.667  12.910  0.2066  0.6414 -0.6905
13704TIP3    H262528   5.087   1.623  12.874 -0.0227  1.0089 -0.2602
13705TIP3   OH262529   4.831   6.161   3.984  0.4017  0.3316  0.4871
13705TIP3    H162530   4.836   6.238   3.928 -0.1479  0.8470  1.1221
13705TIP3    H262531   4.778   6.099   3.935  1.1441  0.2165 -0.1785
13706TIP3   OH262532   4.926   1.228   0.790 -0.4540 -0.1378  0.3925
13706TIP3    H162533   4.981   1.306   0.779  1.0863 -1.0058  1.5100
13706TIP3    H262534   4.877   1.245   0.870  0.5619 -0.6656  1.1472
13707TIP3   OH262535   5.555   6.358   0.350  0.3261 -0.1869 -0.7076
13707TIP3    H162536   5.532   6.304   0.274 -0.8509 -1.9017  0.7653
13707TIP3    H262537   5.578   6.294   0.418 -0.3573  1.2041  0.9024
13708TIP3   OH262538   4.289   4.907   5.146 -0.2019 -0.4175  0.4414
13708TIP3    H162539   4.305   4.898   5.052  0.3598 -0.6217  0.5522
13708TIP3    H262540   4.194   4.917   5.153 -0.1156  1.3143 -0.2905
13709TIP3   OH262541   1.174   4.675  13.307  0.1331 -0.0232  0.4377
13709TIP3    H162542   1.144   4.624  13.382  0.0078  1.0159  1.1086
13709TIP3    H262543   1.116   4.649  13.235 -0.5168 -0.1294  1.0008
13710TIP3   OH262544   2.951   3.841  13.246  0.3711  0.4859  0.7390
13710TIP3    H162545   3.016   3.771  13.242 -0.8833 -0.7116  0.8174
13710TIP3    H262546   2.984   3.900  13.315  2.1659  0.7706 -0.2836
13711TIP3   OH262547   4.879   3.641  13.079 -0.2117  0.0946 -0.1260
13711TIP3    H162548   4.798   3.636  13.130 -0.3059 -1.6384 -0.3754
13711TIP3    H262549   4.946   3.662  13.143 -0.6521  0.1674  0.3184
13712TIP3   OH262550   3.503   2.929  14.912 -0.1560 -0.2815 -0.1522
13712TIP3    H162551   3.539   2.887  14.833 -0.7882  1.5314 -1.4869
13712TIP3    H262552   3.513   2.864  14.981  2.9273 -0.9883 -1.0997
13713TIP3   OH262553   2.268   5.492  11.975 -0.5833 -0.4983  0.0624
13713TIP3    H162554   2.320   5.472  12.053 -1.0922 -1.8735  0.0931
13713TIP3    H262555   2.235   5.581  11.990  1.2057  0.1555  0.3259
13714TIP3   OH262556   5.791   0.635   4.773  0.4625 -0.7786 -0.1378
13714TIP3    H162557   5.841   0.717   4.767  0.3272 -0.6900 -0.0594
13714TIP3    H262558   5.829   0.589   4.847 -2.3495  1.2039  2.8069
13715TIP3   OH262559   3.077   4.281  13.822 -0.0108 -0.3293  0.0171
13715TIP3    H162560   3.015   4.341  13.780 -0.5977 -0.2681  0.9427
13715TIP3    H262561   3.124   4.240  13.749 -1.6712 -0.9676 -0.7377
13716TIP3   OH262562   0.975   4.556   3.951  0.2478  0.6470 -0.2216
13716TIP3    H162563   0.974   4.605   4.033  0.9051  2.7849 -1.4276
13716TIP3    H262564   0.903   4.593   3.900 -0.5498 -1.0817 -0.4138
13717TIP3   OH262565   3.786   2.938   4.025  0.0120 -0.2910 -0.6842
13717TIP3    H162566   3.772   2.887   4.105  0.9707  0.6839  0.1422
13717TIP3    H262567   3.803   2.873   3.957  1.9173 -1.0962  0.4842
13718TIP3   OH262568   1.021   6.288  14.852  0.2980  0.4199 -0.2487
13718TIP3    H162569   0.941   6.336  14.874 -0.1330 -0.6044  0.5218
13718TIP3    H262570   1.033   6.303  14.759 -1.1729  0.0664 -0.5246
13719TIP3   OH262571   6.366   1.920  16.419 -0.0378 -0.2166  0.0690
13719TIP3    H162572   6.406   1.880  16.496  1.0671  0.8937  0.0923
13719TIP3    H262573   6.421   1.890  16.346 -1.5383 -1.9186 -0.4480
13720TIP3   OH262574   2.518   6.135  13.827  0.4180 -0.4751  0.5372
13720TIP3    H162575   2.506   6.080  13.905  1.0871 -0.2515  0.8029
13720TIP3    H262576   2.595   6.097  13.783  1.0640  0.4318  0.8783
13721TIP3   OH262577   0.452   2.480   4.855  0.2718  0.0422 -0.1749
13721TIP3    H162578   0.420   2.537   4.926 -1.8102 -0.2153 -0.8413
13721TIP3    H262579   0.536   2.448   4.887  1.0906  2.7137  0.6375
13722TIP3   OH262580   2.394   5.484  12.824  0.1427  0.5176  0.8923
13722TIP3    H162581   2.303   5.467  12.798  0.5338 -0.5748  0.2029
13722TIP3    H262582   2.415   5.412  12.884  1.1306 -0.2960 -0.3889
13723TIP3   OH262583   2.777   0.964  12.005 -0.2469  0.2082  0.3972
13723TIP3    H162584   2.735   0.974  11.920 -0.4130  2.1468  0.6674
13723TIP3    H262585   2.720   0.904  12.053 -0.4589 -0.4517 -0.6397
13724TIP3   OH262586   3.290   2.242   4.361 -0.3865 -0.0903  0.0778
13724TIP3    H162587   3.337   2.236   4.278 -0.7173 -1.1482 -0.0461
13724TIP3    H262588   3.200   2.221   4.339 -0.2647 -1.5534  0.8837
13725TIP3   OH262589   2.210   4.975  12.823  0.4528 -0.8988  0.2547
13725TIP3    H162590   2.138   4.990  12.761  1.1089  0.0776 -0.2976
13725TIP3    H262591   2.289   4.979  12.770  0.9792 -1.0519  1.0048
13726TIP3   OH262592   3.579   4.446  15.200 -0.1615 -0.1041 -0.2560
13726TIP3    H162593   3.489   4.418  15.219 -0.0438 -0.8273 -0.7457
13726TIP3    H262594   3.630   4.365  15.203  0.4448  0.2793 -0.1776
13727TIP3   OH262595   6.039   3.325  11.927 -0.0256  0.7869  0.9202
13727TIP3    H162596   5.980   3.339  11.853  0.3891 -0.9519  0.2093
13727TIP3    H262597   6.125   3.316  11.887  0.4780  1.5252  1.7946
13728TIP3   OH262598   2.414   4.664   5.509  0.3189  0.1856 -0.0984
13728TIP3    H162599   2.473   4.588   5.516  0.6221  0.3988 -0.2944
13728TIP3    H262600   2.353   4.640   5.439  0.4199  0.1232 -0.1662
13729TIP3   OH262601   5.942   5.696   2.375  0.8392  0.4853 -0.4047
13729TIP3    H162602   6.001   5.742   2.436 -0.6458  0.5676  1.0325
13729TIP3    H262603   5.963   5.733   2.289  2.6530  0.7332  0.0930
13730TIP3   OH262604   5.590   1.253  16.959 -0.0102 -0.6374 -0.2660
13730TIP3    H162605   5.616   1.176  17.009 -0.3426 -0.1963  0.6230
13730TIP3    H262606   5.512   1.286  17.005  0.5026  0.5871 -0.2262
13731TIP3   OH262607   1.197   3.401   2.787 -0.2876 -0.1928  0.3470
13731TIP3    H162608   1.290   3.422   2.792 -0.2596  0.5268 -2.0785
13731TIP3    H262609   1.194   3.307   2.770  0.1724  0.1660 -2.0923
13732TIP3   OH262610   5.624   2.777   1.417 -0.3586 -0.1095 -0.4008
13732TIP3    H162611   5.638   2.872   1.411 -2.5868  0.1761 -3.7880
13732TIP3    H262612   5.599   2.762   1.508  0.7603  2.4026  0.4065
13733TIP3   OH262613   6.523   6.269   0.365 -0.0140  0.2382 -0.7041
13733TIP3    H162614   6.617   6.270   0.347 -0.1951  0.0516 -1.7297
13733TIP3    H262615   6.483   6.267   0.278 -0.9854  1.7462 -0.3230
13734TIP3   OH262616   5.416   0.203  15.181  0.2895  0.1558  0.1789
13734TIP3    H162617   5.488   0.265  15.167 -0.7105  1.8600  1.9933
13734TIP3    H262618   5.361   0.213  15.103  1.1505  0.0794 -0.4492
13735TIP3   OH262619   2.995   3.952   4.731 -0.4631 -0.1280  0.5868
13735TIP3    H162620   3.030   4.008   4.661 -1.5218 -1.7979 -1.4094
13735TIP3    H262621   2.938   4.009   4.782  0.2115  1.1097  0.0044
13736TIP3   OH262622   2.208   0.658  13.062  0.0229  0.0934 -0.3603
13736TIP3    H162623   2.276   0.608  13.017  1.9771  1.4232  0.9329
13736TIP3    H262624   2.127   0.638  13.014  1.4986 -0.6755 -2.6932
13737TIP3   OH262625   6.540   2.888  10.665 -0.4162 -0.1709 -0.2152
13737TIP3    H162626   6.471   2.822  10.667 -0.6603  0.0422 -1.0249
13737TIP3    H262627   6.587   2.871  10.583  0.2558 -0.0709  0.1419
13738TIP3   OH262628   5.545   3.109   1.754  0.3591 -0.3672  0.3533
13738TIP3    H162629   5.549   3.205   1.751  1.9547 -0.4259 -1.1294
13738TIP3    H262630   5.636   3.082   1.761 -0.1654 -1.8029  2.4893
13739TIP3   OH262631   5.231   6.534  13.260 -0.3118  0.3875 -0.1155
13739TIP3    H162632   5.174   6.541  13.183 -1.6642  2.1781  0.9702
13739TIP3    H262633   5.316   6.509  13.225 -1.7815 -2.8992 -1.7815
13740TIP3   OH262634   1.183   4.419   3.367  0.0510 -0.4054 -0.3794
13740TIP3    H162635   1.227   4.450   3.287  0.3900 -0.0583 -0.0591
13740TIP3    H262636   1.130   4.494   3.395  0.3375 -0.3531  0.0146
13741TIP3   OH262637   5.771   1.837   3.626  0.5440  0.5910 -0.3642
13741TIP3    H162638   5.826   1.888   3.686  0.9603 -1.1010  0.7580
13741TIP3    H262639   5.794   1.869   3.539  1.4829  1.6449  0.2425
13742TIP3   OH262640   5.499   6.413  13.088 -0.5309  0.2930  0.2663
13742TIP3    H162641   5.553   6.491  13.106  0.5287 -0.3943  0.1399
13742TIP3    H262642   5.476   6.420  12.996  0.0031  0.1923  0.1239
13743TIP3   OH262643   0.768   2.520  16.135  0.0241  0.1150 -0.3344
13743TIP3    H162644   0.711   2.548  16.063  1.3031 -0.1407 -1.4881
13743TIP3    H262645   0.855   2.550  16.111  0.7563 -1.3327  0.3317
13744TIP3   OH262646   4.950   4.732  15.633  0.1130  0.4350 -0.1513
13744TIP3    H162647   4.886   4.662  15.633  2.6849 -2.1769 -2.1376
13744TIP3    H262648   4.913   4.799  15.691 -3.4401 -1.6321  0.2445
13745TIP3   OH262649   1.307   2.082   0.886 -0.1458 -0.1058 -0.2115
13745TIP3    H162650   1.245   2.092   0.814 -1.7045 -2.7822  0.6227
13745TIP3    H262651   1.293   1.993   0.918 -0.3001  1.2409  4.0852
13746TIP3   OH262652   3.302   5.046  14.669 -0.1186 -0.2661  0.1340
13746TIP3    H162653   3.345   4.963  14.693  1.1668  0.0778 -0.8197
13746TIP3    H262654   3.298   5.043  14.574 -2.2208 -0.2341  0.1903
13747TIP3   OH262655   5.872   0.272  13.464 -0.2761  0.0374  0.3801
13747TIP3    H162656   5.786   0.252  13.502  0.2452 -0.2170  1.4994
13747TIP3    H262657   5.911   0.334  13.526  0.8354 -0.8274  0.5815
13748TIP3   OH262658   1.743   3.720   4.280  0.0303  0.7071 -0.1684
13748TIP3    H162659   1.679   3.704   4.350  2.8642 -0.8488  2.2826
13748TIP3    H262660   1.768   3.633   4.250  0.0213  1.3247 -2.1058
13749TIP3   OH262661   1.086   6.710   4.039  0.1058  0.1240  0.0110
13749TIP3    H162662   1.023   6.773   4.005  0.7840 -0.1317 -1.8516
13749TIP3    H262663   1.169   6.757   4.042  0.2591 -0.1627  0.3043
13750TIP3   OH262664   2.305   1.236  11.865 -0.7127  0.7940 -0.4106
13750TIP3    H162665   2.273   1.322  11.890 -1.0372  1.1175 -1.8503
13750TIP3    H262666   2.365   1.211  11.935 -1.3646  1.7424  0.5202
13751TIP3   OH262667   5.338   2.879  10.651 -0.7861  0.2567  0.2403
13751TIP3    H162668   5.373   2.954  10.603  1.4234 -0.5827  0.4134
13751TIP3    H262669   5.370   2.890  10.740  1.4634 -1.8994 -0.1783
13752TIP3   OH262670   2.612   3.213  13.752 -0.5875  1.0903  0.3993
13752TIP3    H162671   2.524   3.248  13.764 -1.6076 -0.8021 -1.1046
13752TIP3    H262672   2.602   3.118  13.759  1.6888  0.8995  2.1221
13753TIP3   OH262673   1.884   4.753  12.292 -0.1456 -0.1872  0.0649
13753TIP3    H162674   1.971   4.765  12.331  0.5000 -2.4480 -0.4860
13753TIP3    H262675   1.888   4.665  12.252 -2.8631 -0.5775  0.4658
13754TIP3   OH262676   0.253   4.936  14.687  0.0951 -0.0185  0.0491
13754TIP3    H162677   0.342   4.947  14.654  0.2256  1.3119  0.7376
13754TIP3    H262678   0.239   4.842  14.689  1.0620 -0.2087 -1.1537
13755TIP3   OH262679   4.837   2.549   2.780 -0.2433  0.0881  0.3130
13755TIP3    H162680   4.905   2.603   2.821 -0.0400  0.7058 -0.7862
13755TIP3    H262681   4.877   2.462   2.773 -0.6395 -0.2939  2.2743
13756TIP3   OH262682   4.354   4.700  13.769 -0.5427 -0.3047  0.3816
13756TIP3    H162683   4.318   4.768  13.825 -1.2717 -0.5754  0.2648
13756TIP3    H262684   4.446   4.693  13.794  0.0832  2.1025 -0.9759
13757TIP3   OH262685   5.017   1.147  14.733  0.3829 -0.3414 -0.1359
13757TIP3    H162686   4.982   1.223  14.779  1.1101 -0.9484  1.5220
13757TIP3    H262687   5.111   1.167  14.724  0.6874 -1.2477  0.8234
13758TIP3   OH262688   4.152   1.259  13.277 -0.0491  0.1456 -0.1967
13758TIP3    H162689   4.239   1.285  13.306 -0.3626  0.3133  0.6044
13758TIP3    H262690   4.094   1.329  13.307 -0.6963 -0.7582  0.7352
13759TIP3   OH262691   2.929   5.342  15.087 -0.1124  0.2240  0.1487
13759TIP3    H162692   2.863   5.280  15.055  0.6278 -0.4973  0.0060
13759TIP3    H262693   2.921   5.418  15.029 -0.9056  0.2004  0.2163
13760TIP3   OH262694   4.311   6.063   0.402 -0.1198 -0.7753  0.0932
13760TIP3    H162695   4.249   6.089   0.334 -2.6092  0.7209  2.7076
13760TIP3    H262696   4.338   5.974   0.378 -2.4610 -1.0764 -1.7466
13761TIP3   OH262697   4.163   1.537   5.396  0.3837 -0.3066  0.4597
13761TIP3    H162698   4.147   1.615   5.449 -0.8967 -1.3630  1.6738
13761TIP3    H262699   4.081   1.524   5.347  0.8491 -0.4924 -0.2939
13762TIP3   OH262700   3.399   3.855  13.706 -0.7915  0.0961  0.0630
13762TIP3    H162701   3.435   3.889  13.624 -0.4772  0.3022  0.2855
13762TIP3    H262702   3.458   3.887  13.774 -0.8541 -0.3606  0.3394
13763TIP3   OH262703   6.372   3.668   4.195  0.0172 -0.3750  0.1494
13763TIP3    H162704   6.285   3.667   4.234 -0.5741 -0.2473 -1.1113
13763TIP3    H262705   6.389   3.761   4.177  0.1288 -0.4666 -0.2199
13764TIP3   OH262706   0.852   2.320   4.343 -0.2262  0.2118 -0.2546
13764TIP3    H162707   0.856   2.286   4.253 -0.0292 -0.5818  0.0450
13764TIP3    H262708   0.767   2.364   4.347 -1.1714 -1.4946 -0.2545
13765TIP3   OH262709   5.207   4.834   4.022 -0.6180  0.5531 -0.0548
13765TIP3    H162710   5.201   4.860   4.114 -1.1870 -2.7330  0.9822
13765TIP3    H262711   5.300   4.846   4.000 -0.4028  1.0545  1.0525
13766TIP3   OH262712   6.321   1.380  16.336 -0.3126  0.0344  0.2951
13766TIP3    H162713   6.344   1.331  16.257  0.3754  1.0642 -0.1775
13766TIP3    H262714   6.301   1.314  16.402 -1.0051 -0.8489 -0.7754
13767TIP3   OH262715   3.609   3.825   2.743  0.3406 -0.4856  0.3217
13767TIP3    H162716   3.573   3.770   2.673  2.1093 -3.0840  1.2989
13767TIP3    H262717   3.695   3.852   2.711  0.3146  0.0296  0.6728
13768TIP3   OH262718   5.001   0.566   5.433  0.5298 -0.0817  0.1105
13768TIP3    H162719   4.970   0.520   5.355 -0.2765 -0.6020  0.7189
13768TIP3    H262720   5.096   0.565   5.425  0.4864 -0.9475 -0.4021
13769TIP3   OH262721   6.055   3.045   4.548  0.0873  0.3007 -0.3729
13769TIP3    H162722   5.967   3.028   4.513 -0.3486 -0.5189  1.0516
13769TIP3    H262723   6.092   2.958   4.562  1.6708  0.6207 -2.1670
13770TIP3   OH262724   5.194   3.411  14.379  0.2776 -0.1559  0.0409
13770TIP3    H162725   5.171   3.318  14.390 -1.4180  0.2201 -0.0404
13770TIP3    H262726   5.161   3.433  14.292  0.4662  0.5896  0.1527
13771TIP3   OH262727   5.339   0.825   6.528  0.1798 -0.1586  0.3459
13771TIP3    H162728   5.338   0.893   6.595 -0.3160 -0.1867  0.3684
13771TIP3    H262729   5.268   0.765   6.552  0.4644 -0.5615  0.2014
13772TIP3   OH262730   4.125   6.361   3.147  0.0415  0.2273  0.0510
13772TIP3    H162731   4.125   6.354   3.051  2.0212  0.0026  0.0212
13772TIP3    H262732   4.052   6.307   3.175  1.0045 -1.9014 -1.2531
13773TIP3   OH262733   5.047   0.236   0.141 -0.3036 -0.3218  0.1636
13773TIP3    H162734   5.111   0.291   0.097  1.1490 -0.0648  2.4037
13773TIP3    H262735   5.096   0.158   0.166 -1.2931 -0.8387  0.5425
13774TIP3   OH262736   3.420   5.276  14.789 -0.1716  0.4552 -0.0799
13774TIP3    H162737   3.399   5.204  14.730  0.3109  1.0150 -0.9558
13774TIP3    H262738   3.335   5.308  14.819 -0.4842  0.8595 -1.3355
13775TIP3   OH262739   0.882   0.059  13.862 -0.2507  0.0630 -0.0575
13775TIP3    H162740   0.823  -0.005  13.902 -2.5873  1.0133 -1.7566
13775TIP3    H262741   0.898   0.123  13.932  0.5559 -1.2983  1.0636
13776TIP3   OH262742   4.245   2.845   5.236 -0.6488 -0.4034 -0.2847
13776TIP3    H162743   4.257   2.936   5.209 -3.6340  0.7883  1.8662
13776TIP3    H262744   4.200   2.851   5.320 -1.2726 -3.9059 -0.2326
13777TIP3   OH262745   0.910   2.125   5.898 -0.3124  0.1987  0.3459
13777TIP3    H162746   1.005   2.131   5.899 -0.1459 -0.5462 -2.4631
13777TIP3    H262747   0.886   2.137   5.806 -2.9474  0.2716  0.9522
13778TIP3   OH262748   0.872   4.424   3.547  0.5600 -0.0439  0.3191
13778TIP3    H162749   0.915   4.488   3.490 -0.8474  1.4580  0.8819
13778TIP3    H262750   0.825   4.476   3.612 -1.2703 -1.6168  0.3493
13779TIP3   OH262751   1.637   3.197   2.305  0.7611  0.2586  0.7860
13779TIP3    H162752   1.607   3.197   2.396 -0.4674 -0.8773  0.4240
13779TIP3    H262753   1.557   3.213   2.254  1.5357  1.4721 -0.0744
13780TIP3   OH262754   1.952   1.162  13.697  0.0329  0.1762 -0.1378
13780TIP3    H162755   1.871   1.153  13.646  0.6308 -0.1821 -1.0496
13780TIP3    H262756   1.932   1.121  13.781 -0.8631  0.4710 -0.1952
13781TIP3   OH262757   3.641   5.992  13.622  0.3441  0.4886 -0.4291
13781TIP3    H162758   3.577   5.922  13.618 -0.8578  1.5715 -0.9202
13781TIP3    H262759   3.598   6.062  13.671  1.4500  0.9558 -0.0828
13782TIP3   OH262760   4.493   3.889   5.208 -0.1677  0.3609 -0.1024
13782TIP3    H162761   4.496   3.795   5.190  0.9459  0.2596  0.5297
13782TIP3    H262762   4.400   3.911   5.203 -0.4260 -0.7214 -0.4907
13783TIP3   OH262763   6.270   0.889   5.787 -0.4123  0.1680 -0.2614
13783TIP3    H162764   6.248   0.846   5.870 -0.4189  0.6154 -0.0247
13783TIP3    H262765   6.349   0.844   5.758 -0.4974 -0.0987 -0.0937
13784TIP3   OH262766   1.873   4.039  17.146 -0.4091 -0.4445 -0.0052
13784TIP3    H162767   1.819   4.097  17.092 -1.9997 -0.8154  1.1001
13784TIP3    H262768   1.953   4.089  17.163 -2.2575  2.1026  2.0659
13785TIP3   OH262769   6.676   3.146  15.774  0.3412 -0.2646  0.2664
13785TIP3    H162770   6.707   3.089  15.845 -1.1699  0.4232  1.5357
13785TIP3    H262771   6.746   3.144  15.710  2.2662 -0.0967  2.2397
13786TIP3   OH262772   3.010   6.298   6.588  0.3449  0.0103  0.3303
13786TIP3    H162773   3.047   6.211   6.601  2.0257  0.8065  1.1857
13786TIP3    H262774   2.921   6.292   6.624  1.1456 -0.8268  2.3438
13787TIP3   OH262775   1.316   4.501  10.600  0.0030  0.2768 -0.7713
13787TIP3    H162776   1.341   4.588  10.628  0.2738 -0.3762  1.1482
13787TIP3    H262777   1.379   4.442  10.642 -0.9885 -0.9434 -0.9172
13788TIP3   OH262778   5.869   0.669   5.908 -0.3101 -0.5167 -0.2842
13788TIP3    H162779   5.888   0.668   6.002 -0.2813  0.1312 -0.2797
13788TIP3    H262780   5.787   0.619   5.900 -0.4313 -0.3877  0.1153
13789TIP3   OH262781   5.670   2.004  15.169 -0.0753 -0.4872  0.2030
13789TIP3    H162782   5.577   2.022  15.186 -0.0602 -0.2362  0.0326
13789TIP3    H262783   5.679   2.016  15.074  0.6212  1.8170  0.5017
13790TIP3   OH262784   2.210   1.156   1.840 -0.2029 -0.0570  0.5973
13790TIP3    H162785   2.261   1.089   1.885  0.7650 -0.3547 -0.8744
13790TIP3    H262786   2.145   1.106   1.789  0.7962  0.0513 -0.8393
13791TIP3   OH262787   3.186   4.509  14.432 -0.1015 -0.1249  0.2650
13791TIP3    H162788   3.136   4.458  14.495 -2.8075 -0.0608 -1.6796
13791TIP3    H262789   3.123   4.570  14.394  1.8526  1.1464 -1.1734
13792TIP3   OH262790   4.012   6.546  14.921 -0.0737  0.0440 -0.1925
13792TIP3    H162791   3.930   6.553  14.873 -1.0494 -2.3131  0.9746
13792TIP3    H262792   4.061   6.478  14.874  0.5564  0.3481  0.0160
13793TIP3   OH262793   4.454   1.689  12.161  0.3079  0.4837  0.0006
13793TIP3    H162794   4.379   1.681  12.103  0.5993  1.1123 -0.4851
13793TIP3    H262795   4.486   1.600  12.173 -0.9558  0.1159  0.8269
13794TIP3   OH262796   2.891   2.784  10.841 -0.6535 -0.1330  0.1719
13794TIP3    H162797   2.911   2.691  10.829  0.9009  0.3176 -1.2242
13794TIP3    H262798   2.976   2.824  10.859 -1.2399  1.0728  0.3437
13795TIP3   OH262799   6.665   1.676  15.684  0.0245 -0.4298  0.3392
13795TIP3    H162800   6.696   1.626  15.609 -1.9760 -1.4874  0.1446
13795TIP3    H262801   6.570   1.667  15.682 -0.2109  0.9542  2.0280
13796TIP3   OH262802   4.609   6.303  14.388 -0.2653  0.2849  0.0393
13796TIP3    H162803   4.665   6.227  14.401 -1.6045 -0.4688  1.7024
13796TIP3    H262804   4.562   6.313  14.471 -2.7887  0.7059 -1.3584
13797TIP3   OH262805   6.220   0.089   5.985  0.0093 -0.1781 -0.5803
13797TIP3    H162806   6.308   0.079   6.020 -0.0754 -1.4466 -0.6691
13797TIP3    H262807   6.163   0.069   6.060 -0.2016  0.4169 -0.5803
13798TIP3   OH262808   2.821   3.453  16.598  0.1732 -0.4449  0.4913
13798TIP3    H162809   2.896   3.486  16.549  0.4279 -0.8565  0.5976
13798TIP3    H262810   2.859   3.394  16.664 -0.2239 -0.5023  0.6747
13799TIP3   OH262811   6.590   4.771  13.339  0.0041  0.7225 -0.7371
13799TIP3    H162812   6.590   4.806  13.250  0.8018 -0.1212 -1.0763
13799TIP3    H262813   6.682   4.755  13.359 -0.2536 -0.1031 -0.1651
13800TIP3   OH262814   1.215   2.682   2.842 -0.3117  0.2609 -0.4193
13800TIP3    H162815   1.299   2.726   2.828  0.0339 -0.1711  0.2905
13800TIP3    H262816   1.156   2.753   2.870  0.1251  0.3674  0.2625
13801TIP3   OH262817   0.055   3.665  16.737  0.3285  0.7726 -0.1254
13801TIP3    H162818   0.019   3.753  16.726 -1.6482 -0.0998 -1.2030
13801TIP3    H262819  -0.012   3.618  16.787  0.8697 -0.4042 -0.4762
13802TIP3   OH262820   2.958   0.173  16.312  0.0798 -0.7125 -0.4932
13802TIP3    H162821   2.866   0.149  16.306 -0.1156  0.0218 -0.4613
13802TIP3    H262822   2.994   0.114  16.378 -0.7995  0.2564  0.8976
13803TIP3   OH262823   4.504   6.303   5.185 -0.7971 -0.3431  0.3951
13803TIP3    H162824   4.414   6.327   5.203 -1.0583 -0.5453 -0.6179
13803TIP3    H262825   4.499   6.214   5.151 -0.4268  0.3244 -1.5151
13804TIP3   OH262826   6.748   3.952  12.862  0.1964  0.1548 -0.1497
13804TIP3    H162827   6.804   3.937  12.786 -1.6272  1.4988 -1.8634
13804TIP3    H262828   6.770   4.040  12.891  0.1201  0.0583  0.2094
13805TIP3   OH262829   2.504   0.748  16.460  0.1485  0.1472 -0.3549
13805TIP3    H162830   2.479   0.782  16.374  0.2528  1.1029 -0.0238
13805TIP3    H262831   2.600   0.745  16.458  0.1228 -1.9462 -1.0373
13806TIP3   OH262832   6.734   2.501  13.341  0.6156  0.9300 -0.1838
13806TIP3    H162833   6.823   2.466  13.333  0.7136  1.5113 -2.5941
13806TIP3    H262834   6.709   2.483  13.432  2.2530 -1.4567 -0.0910
13807TIP3   OH262835   3.244   5.656   5.326 -0.0485 -0.2634  0.1165
13807TIP3    H162836   3.330   5.617   5.317 -0.3320 -0.9063  0.1111
13807TIP3    H262837   3.213   5.625   5.412 -0.0963  0.3096  0.3073
13808TIP3   OH262838   5.053   2.934  14.059  0.0995  0.4472  0.1730
13808TIP3    H162839   5.139   2.944  14.100  0.4162 -1.6767  0.1363
13808TIP3    H262840   5.013   2.860  14.106 -1.0290  0.3616 -0.8926
13809TIP3   OH262841   6.074   2.777  11.127  0.7917  0.4336 -0.2038
13809TIP3    H162842   5.979   2.768  11.112 -0.0814  0.3623  4.1495
13809TIP3    H262843   6.113   2.715  11.065 -2.5179 -4.2659  1.7159
13810TIP3   OH262844   1.017   3.334   2.530  0.2041  0.1310  0.1372
13810TIP3    H162845   0.936   3.284   2.516 -1.0895  2.2066 -0.3015
13810TIP3    H262846   1.032   3.328   2.625  0.3192 -1.3709  0.0514
13811TIP3   OH262847   4.895   5.737  16.797 -0.2711 -0.1357 -0.5155
13811TIP3    H162848   4.941   5.771  16.721  0.4131 -0.6712 -0.3479
13811TIP3    H262849   4.961   5.691  16.848 -0.6928  0.2966  0.4654
13812TIP3   OH262850   5.770   2.754   2.659 -0.3294  0.1107 -0.2705
13812TIP3    H162851   5.694   2.753   2.716  1.4378  1.8765  2.3578
13812TIP3    H262852   5.801   2.663   2.658 -1.7545 -0.3894 -0.4032
13813TIP3   OH262853   4.424   5.580  11.009  0.0412  0.2789  0.5284
13813TIP3    H162854   4.334   5.569  11.038 -0.0052  0.4296  0.4435
13813TIP3    H262855   4.445   5.672  11.027  0.8309 -0.2108  2.3715
13814TIP3   OH262856   1.871   6.688  15.223 -0.1075 -0.1133 -0.0350
13814TIP3    H162857   1.878   6.638  15.304  0.6462 -0.8879 -0.5626
13814TIP3    H262858   1.954   6.674  15.179 -1.1419 -1.1573 -1.7564
13815TIP3   OH262859   5.844   0.363   5.258 -0.2437  0.2124 -0.1893
13815TIP3    H162860   5.825   0.269   5.262  0.7121 -0.0003 -0.4256
13815TIP3    H262861   5.769   0.404   5.301 -2.4904 -0.4088 -3.1337
13816TIP3   OH262862   2.638   4.330  16.156  0.4104 -0.1281  0.3112
13816TIP3    H162863   2.666   4.257  16.101  0.2265  0.8602 -1.1592
13816TIP3    H262864   2.576   4.379  16.101  1.2533  1.6646  0.8743
13817TIP3   OH262865   3.065   2.902   2.539  0.3333 -0.4301 -0.2864
13817TIP3    H162866   3.029   2.949   2.465  0.9945  1.3381  0.4638
13817TIP3    H262867   3.084   2.814   2.505  1.5243  0.5983 -2.4859
13818TIP3   OH262868   1.327   5.585  12.536 -0.1788 -0.0392  0.1062
13818TIP3    H162869   1.303   5.505  12.489 -3.5944  2.6388 -3.3378
13818TIP3    H262870   1.412   5.610  12.498 -0.8421 -0.2217 -1.6006
13819TIP3   OH262871   5.078   0.828   5.223  0.2604  1.1371  0.5101
13819TIP3    H162872   4.992   0.818   5.265 -0.3357  0.8649 -0.7273
13819TIP3    H262873   5.128   0.752   5.252 -1.1136 -0.6356 -1.4507
13820TIP3   OH262874   4.840   2.115  12.951 -0.0294 -0.0583  0.2299
13820TIP3    H162875   4.808   2.034  12.990  1.7797 -0.4216  1.0544
13820TIP3    H262876   4.878   2.087  12.867 -2.6215  0.5148 -1.2354
13821TIP3   OH262877   3.508   3.364   5.643 -0.1408 -0.1639  0.5059
13821TIP3    H162878   3.509   3.425   5.568 -1.5504 -0.6303  0.0647
13821TIP3    H262879   3.500   3.421   5.719 -0.4585  0.2543  0.1702
13822TIP3   OH262880   6.654   5.919  13.435  0.3753 -0.6392 -0.1126
13822TIP3    H162881   6.576   5.970  13.412  0.9869  0.3528 -0.0575
13822TIP3    H262882   6.667   5.938  13.528  0.9018 -0.4829 -0.2151
13823TIP3   OH262883   0.034   3.001   1.957  0.0920 -0.2302  0.0906
13823TIP3    H162884  -0.011   3.007   1.872 -0.6686  0.1162  0.4995
13823TIP3    H262885  -0.026   3.045   2.018  1.5777  1.4159  0.4443
13824TIP3   OH262886   5.727   6.503  13.917  0.1136  0.1246  0.2551
13824TIP3    H162887   5.660   6.495  13.849  1.2239 -0.4661 -0.7871
13824TIP3    H262888   5.779   6.579  13.892  0.9647 -0.5147  0.0422
13825TIP3   OH262889   4.338   3.747  16.287  0.3323  0.1213 -0.5400
13825TIP3    H162890   4.328   3.723  16.195 -3.1317 -0.4173 -0.1554
13825TIP3    H262891   4.366   3.666  16.330 -0.4327 -0.2896 -0.7962
13826TIP3   OH262892   0.983   3.248  14.820  0.4064  0.3301  0.3840
13826TIP3    H162893   1.034   3.261  14.900  1.7613 -0.1215 -0.3745
13826TIP3    H262894   1.046   3.256  14.749 -0.4257 -0.9746 -0.5650
13827TIP3   OH262895   6.358   6.169   1.302 -0.1808 -0.2656  0.1287
13827TIP3    H162896   6.319   6.109   1.238 -0.2845  1.1655 -1.2219
13827TIP3    H262897   6.298   6.168   1.376 -2.4191  1.2220 -1.5490
13828TIP3   OH262898   2.987   5.907   5.013 -0.3090 -0.5724 -0.2448
13828TIP3    H162899   3.014   5.859   5.092 -1.5702 -1.2204 -0.1740
13828TIP3    H262900   3.026   5.858   4.941 -0.8560 -1.2161 -0.1193
13829TIP3   OH262901   5.130   0.398  12.332 -0.6398  0.1447  0.4730
13829TIP3    H162902   5.195   0.430  12.395 -0.3289 -1.5577  1.0825
13829TIP3    H262903   5.049   0.391  12.382 -0.1023 -2.4461  1.1438
13830TIP3   OH262904   3.945   6.694  12.780 -0.2409 -0.6661 -0.2920
13830TIP3    H162905   3.888   6.769  12.796  0.1432 -0.3056 -0.5827
13830TIP3    H262906   3.896   6.638  12.720 -0.1605 -0.1954 -0.8078
13831TIP3   OH262907   2.402   0.207  13.500  0.0340 -0.3530  0.2001
13831TIP3    H162908   2.361   0.223  13.415  2.2749  0.4345 -0.7928
13831TIP3    H262909   2.449   0.287  13.521 -0.2660 -0.6127  2.1094
13832TIP3   OH262910   5.644   2.691  12.038  0.0713 -0.4485 -0.1842
13832TIP3    H162911   5.671   2.611  12.083  1.8902  0.2075 -0.0340
13832TIP3    H262912   5.724   2.743  12.030 -1.0658  1.3961 -0.2238
13833TIP3   OH262913   6.257   4.564   3.343  0.1576 -0.1153  0.2832
13833TIP3    H162914   6.195   4.521   3.401  0.4083  1.5523  1.9090
13833TIP3    H262915   6.342   4.552   3.386  0.4468  0.5955 -0.0704
13834TIP3   OH262916   6.770   3.110   2.573 -0.2919  0.0746  0.7259
13834TIP3    H162917   6.783   3.189   2.521  1.3176  0.2432  1.3247
13834TIP3    H262918   6.775   3.039   2.509  1.8887  0.2669  0.5906
13835TIP3   OH262919   5.433   3.434   2.260 -0.0527 -0.8322  0.6255
13835TIP3    H162920   5.482   3.379   2.198  0.1076 -0.3956  0.3652
13835TIP3    H262921   5.418   3.516   2.213 -3.0884 -1.7377 -0.1873
13836TIP3   OH262922   6.150   6.704   4.701 -0.0024 -0.0309 -0.5733
13836TIP3    H162923   6.058   6.685   4.716  0.1941 -0.0544  0.7349
13836TIP3    H262924   6.167   6.673   4.612 -0.4629 -3.0697  0.2853
13837TIP3   OH262925   3.132   1.556  10.665 -0.3209  0.2380 -0.2927
13837TIP3    H162926   3.226   1.542  10.656 -0.8220 -2.3234 -5.1523
13837TIP3    H262927   3.098   1.472  10.694 -1.1975  1.3597  2.1985
13838TIP3   OH262928   0.833   1.737  16.172 -0.7661 -0.7020 -0.3546
13838TIP3    H162929   0.877   1.704  16.094  2.0629  0.0523  0.7828
13838TIP3    H262930   0.836   1.663  16.233 -0.0256 -0.3115  0.0968
13839TIP3   OH262931   3.939   6.019   2.059  0.3277 -0.0422 -0.0193
13839TIP3    H162932   3.975   5.953   2.000 -1.5072  0.3496 -1.6666
13839TIP3    H262933   4.002   6.023   2.132  3.6689  0.6815 -2.6910
13840TIP3   OH262934   2.771   4.962  13.045 -0.5664  0.3412  0.4733
13840TIP3    H162935   2.856   5.001  13.065 -0.3059 -1.2283  2.7374
13840TIP3    H262936   2.792   4.882  12.997 -0.7757  0.0920  0.7917
13841TIP3   OH262937   0.462   6.609  13.632  0.0868 -0.1115  0.4266
13841TIP3    H162938   0.507   6.535  13.673 -1.1358 -0.9540  0.2886
13841TIP3    H262939   0.458   6.586  13.539  2.5896  1.6515 -0.2173
13842TIP3   OH262940   6.283   0.479   3.524 -0.2090 -0.4187  0.3767
13842TIP3    H162941   6.364   0.514   3.561 -0.2367  0.1238 -0.0633
13842TIP3    H262942   6.223   0.553   3.523 -0.1042 -0.3100 -1.0534
13843TIP3   OH262943   6.327   5.756  13.439  0.5110  0.0201  0.4606
13843TIP3    H162944   6.312   5.804  13.357 -0.7536 -0.8666  0.1300
13843TIP3    H262945   6.422   5.750  13.447  0.6640  1.0440 -0.3915
13844TIP3   OH262946   4.459   5.052  16.190  0.1602  0.0455 -0.4336
13844TIP3    H162947   4.549   5.025  16.205 -0.5021 -1.4886  1.2674
13844TIP3    H262948   4.408   4.999  16.251 -1.8269  1.4489 -0.7703
13845TIP3   OH262949   4.663   0.583   3.690 -0.2466  0.2709  0.2658
13845TIP3    H162950   4.712   0.656   3.652  0.3880  0.0194  0.5990
13845TIP3    H262951   4.725   0.540   3.748 -0.9049  0.0340  0.8058
13846TIP3   OH262952   5.542   6.556  12.215 -0.1711  0.3847  0.0785
13846TIP3    H162953   5.492   6.626  12.173 -2.3757 -1.0756  0.1137
13846TIP3    H262954   5.479   6.512  12.273  1.2318 -1.3364  0.4006
13847TIP3   OH262955   0.011   6.641  14.665 -0.0634 -0.3291 -0.2302
13847TIP3    H162956   0.013   6.649  14.761  1.4242 -1.0549 -0.1716
13847TIP3    H262957   0.025   6.548  14.649  2.5200  0.1527 -1.1734
13848TIP3   OH262958   4.667   1.978  11.510  0.1848  0.0456 -0.4253
13848TIP3    H162959   4.725   1.904  11.493  0.4052 -0.6066  2.6899
13848TIP3    H262960   4.585   1.938  11.540 -0.4440  1.0452 -0.7526
13849TIP3   OH262961   1.177   4.426  11.467 -0.1858  0.2740  0.4789
13849TIP3    H162962   1.252   4.366  11.475 -0.0821  0.2838 -0.2921
13849TIP3    H262963   1.105   4.379  11.508 -0.4102 -0.9687 -1.2297
13850TIP3   OH262964   6.019   1.196  12.862 -0.0636 -0.1384 -0.2825
13850TIP3    H162965   6.039   1.289  12.877 -0.1270 -0.1897  0.1454
13850TIP3    H262966   6.013   1.188  12.767 -0.8801  0.4781 -0.2998
13851TIP3   OH262967   4.165   1.777  11.396 -0.0188  0.4519  0.1330
13851TIP3    H162968   4.131   1.728  11.321  0.6682 -0.6118  0.4823
13851TIP3    H262969   4.099   1.765  11.464 -0.5006  1.1716 -0.1897
13852TIP3   OH262970   1.611   3.955   4.905 -0.2130 -0.5999 -0.0451
13852TIP3    H162971   1.666   4.029   4.928 -0.0573 -1.1962  1.5962
13852TIP3    H262972   1.522   3.991   4.899 -0.0819 -0.2162  0.3585
13853TIP3   OH262973   3.213   5.377  17.010  0.3108  0.4099  0.2939
13853TIP3    H162974   3.179   5.433  17.079  1.4320 -0.2429  1.4033
13853TIP3    H262975   3.306   5.401  17.002  1.8959 -3.5327  3.3139
13854TIP3   OH262976   6.488   0.662   3.588  0.1034 -0.3668 -0.0181
13854TIP3    H162977   6.535   0.638   3.668  2.5582  0.4576 -1.0977
13854TIP3    H262978   6.481   0.758   3.592 -1.6080 -0.4617  0.1159
13855TIP3   OH262979   4.412   0.598   2.261 -0.0885 -0.5629 -0.4764
13855TIP3    H162980   4.355   0.582   2.186 -1.3438  0.6818  0.1772
13855TIP3    H262981   4.378   0.541   2.330  2.4603 -3.5066 -1.3656
13856TIP3   OH262982   3.911   6.155   5.053 -1.0055  0.1393  0.0993
13856TIP3    H162983   3.900   6.129   4.962  1.3174  0.9433 -0.4685
13856TIP3    H262984   3.870   6.242   5.058  3.0784  2.4502 -1.6169
13857TIP3   OH262985   6.333   0.736  17.193  0.4469  0.1667  0.7826
13857TIP3    H162986   6.335   0.667  17.259  2.2266  0.4769  1.1078
13857TIP3    H262987   6.344   0.690  17.110 -3.3148 -0.4018  0.3970
13858TIP3   OH262988   4.032   4.132  12.364  0.0012 -0.3123 -0.5359
13858TIP3    H162989   3.985   4.081  12.299  1.3534 -3.1003  0.4972
13858TIP3    H262990   4.024   4.081  12.445  0.6758  1.6257  0.8220
13859TIP3   OH262991   0.741   6.672   3.578 -0.8096 -0.0200 -0.2280
13859TIP3    H162992   0.738   6.577   3.565 -0.6697  0.1840 -1.9904
13859TIP3    H262993   0.654   6.694   3.612 -0.7136 -0.8086  0.5747
13860TIP3   OH262994   5.155   1.873   3.011  0.0559 -0.0070  0.1866
13860TIP3    H162995   5.169   1.802   3.074 -1.5818  2.2110  3.3190
13860TIP3    H262996   5.085   1.842   2.954  1.7230 -2.1632 -0.8531
13861TIP3   OH262997   2.056   0.479  16.177 -0.1430  0.0302  0.4196
13861TIP3    H162998   1.976   0.504  16.130 -0.1340 -1.1508 -0.2639
13861TIP3    H262999   2.083   0.396  16.137  2.0401  0.9235 -0.0977
13862TIP3   OH263000   2.386   2.449  15.279  0.5084  0.9058  0.3238
13862TIP3    H163001   2.419   2.516  15.218  1.0319  1.4294  1.1566
13862TIP3    H263002   2.365   2.375  15.223  5.0723 -0.3063 -0.2276
13863TIP3   OH263003   6.682   4.158  12.245  0.9350  0.1458  0.0042
13863TIP3    H163004   6.673   4.243  12.202 -1.6265 -0.8362 -1.6051
13863TIP3    H263005   6.648   4.172  12.334 -1.8128  0.3615 -0.9771
13864TIP3   OH263006   6.051   1.268   1.436  0.3763 -0.6040 -0.4437
13864TIP3    H163007   6.138   1.304   1.414  0.1949  0.9235  1.1161
13864TIP3    H263008   5.998   1.288   1.359  0.6987  1.1331 -0.2619
13865TIP3   OH263009   3.643   2.742  11.027 -0.2035 -0.1662 -0.1614
13865TIP3    H163010   3.550   2.737  11.049  0.6450 -1.9559  3.9767
13865TIP3    H263011   3.675   2.652  11.033  1.9685  0.5118 -0.5958
13866TIP3   OH263012   2.514   2.373  12.074 -0.2399  0.1097 -0.7582
13866TIP3    H163013   2.464   2.433  12.018  0.7946  0.7148 -1.0659
13866TIP3    H263014   2.491   2.286  12.043 -1.0757  0.3756 -0.9071
13867TIP3   OH263015   6.586   1.184   4.065  0.2331 -0.5368 -0.8446
13867TIP3    H163016   6.673   1.223   4.054  0.1604 -0.1092  0.0417
13867TIP3    H263017   6.595   1.096   4.027  1.3784 -0.9243  0.2444
13868TIP3   OH263018   3.947   3.337  11.850  0.5404 -0.2404  0.0412
13868TIP3    H163019   4.031   3.303  11.881 -0.0511 -1.2639  0.5548
13868TIP3    H263020   3.966   3.427  11.823  1.3764  0.2363  2.0774
13869TIP3   OH263021   3.753   0.826  14.671  0.3319 -0.6469  0.0890
13869TIP3    H163022   3.833   0.846  14.721  0.1937 -0.7911  0.3696
13869TIP3    H263023   3.702   0.906  14.674  0.3464 -0.6396  0.1335
13870TIP3   OH263024   5.565   1.768   0.744 -0.2021  0.0265  0.3494
13870TIP3    H163025   5.637   1.729   0.795 -0.6081  0.5504  1.3598
13870TIP3    H263026   5.524   1.829   0.805  0.0763  1.6412 -1.0152
13871TIP3   OH263027   0.654   0.388  14.063 -0.1105  0.3294  0.0945
13871TIP3    H163028   0.608   0.471  14.070  0.8960  0.9739 -0.7492
13871TIP3    H263029   0.666   0.375  13.968  2.0384  0.5455  0.2800
13872TIP3   OH263030   0.373   2.304  16.676  0.6720  0.0343  0.1701
13872TIP3    H163031   0.411   2.375  16.727  0.4736 -0.2440  0.7090
13872TIP3    H263032   0.416   2.225  16.708  0.1340 -0.2049  0.3086
13873TIP3   OH263033   6.521   0.280   1.346  0.5473  0.2233 -0.2104
13873TIP3    H163034   6.476   0.258   1.428  3.2503  2.9126  2.2808
13873TIP3    H263035   6.501   0.373   1.333 -0.3162 -0.2839 -3.0660
13874TIP3   OH263036   3.421   1.899   6.284  0.0689 -0.7303 -0.2695
13874TIP3    H163037   3.352   1.897   6.351  0.1966  4.1138  0.3890
13874TIP3    H263038   3.376   1.930   6.205  1.0706  0.5306 -0.3798
13875TIP3   OH263039   1.688   6.059   3.478 -0.0747  0.0679  0.4880
13875TIP3    H163040   1.749   6.070   3.551 -0.4775  0.1468  0.8178
13875TIP3    H263041   1.652   6.146   3.464 -0.9241 -0.1827  1.0222
13876TIP3   OH263042   0.035   5.280   4.732  0.1908 -0.7974 -0.7733
13876TIP3    H163043   0.002   5.358   4.777  0.3968 -1.4398  0.5200
13876TIP3    H263044   0.127   5.275   4.757 -0.0093 -1.8828 -0.2134
13877TIP3   OH263045   3.900   0.396   2.217 -0.4356  0.3359 -0.0400
13877TIP3    H163046   3.987   0.432   2.235 -1.0010  1.2076  1.0881
13877TIP3    H263047   3.842   0.472   2.217 -0.9354  0.0810 -3.0425
13878TIP3   OH263048   6.211   5.623   4.110  0.4401  0.5763 -0.1144
13878TIP3    H163049   6.193   5.608   4.202  1.1789  0.5950  0.0351
13878TIP3    H263050   6.270   5.553   4.084  0.6512  0.8660 -0.4387
13879TIP3   OH263051   5.582   3.503  16.582 -0.1298 -0.3915 -0.4537
13879TIP3    H163052   5.672   3.536  16.577 -0.1443 -0.2091  0.4111
13879TIP3    H263053   5.529   3.577  16.552  0.0160 -0.6150 -1.3056
13880TIP3   OH263054   3.974   6.031   3.835  0.2217 -0.1565  1.3070
13880TIP3    H163055   3.946   5.963   3.897  1.4011 -0.4285  1.5587
13880TIP3    H263056   4.069   6.033   3.843  0.2457  1.1705  0.9202
13881TIP3   OH263057   6.604   6.277   1.365  0.0304  0.6855 -0.0813
13881TIP3    H163058   6.622   6.340   1.294  2.3229  0.4929  0.2391
13881TIP3    H263059   6.533   6.222   1.331 -0.2823  1.8404 -1.4074
13882TIP3   OH263060   4.264   3.621   2.506 -0.2244  0.1221 -0.5595
13882TIP3    H163061   4.280   3.532   2.537 -1.2031  0.8171  2.2693
13882TIP3    H263062   4.339   3.672   2.538 -0.7618  0.6913 -0.1760
13883TIP3   OH263063   0.253   0.351  15.835  0.0828  0.9317  0.0398
13883TIP3    H163064   0.202   0.379  15.911 -1.3851  0.0991 -0.6016
13883TIP3    H263065   0.228   0.411  15.765  0.7632  1.1488 -0.0230
13884TIP3   OH263066   0.780   4.562  16.154  0.3923  0.3696  0.8620
13884TIP3    H163067   0.779   4.504  16.230  0.6672 -1.0856 -0.1960
13884TIP3    H263068   0.703   4.617  16.166 -2.0319 -2.5758  0.2227
13885TIP3   OH263069   0.251   2.806   2.280 -0.2807 -0.4096 -0.8809
13885TIP3    H163070   0.207   2.818   2.364 -0.4742 -0.5035 -0.9692
13885TIP3    H263071   0.199   2.857   2.218 -0.5812 -0.9695 -1.0875
13886TIP3   OH263072   0.595   4.445   6.413  0.4061  0.3016  0.3648
13886TIP3    H163073   0.505   4.479   6.409  0.5271  0.5610 -0.2824
13886TIP3    H263074   0.648   4.520   6.442  0.3175 -0.0607  1.5181
13887TIP3   OH263075   3.723   0.975  13.469  0.4485 -0.2369 -0.4767
13887TIP3    H163076   3.712   0.938  13.557 -0.9889  0.7384 -0.2006
13887TIP3    H263077   3.816   0.991  13.461  0.8592 -2.0618  0.1418
13888TIP3   OH263078   5.815   2.435   5.006 -0.2093  0.6305 -0.0281
13888TIP3    H163079   5.767   2.359   4.973  0.5429  0.2099 -0.1828
13888TIP3    H263080   5.771   2.458   5.087 -0.7713  0.3482 -0.2515
13889TIP3   OH263081   5.386   5.279   2.313  0.0339 -0.4361  0.0221
13889TIP3    H163082   5.462   5.325   2.347  1.0161 -2.1782  0.2981
13889TIP3    H263083   5.388   5.294   2.219  1.2428 -1.1774 -0.0867
13890TIP3   OH263084   3.555   5.261   0.815 -1.0507  0.0131 -0.1722
13890TIP3    H163085   3.483   5.202   0.835 -0.5106 -0.4968  0.3320
13890TIP3    H263086   3.537   5.292   0.727 -2.8915  1.3910  0.6226
13891TIP3   OH263087   1.390   3.208  13.759  0.0109  0.8330  0.2691
13891TIP3    H163088   1.392   3.191  13.665  0.9567  0.5180  0.3324
13891TIP3    H263089   1.435   3.132  13.798 -2.1701 -0.0842  1.1502
13892TIP3   OH263090   2.407   4.279   1.815  0.6690 -0.0718  0.5726
13892TIP3    H163091   2.492   4.278   1.770 -0.5511 -0.4334 -1.8658
13892TIP3    H263092   2.395   4.189   1.846  0.1221 -0.6690 -1.2746
13893TIP3   OH263093   3.269   6.665  16.412  0.2209 -0.0275 -0.3160
13893TIP3    H163094   3.185   6.631  16.382 -0.5508  0.6457  1.0231
13893TIP3    H263095   3.255   6.759  16.422  0.9603  0.0059  0.4760
13894TIP3   OH263096   1.720   4.094  12.117 -0.1564  0.4478  0.1681
13894TIP3    H163097   1.808   4.108  12.080 -0.4107  1.2183 -0.1433
13894TIP3    H263098   1.670   4.054  12.046 -0.2056  0.4763  0.1868
13895TIP3   OH263099   3.885   1.807   3.687  0.1963 -0.1748  0.1998
13895TIP3    H163100   3.940   1.796   3.610  1.1503  0.2748  0.8028
13895TIP3    H263101   3.910   1.892   3.723 -2.6311  1.2746 -0.8795
13896TIP3   OH263102   6.047   1.473  16.243 -0.2494  0.2747  0.6744
13896TIP3    H163103   6.142   1.461  16.251 -0.2767 -0.8287 -0.4428
13896TIP3    H263104   6.033   1.565  16.267  0.9024  0.0660  2.3139
13897TIP3   OH263105   1.313   3.925  14.194  0.3210 -0.3574 -0.2414
13897TIP3    H163106   1.269   3.931  14.110 -1.0403  1.4366  0.5395
13897TIP3    H263107   1.398   3.968  14.181 -0.1742  0.5463 -0.5339
13898TIP3   OH263108   6.341   3.538   5.323  0.1144 -0.2786  0.6706
13898TIP3    H163109   6.317   3.536   5.230 -2.0041  1.7270  1.0709
13898TIP3    H263110   6.366   3.629   5.339  0.2537 -0.5426  2.1199
13899TIP3   OH263111   3.421   6.321  12.896 -0.2155 -0.2139  0.0891
13899TIP3    H163112   3.479   6.396  12.884 -0.1585  0.3238  3.0379
13899TIP3    H263113   3.335   6.359  12.916 -0.8923 -0.9941 -1.1982
13900TIP3   OH263114   0.714   4.818  15.996 -0.0698 -0.1495  0.3870
13900TIP3    H163115   0.746   4.855  16.077  1.0127  0.3215 -0.2403
13900TIP3    H263116   0.766   4.860  15.927  0.1259 -1.6711 -0.4422
13901TIP3   OH263117   1.808   5.600   4.584  0.4443  0.0687 -0.2240
13901TIP3    H163118   1.890   5.604   4.535  1.6983  1.5437  1.8112
13901TIP3    H263119   1.764   5.683   4.563 -0.2632 -0.4503 -0.8394
13902TIP3   OH263120   1.793   2.672   3.412  0.0343  0.1606 -0.2238
13902TIP3    H163121   1.751   2.636   3.490 -1.9262  0.2872 -1.1547
13902TIP3    H263122   1.881   2.635   3.412 -0.8941 -2.1895  0.4888
13903TIP3   OH263123   4.512   3.316  15.361 -0.2282 -0.1487 -0.2237
13903TIP3    H163124   4.473   3.344  15.279  0.8953  0.4609 -0.5784
13903TIP3    H263125   4.591   3.269  15.335  0.1163  0.0111  0.4923
13904TIP3   OH263126   6.412   3.226  14.150 -0.0794  0.4965  0.2825
13904TIP3    H163127   6.427   3.302  14.206 -0.2848 -0.6763  2.0294
13904TIP3    H263128   6.377   3.160  14.209  0.3124 -1.0407 -1.1250
13905TIP3   OH263129   2.070   4.738  16.225  0.3654 -0.4567 -0.0150
13905TIP3    H163130   2.019   4.668  16.184 -0.3310 -0.1901  0.3879
13905TIP3    H263131   2.161   4.714  16.207  0.0998 -0.6606 -1.1889
13906TIP3   OH263132   1.397   3.632   5.227  0.1793  0.1549  0.0191
13906TIP3    H163133   1.426   3.548   5.191 -0.1679 -0.6382  1.5080
13906TIP3    H263134   1.445   3.642   5.309  0.3458  1.5075 -0.2241
13907TIP3   OH263135   6.165   5.177   0.997 -0.4207  0.2644  0.2936
13907TIP3    H163136   6.127   5.119   0.932 -1.9141  0.7007  0.7284
13907TIP3    H263137   6.180   5.121   1.073  1.3465 -0.2497 -0.4022
13908TIP3   OH263138   1.710   0.837  14.559 -0.4855 -0.3767 -0.2186
13908TIP3    H163139   1.781   0.831  14.623 -0.7904 -2.0141  0.0185
13908TIP3    H263140   1.650   0.766  14.584 -2.1627  0.8906 -0.4695
13909TIP3   OH263141   5.230   0.995   5.070 -0.2340  0.2910 -0.1491
13909TIP3    H163142   5.175   1.026   4.998  1.0195  0.7347 -0.9409
13909TIP3    H263143   5.177   0.927   5.112 -1.4592  0.8316 -0.7665
13910TIP3   OH263144   1.766   6.274  14.407 -0.0896 -0.0059  0.5806
13910TIP3    H163145   1.717   6.327  14.346 -0.2611  1.1485  1.6791
13910TIP3    H263146   1.847   6.252  14.361 -0.3773  0.5245 -0.1871
13911TIP3   OH263147   3.511   2.472   0.030 -0.2311 -0.1180  0.6017
13911TIP3    H163148   3.535   2.509   0.115 -0.3582  0.4905  0.3757
13911TIP3    H263149   3.594   2.451  -0.012 -0.1715 -0.5476  0.9287
13912TIP3   OH263150   3.168   0.897   4.763 -0.2042  0.1447 -0.7418
13912TIP3    H163151   3.262   0.897   4.742 -0.2897  1.6162 -1.1925
13912TIP3    H263152   3.160   0.834   4.835  1.1735  0.2295 -0.4890
13913TIP3   OH263153   1.469   5.400  11.366  0.3211 -0.3540  0.7845
13913TIP3    H163154   1.445   5.493  11.370 -0.8662 -0.4138 -2.2340
13913TIP3    H263155   1.386   5.353  11.376 -0.0940 -0.7861 -3.0723
13914TIP3   OH263156   6.754   4.926   0.745 -0.0487 -0.0759 -0.1147
13914TIP3    H163157   6.745   4.837   0.778  1.8048  0.2407  1.3873
13914TIP3    H263158   6.760   4.981   0.823  0.4201  1.1907 -1.0067
13915TIP3   OH263159   6.026   2.660   4.014  0.3493 -0.6218 -0.3103
13915TIP3    H163160   6.110   2.672   3.972  1.0503 -0.5948  1.0380
13915TIP3    H263161   6.045   2.611   4.094 -0.8414 -0.2704  0.2282
13916TIP3   OH263162   5.248   4.697   3.249  0.0651  0.1809  0.3310
13916TIP3    H163163   5.194   4.700   3.170  1.8362 -0.2695 -0.9477
13916TIP3    H263164   5.240   4.785   3.286 -1.3952  0.1728  0.0974
13917TIP3   OH263165   4.309   3.807   5.919 -0.0152  0.3079  0.1499
13917TIP3    H163166   4.317   3.712   5.914 -2.7903 -0.0744  1.1606
13917TIP3    H263167   4.345   3.830   6.005 -1.2531 -0.1353  0.8031
13918TIP3   OH263168   0.585   0.580  16.741 -0.2249 -0.3075 -0.0614
13918TIP3    H163169   0.533   0.574  16.821  2.1249  1.0831  1.7098
13918TIP3    H263170   0.669   0.616  16.770  1.4196 -1.5662 -2.8913
13919TIP3   OH263171   3.690   1.190  11.990 -0.5021  0.5437  0.3334
13919TIP3    H163172   3.648   1.201  11.904  2.3223  0.5001 -1.1692
13919TIP3    H263173   3.617   1.183  12.051 -2.6822  3.9212 -1.5642
13920TIP3   OH263174   1.865   0.729  14.163 -0.3518 -0.1661  0.8715
13920TIP3    H163175   1.872   0.818  14.200 -0.7866 -0.2217  1.1020
13920TIP3    H263176   1.790   0.734  14.104  0.0468 -0.2054  0.3595
13921TIP3   OH263177   5.553   2.723  15.673  0.4122 -0.3986 -0.6792
13921TIP3    H163178   5.546   2.706  15.579  0.4743  0.3647 -0.8263
13921TIP3    H263179   5.473   2.770  15.695  0.6634 -0.0707 -0.4623
13922TIP3   OH263180   0.841   2.427  13.979 -0.0613 -0.4228  0.0265
13922TIP3    H163181   0.899   2.353  13.962  0.5580  0.0071  0.2411
13922TIP3    H263182   0.892   2.504  13.953  0.0099  0.0764  1.5795
13923TIP3   OH263183   5.728   1.576  17.091 -0.5251  0.5418 -0.0313
13923TIP3    H163184   5.702   1.493  17.131 -1.9357  1.1720  0.4174
13923TIP3    H263185   5.646   1.617  17.065  0.0949  2.0997  0.3472
13924TIP3   OH263186   6.341   1.556   1.152 -0.4054  0.1983 -0.1191
13924TIP3    H163187   6.318   1.638   1.195 -0.0960  0.2895 -0.1266
13924TIP3    H263188   6.316   1.488   1.214 -1.2949  0.2649 -0.3947
13925TIP3   OH263189   4.886   1.710  11.706 -0.4646 -0.3239  0.2664
13925TIP3    H163190   4.809   1.683  11.655 -0.0920 -0.7864 -0.0613
13925TIP3    H263191   4.852   1.772  11.770 -1.2534 -1.0833  0.6117
13926TIP3   OH263192   2.972   5.116  14.389  0.6681 -0.1623 -0.0014
13926TIP3    H163193   2.939   5.173  14.459  0.5838 -1.4399  1.0228
13926TIP3    H263194   3.065   5.105  14.410  0.0537 -3.0020  1.7416
13927TIP3   OH263195   1.373   6.143   3.433  0.6569  0.5108 -0.1781
13927TIP3    H163196   1.297   6.187   3.396  0.3748  0.4596  0.3335
13927TIP3    H263197   1.448   6.188   3.395  0.3717  0.9138 -0.2662
13928TIP3   OH263198   6.610   6.006  16.047 -0.2428 -0.2750  0.3855
13928TIP3    H163199   6.525   5.967  16.068  0.1983 -1.4199  0.1538
13928TIP3    H263200   6.618   5.994  15.952  0.2767 -0.3856  0.4421
13929TIP3   OH263201   4.637   0.792   6.353 -0.2862  0.0136  0.2700
13929TIP3    H163202   4.720   0.771   6.312 -0.0052  1.0174  0.3027
13929TIP3    H263203   4.598   0.707   6.374 -0.0356 -0.5023 -1.2482
13930TIP3   OH263204   4.507   3.234  14.822  0.0483  0.2764  0.7100
13930TIP3    H163205   4.421   3.194  14.807  0.2396  0.3670 -0.7692
13930TIP3    H263206   4.492   3.328  14.809  0.6938  0.1467 -1.4698
13931TIP3   OH263207   1.947   2.838  15.476  0.5447 -0.0041  0.4975
13931TIP3    H163208   1.960   2.801  15.563  0.9417 -0.6515  0.1689
13931TIP3    H263209   1.897   2.771  15.429  3.8995 -1.6406 -1.1023
13932TIP3   OH263210   0.322   3.960  16.248  0.1932  0.1127 -0.4952
13932TIP3    H163211   0.338   3.872  16.213  0.0391  0.2063 -0.8062
13932TIP3    H263212   0.241   3.950  16.299  0.9348 -0.2387  0.6396
13933TIP3   OH263213   5.344   5.806  11.807 -0.1555 -0.7904  0.0107
13933TIP3    H163214   5.318   5.793  11.716 -2.3899 -0.2458  0.5098
13933TIP3    H263215   5.268   5.778  11.858  1.1656 -1.3971  1.7459
13934TIP3   OH263216   3.559   4.864   4.455 -0.5858  0.0046 -0.8614
13934TIP3    H163217   3.480   4.830   4.496 -0.3824  0.8557  0.2861
13934TIP3    H263218   3.594   4.790   4.405 -1.6630 -0.6128 -0.7193
13935TIP3   OH263219   4.478   1.040  13.674  0.6405  0.0276 -0.2326
13935TIP3    H163220   4.512   1.127  13.696  0.3939  0.5428 -1.7340
13935TIP3    H263221   4.421   1.056  13.598  0.7853 -1.4786 -0.6784
13936TIP3   OH263222   2.569   0.710   3.241 -0.4343  0.6659  0.8710
13936TIP3    H163223   2.522   0.770   3.184  0.2490 -1.0036 -1.5885
13936TIP3    H263224   2.656   0.704   3.203 -0.7828 -2.6373  0.3534
13937TIP3   OH263225   4.394   3.327   0.008 -0.5761 -0.1175  0.0787
13937TIP3    H163226   4.478   3.324   0.055 -0.7858  1.6094  0.6337
13937TIP3    H263227   4.419   3.323  -0.085  0.0299 -0.8023  0.2624
13938TIP3   OH263228   1.948   1.442  12.102 -0.0434  0.0703  0.6356
13938TIP3    H163229   1.880   1.503  12.129 -0.4650  0.6244 -1.4969
13938TIP3    H263230   2.026   1.470  12.150 -0.9079  0.4326  1.8769
13939TIP3   OH263231   4.533   3.016  12.957 -0.0362 -0.2768  0.2749
13939TIP3    H163232   4.540   3.097  12.908 -0.2793 -0.6798 -0.4413
13939TIP3    H263233   4.574   2.950  12.902  0.7652 -0.5341  1.1454
13940TIP3   OH263234   0.186   1.227   1.654 -0.3601  0.2025 -0.2597
13940TIP3    H163235   0.220   1.218   1.566 -3.5137  2.1321 -1.8597
13940TIP3    H263236   0.196   1.320   1.675 -2.0119  0.3123  0.2480
13941TIP3   OH263237   2.041   2.674  15.063 -0.1606  0.4101  0.1477
13941TIP3    H163238   2.060   2.599  15.006 -0.4139 -0.4536  1.1856
13941TIP3    H263239   2.039   2.749  15.003 -0.9127 -0.5403 -1.0650
13942TIP3   OH263240   4.340   3.401   4.633 -0.1012 -0.0970 -0.8841
13942TIP3    H163241   4.433   3.409   4.654 -0.4119 -0.5354  0.7356
13942TIP3    H263242   4.297   3.378   4.716 -1.6216 -0.2023 -1.6525
13943TIP3   OH263243   1.555   4.869   3.818  0.0997  0.0803 -0.1854
13943TIP3    H163244   1.598   4.931   3.759 -0.6022 -0.1823 -0.9970
13943TIP3    H263245   1.515   4.924   3.886  1.6884  0.3282  0.6005
13944TIP3   OH263246   6.401   6.463   1.089  0.2860  0.4654  0.3367
13944TIP3    H163247   6.490   6.441   1.116  0.2872 -0.9811 -0.7526
13944TIP3    H263248   6.410   6.547   1.043  1.5498 -0.7925 -1.8947
13945TIP3   OH263249   2.381   0.022   0.021 -0.0647  0.1157 -0.2390
13945TIP3    H163250   2.449   0.066   0.071  0.3231  0.4083 -1.0084
13945TIP3    H263251   2.407   0.033  -0.071  1.2821 -3.5810 -0.4683
13946TIP3   OH263252   0.930   6.494  11.554 -0.4914 -0.2769 -0.5695
13946TIP3    H163253   0.849   6.541  11.535 -0.3567 -0.2130 -0.9760
13946TIP3    H263254   0.995   6.531  11.495 -0.6803 -1.8445 -1.8252
13947TIP3   OH263255   1.945   5.728  10.960  0.2460  0.1419  0.2338
13947TIP3    H163256   1.988   5.644  10.977  1.5161  1.0078  1.5605
13947TIP3    H263257   1.891   5.712  10.883 -1.2738 -2.4944  1.6931
13948TIP3   OH263258   4.626   6.406  13.623  0.1216  0.3614 -0.3136
13948TIP3    H163259   4.712   6.390  13.662  0.0765  0.4439 -0.1792
13948TIP3    H263260   4.619   6.342  13.553 -0.4077 -0.7922  0.7509
13949TIP3   OH263261   0.245   4.799  16.668 -0.2272  0.2106  0.1178
13949TIP3    H163262   0.340   4.792  16.672 -0.3771 -1.8898  1.9965
13949TIP3    H263263   0.229   4.883  16.624  2.4697  1.2526  0.9212
13950TIP3   OH263264   1.312   1.739   5.957  0.0277 -0.7080 -0.9068
13950TIP3    H163265   1.335   1.827   5.989 -0.1041 -0.9516 -0.1256
13950TIP3    H263266   1.217   1.740   5.950 -0.0005 -0.8975 -0.5648
13951TIP3   OH263267   3.258   4.759   2.289  0.6434  0.7919 -0.3971
13951TIP3    H163268   3.191   4.795   2.348 -2.8866  0.7619 -3.9660
13951TIP3    H263269   3.241   4.665   2.289  0.8164  0.7597 -1.2313
13952TIP3   OH263270   5.430   3.725  12.352 -0.0291  0.5007 -0.4069
13952TIP3    H163271   5.368   3.779  12.303  0.6116  1.6987  0.0610
13952TIP3    H263272   5.493   3.696  12.286 -0.7107 -0.2042 -0.7674
13953TIP3   OH263273   2.197   6.233   4.736  0.0442  0.0564 -0.2624
13953TIP3    H163274   2.217   6.181   4.814 -0.5061 -0.9966 -0.8040
13953TIP3    H263275   2.240   6.188   4.664 -0.8278  0.0648 -0.8156
13954TIP3   OH263276   0.843   6.014  16.927  0.3130  0.0721  0.0742
13954TIP3    H163277   0.896   6.055  16.995 -0.4425  1.6896 -0.2782
13954TIP3    H263278   0.869   6.058  16.846 -0.4088 -0.2442 -0.3376
13955TIP3   OH263279   4.953   2.584   3.533  0.3615 -0.0108 -0.0985
13955TIP3    H163280   4.991   2.508   3.578  3.3894  0.0350 -2.3010
13955TIP3    H263281   4.992   2.660   3.575 -0.0988  0.1938 -0.0375
13956TIP3   OH263282   1.812   3.232   4.521 -0.6513 -0.3089 -0.0292
13956TIP3    H163283   1.873   3.250   4.592  2.0212  0.2303 -2.2773
13956TIP3    H263284   1.834   3.144   4.491 -1.6004 -0.4594 -0.3416
13957TIP3   OH263285   3.009   5.602  10.466  0.1174  0.1093  0.0726
13957TIP3    H163286   3.052   5.541  10.526  2.4539  1.3711 -0.1682
13957TIP3    H263287   3.079   5.662  10.439 -1.1898  0.5616 -2.6815
13958TIP3   OH263288   1.780   0.791   4.763 -0.2050  0.0097 -0.6646
13958TIP3    H163289   1.859   0.771   4.814 -0.2782 -0.6030 -0.7845
13958TIP3    H263290   1.710   0.795   4.828  0.1121  1.7845 -0.3935
13959TIP3   OH263291   5.262   2.172   3.914  0.6746  0.4400  0.6340
13959TIP3    H163292   5.182   2.127   3.941  1.0368 -1.0131 -0.5196
13959TIP3    H263293   5.284   2.133   3.829  1.8931  1.7391  0.3045
13960TIP3   OH263294   2.180   1.302   3.000 -0.6953 -0.1052  0.3905
13960TIP3    H163295   2.148   1.360   2.931  0.1280  0.3805  0.3998
13960TIP3    H263296   2.263   1.341   3.027 -0.6437 -0.7081  1.1379
13961TIP3   OH263297   4.195   2.248   4.124  0.4248  0.1605  0.6172
13961TIP3    H163298   4.272   2.191   4.128  0.6669  0.4555  0.2487
13961TIP3    H263299   4.231   2.337   4.133  0.2950  0.4156 -1.1423
13962TIP3   OH263300   1.115   4.824   0.652 -0.0477  0.4154  0.2501
13962TIP3    H163301   1.070   4.749   0.691  1.1241 -0.5104 -0.0949
13962TIP3    H263302   1.085   4.826   0.561  0.7516 -0.3599 -0.0504
13963TIP3   OH263303   2.773   5.481   5.573  0.0952 -0.1356  0.2517
13963TIP3    H163304   2.700   5.484   5.512 -0.0173 -3.0635  0.1326
13963TIP3    H263305   2.733   5.490   5.659 -0.0485  1.0539  0.0851
13964TIP3   OH263306   2.534   0.978   5.088  0.2518  0.0989 -0.3568
13964TIP3    H163307   2.537   1.008   4.997 -1.2408 -0.5089 -0.6401
13964TIP3    H263308   2.584   0.896   5.087 -1.6352 -1.1234 -1.1910
13965TIP3   OH263309   0.400   5.122   0.961 -0.0389  0.4099  0.1129
13965TIP3    H163310   0.493   5.130   0.982  0.0218  0.8920 -0.3242
13965TIP3    H263311   0.360   5.202   0.996 -0.0314  0.9448 -1.0620
13966TIP3   OH263312   3.646   6.213   5.824 -0.3305  0.7095 -0.2680
13966TIP3    H163313   3.713   6.153   5.857 -1.2806  0.4748  1.3173
13966TIP3    H263314   3.634   6.187   5.732 -0.6259 -1.4758  0.3343
13967TIP3   OH263315   2.955   1.126   2.694  0.0442 -0.3413  0.2449
13967TIP3    H163316   3.027   1.065   2.675 -2.1736 -3.3107  0.5739
13967TIP3    H263317   2.918   1.145   2.609  1.8842  2.3141 -0.0863
13968TIP3   OH263318   4.747   0.069  15.392 -0.0551  0.1823 -0.5295
13968TIP3    H163319   4.664   0.025  15.412  1.0413 -1.1235  1.5145
13968TIP3    H263320   4.798   0.003  15.345 -0.9386  1.7705 -4.0557
13969TIP3   OH263321   0.427   2.288  11.662 -0.2265 -0.7401 -0.2433
13969TIP3    H163322   0.402   2.381  11.663 -2.0985 -1.1948  0.6242
13969TIP3    H263323   0.512   2.285  11.705 -0.7661  0.4368  0.9697
13970TIP3   OH263324   0.331   0.968   6.321  0.4952 -0.1015  0.0075
13970TIP3    H163325   0.309   1.036   6.258 -1.6968  0.3632  1.1680
13970TIP3    H263326   0.349   0.890   6.268 -2.6337 -0.1071 -1.2559
13971TIP3   OH263327   6.132   6.436   5.278  0.1478  0.0109  0.5859
13971TIP3    H163328   6.090   6.419   5.194  0.6817  1.2668  0.0437
13971TIP3    H263329   6.223   6.408   5.265  0.2027  0.1016  0.7771
13972TIP3   OH263330   5.829   5.124   5.303 -0.5329 -0.4315  0.2233
13972TIP3    H163331   5.760   5.093   5.246  0.7174 -1.4845 -0.7880
13972TIP3    H263332   5.786   5.142   5.386 -2.0256 -0.9306 -0.4208
13973TIP3   OH263333   3.640   3.041   5.177 -0.2449  0.1943 -0.2896
13973TIP3    H163334   3.709   3.104   5.198 -0.6771  0.9896 -1.1765
13973TIP3    H263335   3.683   2.977   5.119  0.8230 -1.7414  2.4312
13974TIP3   OH263336   0.335   6.256  12.238 -0.3487 -0.1770  0.6890
13974TIP3    H163337   0.349   6.183  12.298 -0.2130 -1.7443 -1.1555
13974TIP3    H263338   0.240   6.258  12.224 -0.4439  0.5557  1.3546
13975TIP3   OH263339   2.992   1.448  16.002 -0.3463 -0.1594  0.3641
13975TIP3    H163340   3.071   1.483  15.962 -0.4531  1.8632  1.7929
13975TIP3    H263341   3.015   1.435  16.094 -1.4549 -0.2296  0.6484
13976TIP3   OH263342   2.622   5.907   0.490  0.0144  0.2622 -0.1581
13976TIP3    H163343   2.619   5.856   0.409  0.0968 -3.4963  1.9700
13976TIP3    H263344   2.713   5.901   0.518  0.0798  1.8895  0.0270
13977TIP3   OH263345   4.397   5.023   4.387  0.3787 -0.2629 -0.7449
13977TIP3    H163346   4.441   5.083   4.326 -0.1181 -0.0217 -0.8736
13977TIP3    H263347   4.450   5.026   4.466  1.4157 -1.0777 -1.3671
13978TIP3   OH263348   1.932   6.660   0.181  0.2299 -0.2217  0.2430
13978TIP3    H163349   1.959   6.573   0.153  0.1614 -0.2551  0.2818
13978TIP3    H263350   1.981   6.720   0.124 -1.2348 -0.3019 -1.1831
13979TIP3   OH263351   3.393   0.827   2.283 -0.3202  0.4166  0.5931
13979TIP3    H163352   3.452   0.839   2.209 -1.3235 -1.0623 -0.5137
13979TIP3    H263353   3.451   0.818   2.359  0.8781 -0.6733 -0.4011
13980TIP3   OH263354   2.152   3.529  14.411 -0.0204 -0.1230  0.2584
13980TIP3    H163355   2.143   3.456  14.473 -2.5741  1.5096  1.9897
13980TIP3    H263356   2.084   3.513  14.346  0.9583 -0.4773 -0.6919
13981TIP3   OH263357   1.500   5.703   1.351  0.2506 -0.3973  0.0887
13981TIP3    H163358   1.443   5.716   1.275  0.0500 -0.6135  0.2002
13981TIP3    H263359   1.580   5.665   1.315  0.8194  1.0264 -0.2321
13982TIP3   OH263360   3.488   0.270   0.424 -0.4681 -0.2033 -0.0700
13982TIP3    H163361   3.399   0.259   0.391 -0.5729  0.3767  0.0003
13982TIP3    H263362   3.482   0.346   0.482 -0.5718 -1.8748  2.2692
13983TIP3   OH263363   1.608   0.764   2.794  0.4700 -0.1177  0.3955
13983TIP3    H163364   1.653   0.848   2.782 -0.7905  0.4943 -0.2375
13983TIP3    H263365   1.540   0.764   2.726  0.0569 -1.3781  0.7986
13984TIP3   OH263366   5.429   1.105   2.088  0.4538  0.2539 -0.2009
13984TIP3    H163367   5.493   1.174   2.105  0.0662  0.4984  0.3006
13984TIP3    H263368   5.396   1.125   2.001  1.8384 -0.5096 -0.9326
13985TIP3   OH263369   4.980   5.226   0.844  0.0251 -0.6345  0.6439
13985TIP3    H163370   4.979   5.225   0.749  1.0318  0.6892  0.5889
13985TIP3    H263371   5.062   5.269   0.867  1.2139 -3.4531  2.1679
13986TIP3   OH263372   0.766   3.478   4.984  0.2087  0.1335  0.4498
13986TIP3    H163373   0.790   3.528   4.907  1.9197 -0.1964  0.7243
13986TIP3    H263374   0.699   3.531   5.028 -0.5916  0.4430 -1.0912
13987TIP3   OH263375   1.311   0.763   0.717  0.1395 -0.2827  0.6389
13987TIP3    H163376   1.281   0.845   0.677 -0.9615 -1.1147 -0.2872
13987TIP3    H263377   1.337   0.708   0.643  0.7977 -0.8067  1.2510
13988TIP3   OH263378   5.766   5.190   5.798  0.5865  0.2522 -1.0882
13988TIP3    H163379   5.722   5.255   5.743  0.6087  0.6708 -0.6112
13988TIP3    H263380   5.698   5.126   5.818  0.6974 -0.1767 -2.0096
13989TIP3   OH263381   0.363   6.386  12.726 -0.2076 -0.1126  0.2901
13989TIP3    H163382   0.406   6.301  12.714 -1.1713 -0.4392 -1.2579
13989TIP3    H263383   0.361   6.399  12.820  0.4467 -1.5694  0.5366
13990TIP3   OH263384   2.621   1.798   5.272  0.5289  0.4643  0.5933
13990TIP3    H163385   2.578   1.865   5.218 -1.6870 -0.1832  1.4646
13990TIP3    H263386   2.603   1.715   5.226 -0.8157 -0.0210  1.9101
13991TIP3   OH263387   0.867   5.057   0.720  0.4064 -0.1064  0.0030
13991TIP3    H163388   0.934   5.063   0.788  0.5543  0.7002 -0.2055
13991TIP3    H263389   0.849   4.963   0.711  0.5787 -0.2367  0.9646
13992TIP3   OH263390   4.941   4.223  12.348 -0.2752 -0.0657  0.4379
13992TIP3    H163391   4.925   4.317  12.350  0.6734  0.0967  0.6271
13992TIP3    H263392   5.008   4.211  12.280  0.6627 -0.4250  1.3952
13993TIP3   OH263393   6.655   1.586  14.954 -0.2452 -0.5470  0.3033
13993TIP3    H163394   6.619   1.630  14.876  2.8680 -1.7079 -2.0065
13993TIP3    H263395   6.741   1.627  14.967  1.0908 -3.1912  0.4763
13994TIP3   OH263396   5.149   4.309   4.247  0.0010  0.4997  0.2652
13994TIP3    H163397   5.166   4.271   4.161  0.9521 -0.3016  0.7920
13994TIP3    H263398   5.221   4.278   4.302 -0.6744  0.8713  1.3952
13995TIP3   OH263399   5.545   6.289  13.593  0.2975 -0.7558 -0.1689
13995TIP3    H163400   5.612   6.315  13.530  2.1405  0.3390  2.0743
13995TIP3    H263401   5.493   6.223  13.547  2.0756 -0.6876 -2.4802
13996TIP3   OH263402   2.148   2.840   1.352  0.1470 -0.1706  0.0183
13996TIP3    H163403   2.179   2.864   1.439  0.6336  0.9938 -0.4563
13996TIP3    H263404   2.080   2.774   1.368  0.6994 -0.4753  1.2328
13997TIP3   OH263405   1.224   5.599  13.517 -0.1015 -0.0772 -0.8662
13997TIP3    H163406   1.299   5.602  13.577 -1.2333  1.2532  0.5943
13997TIP3    H263407   1.202   5.506  13.511  1.2546 -0.4203 -0.7951
13998TIP3   OH263408   1.641   2.928  14.209  0.6599  0.3841  0.4520
13998TIP3    H163409   1.571   2.921  14.144 -0.2872 -2.6180  1.6385
13998TIP3    H263410   1.595   2.944  14.292  1.5908  0.9005  0.8808
13999TIP3   OH263411   2.658   0.096   3.791  0.2884  0.0473  0.3223
13999TIP3    H163412   2.725   0.159   3.820  0.4775  0.2656 -0.5528
13999TIP3    H263413   2.614   0.069   3.872 -0.1912  1.7499  0.6912
14000TIP3   OH263414   3.349   6.641  14.890  0.0621 -0.2168 -0.2571
14000TIP3    H163415   3.371   6.573  14.826  0.3414 -0.0244 -0.3693
14000TIP3    H263416   3.397   6.616  14.969 -1.1403 -1.0454  0.2243
14001TIP3   OH263417   1.900   5.943  12.248 -0.7214  0.3284  0.0868
14001TIP3    H163418   1.970   5.965  12.187  0.4604  0.3152  1.3732
14001TIP3    H263419   1.852   5.873  12.205 -0.2344  0.6541 -1.0301
14002TIP3   OH263420   3.329   5.091  15.961 -0.1027 -0.8077  0.4752
14002TIP3    H163421   3.332   5.181  15.930 -1.2072 -1.2453 -1.0418
14002TIP3    H263422   3.418   5.057  15.948 -0.3452 -0.7401 -1.6162
14003TIP3   OH263423   4.235   3.629   1.375  0.2520  0.0133  0.2856
14003TIP3    H163424   4.196   3.550   1.336  2.7970 -1.7250  0.9821
14003TIP3    H263425   4.255   3.685   1.300 -0.0260 -0.7790 -0.4060
14004TIP3   OH263426   0.228   5.289  13.536 -0.2294 -0.2678 -0.2495
14004TIP3    H163427   0.188   5.257  13.454  0.2009  0.4732 -0.7609
14004TIP3    H263428   0.156   5.291  13.598 -0.7058 -0.2184 -0.7918
14005TIP3   OH263429   2.953   1.402  12.366  0.4741 -0.2944  0.0521
14005TIP3    H163430   3.023   1.466  12.355 -0.9140  1.5446  1.2496
14005TIP3    H263431   2.977   1.353  12.445  1.7554 -1.6063 -1.1090
14006TIP3   OH263432   5.878   1.568   2.837 -0.1082 -0.5570  0.2599
14006TIP3    H163433   5.859   1.619   2.758 -2.0397  0.2617  1.1951
14006TIP3    H263434   5.886   1.633   2.907  2.6099 -1.1818  0.6399
14007TIP3   OH263435   0.575   0.015   0.032  0.4185 -0.0888  0.2670
14007TIP3    H163436   0.496  -0.015   0.077 -0.6396  1.4822 -0.4419
14007TIP3    H263437   0.635   0.040   0.103 -0.8215  1.3842  0.8420
14008TIP3   OH263438   2.835   5.054   4.776 -0.5028  0.4597  0.1525
14008TIP3    H163439   2.893   5.124   4.804  0.3983 -0.4590  0.6467
14008TIP3    H263440   2.795   5.086   4.695  0.8366  1.0451 -0.3045
14009TIP3   OH263441   1.481   2.179  14.038 -0.2854  0.4662 -0.1987
14009TIP3    H163442   1.500   2.252  13.979 -0.7018  0.8719  0.1590
14009TIP3    H263443   1.470   2.220  14.124  1.4789 -0.2399  0.4074
14010TIP3   OH263444   3.053   5.714   5.638 -0.6301  0.6362  0.6261
14010TIP3    H163445   3.005   5.641   5.597 -0.4861  0.6888  0.3610
14010TIP3    H263446   3.085   5.677   5.720 -0.0595  0.2158  0.2231
14011TIP3   OH263447   2.024   2.530   4.012 -0.0484  0.3242 -0.3653
14011TIP3    H163448   1.954   2.539   3.947  0.9900  1.1035 -1.4279
14011TIP3    H263449   1.979   2.502   4.092 -1.7482  1.9662 -0.6679
14012TIP3   OH263450   3.711   1.371  11.102 -0.5864  0.2479  0.2118
14012TIP3    H163451   3.763   1.290  11.102 -1.1320 -0.1170  1.0601
14012TIP3    H263452   3.771   1.438  11.136 -0.0162  0.3008 -0.8353
14013TIP3   OH263453   0.860   0.660   2.764  0.7212 -0.8292 -0.1055
14013TIP3    H163454   0.922   0.620   2.825 -1.5091 -0.3834  2.6499
14013TIP3    H263455   0.813   0.586   2.726 -1.1868 -1.1181  2.5362
14014TIP3   OH263456   2.728   4.713   2.491 -0.3794 -0.3425  0.5387
14014TIP3    H163457   2.653   4.771   2.504  0.7468  0.8820  1.8568
14014TIP3    H263458   2.751   4.682   2.578  0.0338 -1.5285  0.0336
14015TIP3   OH263459   0.656   5.799   6.428  0.4721  0.5081  0.1837
14015TIP3    H163460   0.597   5.873   6.444 -1.3963 -0.7850 -0.4509
14015TIP3    H263461   0.632   5.767   6.341  2.6613  0.3894 -0.4406
14016TIP3   OH263462   2.328   5.384   2.877 -0.2492  0.1684 -0.1565
14016TIP3    H163463   2.365   5.296   2.878 -1.5559 -0.4188  1.4864
14016TIP3    H263464   2.392   5.436   2.829  1.1755 -1.4042 -0.0655
14017TIP3   OH263465   3.109   5.092   0.160 -0.0730 -0.0995  0.0718
14017TIP3    H163466   3.158   5.072   0.239  0.4918  0.0874 -0.2237
14017TIP3    H263467   3.176   5.102   0.092 -0.3951  1.7846 -0.0133
14018TIP3   OH263468   0.750   1.557  14.533  0.0143 -0.3002 -0.3315
14018TIP3    H163469   0.738   1.487  14.469 -0.0732 -0.0347 -0.6097
14018TIP3    H263470   0.661   1.578  14.562 -0.0980  0.6563 -1.2963
14019TIP3   OH263471   3.159   6.455   2.503 -0.1945  0.0322 -0.0768
14019TIP3    H163472   3.071   6.418   2.495  0.0989 -1.5325  2.6492
14019TIP3    H263473   3.217   6.382   2.479  0.3864  0.4721 -0.0296
14020TIP3   OH263474   4.214   0.448   5.957  0.4060 -0.6419  0.1621
14020TIP3    H163475   4.219   0.542   5.939 -1.0914 -1.0965 -3.5710
14020TIP3    H263476   4.144   0.440   6.021  0.1870  0.7824  0.1453
14021TIP3   OH263477   6.454   6.716   2.987  0.1149  0.2667 -0.0889
14021TIP3    H163478   6.539   6.760   2.988 -1.1775  3.0016  0.6630
14021TIP3    H263479   6.414   6.745   2.905 -0.5388 -0.0499  0.1154
14022TIP3   OH263480   2.001   5.510  13.034 -0.0504  0.5993  0.4135
14022TIP3    H163481   2.037   5.442  12.978 -0.0951  0.6563  0.3157
14022TIP3    H263482   1.966   5.576  12.973 -0.9169  0.2326  0.5030
14023TIP3   OH263483   2.093   4.183   0.701 -0.0445 -0.2883  0.4670
14023TIP3    H163484   2.182   4.148   0.695 -0.6919 -1.7663 -1.5647
14023TIP3    H263485   2.075   4.220   0.615 -0.9178  1.3609  1.2980
14024TIP3   OH263486   2.069   2.908  14.499 -0.0269 -0.3690  0.2391
14024TIP3    H163487   2.026   2.925  14.415 -2.2333 -0.7280  1.2302
14024TIP3    H263488   2.024   2.965  14.561 -0.8542 -2.6183  1.8157
14025TIP3   OH263489   0.458   5.572   1.552 -0.1529  0.1932 -0.9200
14025TIP3    H163490   0.464   5.666   1.567 -1.4736  0.1279  0.2209
14025TIP3    H263491   0.454   5.534   1.639 -2.1377 -0.7025 -1.3417
14026TIP3   OH263492   0.367   5.952  12.283 -0.3431 -0.2229  0.0556
14026TIP3    H163493   0.295   5.947  12.220 -2.4266 -0.3007  2.2839
14026TIP3    H263494   0.325   5.974  12.366  2.4089  1.1839  1.2222
14027TIP3   OH263495   3.650   1.951  15.535 -0.1980 -0.0213 -0.4592
14027TIP3    H163496   3.601   2.024  15.574  0.8087  1.4378 -1.7773
14027TIP3    H263497   3.710   1.993  15.473  2.1354 -1.7862  0.4648
14028TIP3   OH263498   0.484   0.813   4.248 -0.0439 -0.1559 -0.2849
14028TIP3    H163499   0.493   0.775   4.335  2.1658 -0.7458 -0.6867
14028TIP3    H263500   0.418   0.759   4.205  1.2217 -2.0333 -0.0057
14029TIP3   OH263501   1.258   0.575   5.306  0.0159 -0.6782  0.3546
14029TIP3    H163502   1.174   0.560   5.262 -1.9929 -1.6639  4.0996
14029TIP3    H263503   1.295   0.487   5.318  0.0104 -0.5431  1.4564
14030TIP3   OH263504   0.482   1.566  15.867  0.0590  0.4406  0.0665
14030TIP3    H163505   0.448   1.489  15.913  1.9241 -0.3848  0.1580
14030TIP3    H263506   0.405   1.607  15.829 -1.0605 -1.1652  0.4896
14031TIP3   OH263507   0.892   1.809   0.736 -0.1163  0.0597 -0.0256
14031TIP3    H163508   0.896   1.894   0.780 -1.9910 -0.3128  1.0254
14031TIP3    H263509   0.861   1.749   0.805 -1.3926 -0.9187 -1.3936
14032TIP3   OH263510   5.047   2.967   4.190 -0.0026 -0.1448  0.0233
14032TIP3    H163511   4.992   2.894   4.218 -1.4559  0.1876 -1.7294
14032TIP3    H263512   5.131   2.953   4.233 -0.1999 -2.9311 -0.3717
14033TIP3   OH263513   2.841   1.255  11.455 -0.2354  0.2033 -0.4403
14033TIP3    H163514   2.899   1.302  11.395  2.2604  0.2630  1.8069
14033TIP3    H263515   2.841   1.308  11.535 -0.1688 -1.8118  0.9709
14034TIP3   OH263516   2.127   4.311  11.252 -0.1086 -0.2212  0.1586
14034TIP3    H163517   2.054   4.335  11.195  0.0033 -3.3139 -1.4935
14034TIP3    H263518   2.203   4.312  11.194  1.0933  1.9170  1.6205
14035TIP3   OH263519   2.846   2.823  11.696  0.3703  0.0651 -0.0732
14035TIP3    H163520   2.821   2.730  11.699 -4.1983  1.0007  3.3199
14035TIP3    H263521   2.921   2.829  11.755 -0.6700 -1.2675  1.4879
14036TIP3   OH263522   1.134   2.488   4.469 -0.4961  0.5416  0.0587
14036TIP3    H163523   1.048   2.463   4.437  0.1179 -0.0958 -1.1138
14036TIP3    H263524   1.131   2.584   4.471 -1.0612  0.5396 -0.4304
14037TIP3   OH263525   6.199   0.352   1.233  0.4058 -0.0345 -0.3707
14037TIP3    H163526   6.168   0.391   1.151 -1.4695 -0.0331  0.2957
14037TIP3    H263527   6.263   0.416   1.267  0.9391  0.1272 -1.6395
14038TIP3   OH263528   4.589   6.454   6.238  0.0435  0.1703 -0.0605
14038TIP3    H163529   4.663   6.458   6.298  1.0560  0.3641 -1.2716
14038TIP3    H263530   4.516   6.492   6.286  0.4685 -0.9101  1.5143
14039TIP3   OH263531   1.385   1.947   4.062 -0.3376 -0.6893 -0.0087
14039TIP3    H163532   1.300   1.910   4.085  0.1194 -1.0821  1.1242
14039TIP3    H263533   1.437   1.939   4.142  0.3049  0.8919 -0.2300
14040TIP3   OH263534   3.857   6.085  15.852 -0.3192  0.6016  0.2897
14040TIP3    H163535   3.811   6.058  15.772  1.6948  0.2499 -0.8365
14040TIP3    H263536   3.881   6.176  15.836 -0.6182  0.7831  0.8636
14041TIP3   OH263537   2.252   6.553  14.608 -0.6608  0.0354  0.1513
14041TIP3    H163538   2.303   6.534  14.529  1.5067  2.1715  0.9281
14041TIP3    H263539   2.244   6.468  14.651  1.7411 -0.5208 -0.3474
14042TIP3   OH263540   1.303   1.070  15.889  0.4020  0.3879  0.2209
14042TIP3    H163541   1.333   0.980  15.885 -1.7532 -0.4287  1.1400
14042TIP3    H263542   1.346   1.113  15.815 -0.4846 -2.0178 -1.8296
14043TIP3   OH263543   2.147   6.073  14.835  0.2621  0.4338  0.2528
14043TIP3    H163544   2.075   6.013  14.855  1.0502 -0.3519  0.7704
14043TIP3    H263545   2.167   6.116  14.918  0.0389  1.0667 -0.0077
14044TIP3   OH263546   6.556   5.517  16.771  0.0739 -0.2958  0.4069
14044TIP3    H163547   6.617   5.513  16.697 -0.9984  1.8539 -0.6990
14044TIP3    H263548   6.608   5.556  16.842  0.0064  1.9124 -0.6494
14045TIP3   OH263549   6.766   5.250   5.854 -0.0622 -0.5404 -0.4651
14045TIP3    H163550   6.802   5.338   5.865 -0.0942 -0.4102 -1.3462
14045TIP3    H263551   6.803   5.200   5.926  0.1673  0.1292 -0.1106
14046TIP3   OH263552   2.733   0.736  11.780 -0.0491 -0.1153  0.3408
14046TIP3    H163553   2.787   0.696  11.712  1.1264  0.7671  0.7161
14046TIP3    H263554   2.715   0.665  11.842  1.7218 -0.1831  0.8325
14047TIP3   OH263555   1.872   5.743   3.328 -0.0325  0.0421 -0.4678
14047TIP3    H163556   1.880   5.696   3.245  1.2315  1.3117 -1.1106
14047TIP3    H263557   1.845   5.831   3.302  2.1519  1.0011  0.2601
14048TIP3   OH263558   2.638   1.993  11.455  0.0668  0.2601 -0.7027
14048TIP3    H163559   2.556   1.950  11.429 -0.2018 -1.0194  1.9328
14048TIP3    H263560   2.610   2.075  11.495  0.1841  0.3590 -0.8212
14049TIP3   OH263561   5.280   3.408   0.945 -0.1237  0.6806  0.0325
14049TIP3    H163562   5.250   3.499   0.938 -0.0347  0.5922 -2.2327
14049TIP3    H263563   5.199   3.356   0.945 -0.3282  0.7202  3.5192
14050TIP3   OH263564   5.051   0.404   1.268  0.0353 -0.0866  0.0592
14050TIP3    H163565   5.063   0.376   1.359  2.9047  2.0268  0.4588
14050TIP3    H263566   5.010   0.491   1.275 -1.0367 -0.5076 -0.7635
14051TIP3   OH263567   0.732   1.149   0.477 -0.3366 -0.3468  0.4154
14051TIP3    H163568   0.679   1.213   0.524  0.1068  0.1675  0.2283
14051TIP3    H263569   0.669   1.085   0.445 -0.7325 -0.2531  0.9959
14052TIP3   OH263570   1.101   0.223   3.561  0.3315  0.4308 -0.1766
14052TIP3    H163571   1.007   0.206   3.560  0.7588 -2.5951 -0.1074
14052TIP3    H263572   1.130   0.199   3.473  1.0823  1.1487 -0.1305
14053TIP3   OH263573   5.751   0.902  15.839 -0.4890  0.4320 -0.7337
14053TIP3    H163574   5.685   0.915  15.907 -1.4018 -0.0349 -1.5205
14053TIP3    H263575   5.761   0.988  15.798 -2.3483  0.0440 -2.1504
14054TIP3   OH263576   5.725   0.334   2.633  0.1331  0.2151 -0.3482
14054TIP3    H163577   5.638   0.303   2.607  0.1442  0.5836 -0.8509
14054TIP3    H263578   5.759   0.378   2.555  1.3704 -1.1852 -0.6480
14055TIP3   OH263579   1.054   0.714  12.201  0.2696 -0.1239  0.2476
14055TIP3    H163580   1.002   0.681  12.128  1.3683  1.4582 -1.3332
14055TIP3    H263581   1.033   0.807  12.206  2.0368  0.3178  0.2903
14056TIP3   OH263582   4.411   3.351  10.656 -0.0076  0.5343  0.2795
14056TIP3    H163583   4.336   3.303  10.620 -0.4480  1.2045  0.2897
14056TIP3    H263584   4.466   3.283  10.696  0.9643 -0.3607 -2.3746
14057TIP3   OH263585   5.965   0.631  16.225 -0.1265 -0.3487  0.0784
14057TIP3    H163586   6.038   0.588  16.180 -0.3758  0.6301 -1.3541
14057TIP3    H263587   5.990   0.724  16.228 -1.0989 -0.0606 -0.0649
14058TIP3   OH263588   3.222   6.750   5.154  0.2878  0.4482 -0.0762
14058TIP3    H163589   3.246   6.734   5.063 -0.6189 -1.1704 -0.0661
14058TIP3    H263590   3.243   6.842   5.168 -0.3713  0.9729 -2.1688
14059TIP3   OH263591   0.817   1.866  13.582 -0.3615 -0.5479 -0.5847
14059TIP3    H163592   0.803   1.776  13.553 -1.3946 -0.5069 -0.2471
14059TIP3    H263593   0.736   1.912  13.561  0.0938  0.2749 -0.6065
14060TIP3   OH263594   6.294   2.373  14.051 -0.3601  0.4171 -0.2392
14060TIP3    H163595   6.285   2.280  14.029  0.0206  0.3414 -0.0752
14060TIP3    H263596   6.342   2.374  14.133 -0.0954  0.7684 -0.3945
14061TIP3   OH263597   3.303   6.074  13.497 -0.3300  0.0338 -0.5127
14061TIP3    H163598   3.212   6.059  13.522  0.3461 -0.7851  1.6989
14061TIP3    H263599   3.333   5.990  13.462 -0.0645 -0.0874  0.0010
14062TIP3   OH263600   5.503   0.582   0.339 -0.2472 -0.0134 -0.1351
14062TIP3    H163601   5.490   0.606   0.247 -0.8485 -2.5180 -0.7895
14062TIP3    H263602   5.590   0.615   0.360 -0.0686  0.5591 -1.6214
14063TIP3   OH263603   0.127   6.746  15.621 -0.0824  0.6063  0.2512
14063TIP3    H163604   0.077   6.684  15.673 -0.7082  1.6366  0.9200
14063TIP3    H263605   0.218   6.720  15.634 -0.3330 -0.1878  0.4793
14064TIP3   OH263606   0.298   6.210  17.070  1.0060  0.3359  0.3207
14064TIP3    H163607   0.388   6.199  17.039  0.6441 -0.8991 -0.3678
14064TIP3    H263608   0.291   6.148  17.143  1.2677  1.8264  1.6777
14065TIP3   OH263609   4.091   2.073   0.090 -0.3153 -0.0170  0.0928
14065TIP3    H163610   4.153   2.144   0.076 -1.2927  1.2277  1.7494
14065TIP3    H263611   4.006   2.110   0.066 -0.7209 -0.9423  0.0686
14066TIP3   OH263612   3.316   5.818   0.337 -0.2434 -0.2294 -0.0365
14066TIP3    H163613   3.245   5.756   0.325 -0.7092 -0.0026  1.3495
14066TIP3    H263614   3.314   5.873   0.259 -1.3223 -0.4858 -0.1964
14067TIP3   OH263615   4.549   1.751   4.287 -0.0688  0.1510  0.1020
14067TIP3    H163616   4.581   1.722   4.372 -0.1536  0.4322  0.2309
14067TIP3    H263617   4.477   1.811   4.307  0.3405  0.7361 -0.1534
14068TIP3   OH263618   1.076   5.470  13.300 -0.4345  0.2514 -0.4168
14068TIP3    H163619   1.070   5.508  13.213  1.1328  0.3905 -0.4919
14068TIP3    H263620   1.111   5.540  13.355  2.2720 -0.8900 -0.5132
14069TIP3   OH263621   6.544   1.860   2.423 -0.3258 -0.0591 -0.1726
14069TIP3    H163622   6.636   1.838   2.439 -0.8587 -2.2606  0.2157
14069TIP3    H263623   6.510   1.884   2.509 -0.3380 -0.1835 -0.1422
14070TIP3   OH263624   3.266   5.401   5.031 -0.0414 -0.7280  0.6600
14070TIP3    H163625   3.257   5.425   5.123  1.1720  0.0538  0.5970
14070TIP3    H263626   3.316   5.319   5.032  1.2388  0.0267  0.6706
14071TIP3   OH263627   4.538   2.320   1.728  0.4678  0.2257 -0.3730
14071TIP3    H163628   4.539   2.323   1.633  0.8939  1.1797 -0.3400
14071TIP3    H263629   4.565   2.407   1.756 -0.2923  0.1693  0.6218
14072TIP3   OH263630   0.024   6.442  14.962  0.6908  0.2765 -0.2864
14072TIP3    H163631   0.023   6.537  14.959  0.3591  0.2602 -0.7966
14072TIP3    H263632  -0.001   6.420  15.052 -1.2560  0.6475 -0.6930
14073TIP3   OH263633   5.503   0.668   1.653  0.3558  0.5142  0.1783
14073TIP3    H163634   5.592   0.692   1.680  1.1340 -1.9655  0.1208
14073TIP3    H263635   5.508   0.661   1.558  0.0700  0.5278  0.1618
14074TIP3   OH263636   0.782   3.114   0.171  0.4221  0.9079  0.0509
14074TIP3    H163637   0.867   3.074   0.154  0.4055  1.1353 -0.5727
14074TIP3    H263638   0.803   3.191   0.225  0.7199  1.4960 -0.8705
14075TIP3   OH263639   1.954   2.038  16.758 -0.3114 -0.1366  0.0167
14075TIP3    H163640   1.919   2.072  16.841  0.1657  1.4036 -0.3917
14075TIP3    H263641   1.992   1.954  16.782 -0.0571  0.3395  1.4039
14076TIP3   OH263642   2.502   6.463   2.313  0.1159  0.5553  0.0719
14076TIP3    H163643   2.552   6.543   2.299 -1.3077  1.8954  2.1113
14076TIP3    H263644   2.481   6.432   2.225  0.9037  2.2743 -0.7706
14077TIP3   OH263645   5.677   4.735  11.799  0.3164  0.1358  0.2592
14077TIP3    H163646   5.686   4.718  11.705 -1.4766  2.9255 -0.5569
14077TIP3    H263647   5.601   4.684  11.825 -1.0246  1.5914 -0.5980
14078TIP3   OH263648   5.261   4.586   0.727  0.1670 -0.3131 -0.0774
14078TIP3    H163649   5.282   4.629   0.644  3.9613  1.1555  1.4133
14078TIP3    H263650   5.314   4.506   0.726 -1.4748 -1.4542  0.1100
14079TIP3   OH263651   1.534   3.280   5.341 -0.1716 -0.1274  0.5631
14079TIP3    H163652   1.599   3.347   5.360 -0.7196  0.4649  0.3752
14079TIP3    H263653   1.498   3.305   5.256 -0.3306 -0.7042  0.4550
14080TIP3   OH263654   6.045   0.655  14.447  0.0746 -0.1811 -0.2720
14080TIP3    H163655   6.059   0.749  14.438  0.6009 -0.3839 -1.7193
14080TIP3    H263656   6.099   0.615  14.379  0.2183 -1.5670  0.6211
14081TIP3   OH263657   4.909   2.252  14.556  0.0757 -0.2700  0.3465
14081TIP3    H163658   4.998   2.222  14.536  0.7052  0.5108  1.8433
14081TIP3    H263659   4.860   2.172  14.572  0.8895 -0.6699  0.9500
14082TIP3   OH263660   6.249   4.606   0.706  0.3578  0.5076  0.6140
14082TIP3    H163661   6.321   4.544   0.696  0.4970  0.7522  0.0919
14082TIP3    H263662   6.286   4.691   0.684 -0.4568  0.4372 -1.2623
14083TIP3   OH263663   0.460   1.086   0.834  0.2749  0.1862  0.1024
14083TIP3    H163664   0.495   1.149   0.770 -2.3097  1.6612  0.0152
14083TIP3    H263665   0.537   1.059   0.884  2.0937  0.4970 -2.2980
14084TIP3   OH263666   6.778   2.696   5.628  0.3813  1.0104 -1.3598
14084TIP3    H163667   6.742   2.608   5.627 -0.2478  1.2539 -0.9084
14084TIP3    H263668   6.707   2.751   5.662  1.0487  1.5567 -0.8091
14085TIP3   OH263669   1.600   5.053  16.151  0.2817 -0.2599 -0.0492
14085TIP3    H163670   1.679   5.066  16.100  1.6958  0.4278  2.1777
14085TIP3    H263671   1.597   5.128  16.211 -1.5669 -0.7419  0.5410
14086TIP3   OH263672   5.257   1.841   1.062  0.5842 -0.0674  0.0366
14086TIP3    H163673   5.246   1.933   1.089  2.7930 -0.1470  1.4547
14086TIP3    H263674   5.248   1.791   1.143 -0.7736 -1.1945 -0.7505
14087TIP3   OH263675   5.114   2.412  15.862  0.2567 -0.0230 -0.1854
14087TIP3    H163676   5.193   2.360  15.847 -0.3497 -1.5288  1.5181
14087TIP3    H263677   5.142   2.502  15.843  2.5531 -0.4332  0.8219
14088TIP3   OH263678   4.033   1.730   1.023 -0.8329 -0.6796  0.1326
14088TIP3    H163679   4.050   1.788   0.950 -0.4471 -0.6071  0.2796
14088TIP3    H263680   4.078   1.648   1.001  0.1984 -0.3039  0.7741
14089TIP3   OH263681   1.937   1.166  15.409 -0.4164  0.5230 -0.2943
14089TIP3    H163682   1.844   1.175  15.388 -1.1628 -2.4550  1.2185
14089TIP3    H263683   1.944   1.195  15.499  0.5382  2.3947 -0.9198
14090TIP3   OH263684   0.224   2.197   1.232 -0.0970 -0.7829 -0.5187
14090TIP3    H163685   0.306   2.246   1.227 -0.4147 -0.1510  0.2458
14090TIP3    H263686   0.171   2.231   1.159  0.3268 -1.2307 -1.0455
14091TIP3   OH263687   4.904   4.192   6.109 -0.2827  0.9490  0.7284
14091TIP3    H163688   4.880   4.248   6.183 -1.5784 -0.2887  1.2743
14091TIP3    H263689   4.994   4.218   6.089 -1.0961  3.9011  0.3225
14092TIP3   OH263690   2.053   1.072  11.180  0.1302 -0.2043 -0.5827
14092TIP3    H163691   2.030   0.993  11.130  2.3862 -1.0455 -0.4275
14092TIP3    H263692   2.014   1.144  11.131 -4.5673 -1.4407  0.7886
14093TIP3   OH263693   6.782   5.212  16.676  0.7317 -0.6123  0.2212
14093TIP3    H163694   6.758   5.144  16.613 -2.8964  0.7218 -0.0656
14093TIP3    H263695   6.827   5.278  16.624 -0.7601 -0.2855 -0.7017
14094TIP3   OH263696   1.809   1.705   5.454  0.0107  0.1524 -0.1975
14094TIP3    H163697   1.813   1.660   5.538 -3.1078 -1.1551 -0.5941
14094TIP3    H263698   1.861   1.651   5.395  0.6534  0.0240  0.4800
14095TIP3   OH263699   2.980   5.235   0.827  0.0065 -0.2355  0.0388
14095TIP3    H163700   2.970   5.172   0.899 -0.4258  0.1605  0.3335
14095TIP3    H263701   3.027   5.309   0.866 -0.6515  0.1850  0.0481
14096TIP3   OH263702   1.971   0.463  11.561 -0.1546  0.0864  0.2445
14096TIP3    H163703   2.025   0.440  11.485  1.0843  0.9374  0.8208
14096TIP3    H263704   1.888   0.492  11.524  0.7902  1.5231 -0.8741
14097TIP3   OH263705   2.001   5.782  13.750  0.3249 -0.0303 -0.4431
14097TIP3    H163706   1.952   5.861  13.727 -1.7329 -1.3837 -1.0671
14097TIP3    H263707   2.004   5.732  13.668  0.4320 -1.1702  0.2399
14098TIP3   OH263708   4.797   4.902  11.982  0.3498  0.0953  0.2777
14098TIP3    H163709   4.805   4.980  12.038 -0.1043 -0.8114  1.6669
14098TIP3    H263710   4.854   4.837  12.024 -1.0721 -1.0558  0.5104
14099TIP3   OH263711   0.702   6.127   2.671 -0.8315 -0.7591  0.2522
14099TIP3    H163712   0.741   6.042   2.651  0.6796 -0.5822  2.2115
14099TIP3    H263713   0.693   6.170   2.585 -0.4835 -2.3964 -0.6391
14100TIP3   OH263714   3.800   2.531  15.131 -0.3014 -0.2413  0.2144
14100TIP3    H163715   3.795   2.515  15.226  1.5285  1.2529  0.6172
14100TIP3    H263716   3.787   2.445  15.092  0.6804 -1.2123  1.8963
14101TIP3   OH263717   2.773   3.084   4.700  0.6456 -0.4362  0.3436
14101TIP3    H163718   2.696   3.142   4.696  0.9731  0.0669  1.1474
14101TIP3    H263719   2.737   2.998   4.719  0.2939 -0.1349  1.0925
14102TIP3   OH263720   1.322   4.205  15.631  0.2133  0.0403  0.1576
14102TIP3    H163721   1.258   4.174  15.694  0.7497  0.6170  1.0070
14102TIP3    H263722   1.305   4.154  15.552 -0.2968 -0.8751  0.8479
14103TIP3   OH263723   2.749   3.981  12.062 -0.5668  0.7366 -0.2638
14103TIP3    H163724   2.786   3.933  11.989 -1.8203 -2.2219  0.8966
14103TIP3    H263725   2.654   3.978  12.048 -0.9341 -1.0734  2.0592
14104TIP3   OH263726   5.451   3.800  14.338 -0.1001  0.6643 -0.7207
14104TIP3    H163727   5.452   3.880  14.389  2.4106  0.6292 -0.5771
14104TIP3    H263728   5.536   3.760  14.355 -1.2879 -2.1021 -0.7129
14105TIP3   OH263729   6.029   0.033   4.383  0.1411 -0.6837  0.0817
14105TIP3    H163730   6.029   0.106   4.445  1.3531  1.4529 -2.2498
14105TIP3    H263731   5.937   0.012   4.370 -0.2198  0.2102  1.0693
14106TIP3   OH263732   1.476   3.433  16.512 -0.0317 -0.0303 -0.0522
14106TIP3    H163733   1.564   3.394  16.516 -0.3791 -1.0908 -1.7073
14106TIP3    H263734   1.492   3.527  16.515  1.1707 -0.2063 -0.2451
14107TIP3   OH263735   0.462   5.773  14.814  0.1317  0.3763  0.1038
14107TIP3    H163736   0.504   5.693  14.846 -0.8322 -1.0374 -1.8865
14107TIP3    H263737   0.377   5.775  14.858 -0.8571 -1.1157 -1.5899
14108TIP3   OH263738   2.576   1.877   0.542 -0.0180 -0.5555  0.1741
14108TIP3    H163739   2.528   1.795   0.554  0.1516 -0.5236  1.1396
14108TIP3    H263740   2.536   1.917   0.465 -0.6354 -1.1704  0.1675
14109TIP3   OH263741   0.701   1.649   3.381 -0.7980  0.0840  0.6622
14109TIP3    H163742   0.721   1.571   3.431 -2.2032 -1.7166 -1.3804
14109TIP3    H263743   0.613   1.673   3.409 -1.2085 -0.3648 -0.2028
14110TIP3   OH263744   2.152   3.586  15.697 -0.6630  0.1622 -0.0567
14110TIP3    H163745   2.096   3.510  15.708 -1.0825  0.4519 -0.1733
14110TIP3    H263746   2.096   3.661  15.716 -0.3928  0.4706 -0.4344
14111TIP3   OH263747   2.954   0.392  11.292 -0.0638  0.1318  0.1690
14111TIP3    H163748   2.989   0.322  11.238 -0.0554  0.0885  0.2312
14111TIP3    H263749   2.865   0.363  11.314 -0.4671  0.6350 -0.7207
14112TIP3   OH263750   3.620   0.494   4.299 -0.5319  0.5125  0.3507
14112TIP3    H163751   3.621   0.454   4.212 -0.3545  0.5007  0.3582
14112TIP3    H263752   3.703   0.468   4.339 -0.5348  0.6628  0.4575
14113TIP3   OH263753   4.754   5.150   0.562  0.3668  0.4185  0.1425
14113TIP3    H163754   4.718   5.066   0.533  0.8209  0.2172  0.1509
14113TIP3    H263755   4.713   5.167   0.647  0.6048 -0.0067  0.3422
14114TIP3   OH263756   1.042   2.911  14.139 -0.2059  0.0028 -0.1723
14114TIP3    H163757   0.979   2.978  14.164 -2.3876 -1.8589 -0.3178
14114TIP3    H263758   1.030   2.842  14.204  0.3289 -1.2081 -1.3181
14115TIP3   OH263759   0.670   5.622   3.545  0.0343 -0.2746 -1.1142
14115TIP3    H163760   0.637   5.683   3.610 -1.3377 -1.5713 -0.5440
14115TIP3    H263761   0.765   5.633   3.548 -0.0972  0.7012  0.0883
14116TIP3   OH263762   6.471   6.635  15.948 -0.3669  0.5898 -0.4128
14116TIP3    H163763   6.452   6.675  16.033  0.7466  0.2006  0.0515
14116TIP3    H263764   6.562   6.604  15.957  0.6689  2.7266 -2.5776
14117TIP3   OH263765   2.492   1.875  11.878 -0.4054  0.2173  0.0415
14117TIP3    H163766   2.412   1.838  11.840 -0.9445  2.9443 -1.7641
14117TIP3    H263767   2.558   1.866  11.810  0.2688 -0.0620  0.7099
14118TIP3   OH263768   4.825   6.207   6.108  0.7379 -0.0427  0.0710
14118TIP3    H163769   4.908   6.244   6.077  1.2023  0.3157  1.6151
14118TIP3    H263770   4.852   6.138   6.170 -0.0922  0.4784  1.0489
14119TIP3   OH263771   6.216   5.826  14.211  0.8762  0.2620  0.4083
14119TIP3    H163772   6.258   5.748  14.246 -0.3912 -0.2509  0.8578
14119TIP3    H263773   6.226   5.892  14.280  1.3063  0.2770  0.3333
14120TIP3   OH263774   2.980   6.256  15.922 -0.4950  0.0359 -0.5456
14120TIP3    H163775   3.053   6.278  15.865 -0.1977  0.1354 -0.1324
14120TIP3    H263776   2.917   6.211  15.865 -0.4271  0.5791 -1.0564
14121TIP3   OH263777   6.552   2.854   5.679  0.0796  0.5908  0.1987
14121TIP3    H163778   6.517   2.770   5.649 -1.5223  1.1554  0.3663
14121TIP3    H263779   6.479   2.915   5.669  0.7493  1.6518  1.4536
14122TIP3   OH263780   4.262   4.066   4.249  0.4909 -0.1866  0.1434
14122TIP3    H163781   4.202   4.052   4.322 -0.4799 -1.1941 -0.8137
14122TIP3    H263782   4.316   3.987   4.246 -1.1975 -1.3564 -1.7696
14123TIP3   OH263783   5.965   5.848  13.450 -0.7969  0.0093 -0.5608
14123TIP3    H163784   5.977   5.933  13.493 -1.3009  0.9344 -2.1546
14123TIP3    H263785   5.981   5.866  13.358  1.3590 -2.1536 -0.7013
14124TIP3   OH263786   3.366   6.724   5.422  0.1058 -0.4494  0.3271
14124TIP3    H163787   3.306   6.737   5.348  0.0428 -2.9429 -0.1532
14124TIP3    H263788   3.332   6.646   5.466  1.4530 -0.3067  1.6735
14125TIP3   OH263789   5.173   2.977   1.783 -0.7912  0.3101 -0.8846
14125TIP3    H163790   5.246   2.915   1.784 -1.3495 -0.3592  0.3984
14125TIP3    H263791   5.210   3.057   1.821 -0.4169  0.3492 -1.3265
14126TIP3   OH263792   5.098   4.825  16.800  0.3003 -0.4927  0.0314
14126TIP3    H163793   5.057   4.903  16.762 -0.4997 -1.7879 -1.9613
14126TIP3    H263794   5.189   4.851  16.815  0.0473  0.8312 -0.5460
14127TIP3   OH263795   3.880   1.008  15.513  0.4239 -0.0039  0.3256
14127TIP3    H163796   3.904   0.962  15.433  1.3274 -0.8538  1.0603
14127TIP3    H263797   3.821   0.948  15.558 -0.7731  0.8373 -0.0933
14128TIP3   OH263798   0.270   4.448   1.718  0.3917 -0.2476 -0.0056
14128TIP3    H163799   0.192   4.499   1.743  1.2682  1.1123  0.0795
14128TIP3    H263800   0.322   4.442   1.798  2.7460  3.2843 -1.0281
14129TIP3   OH263801   6.226   2.687   2.140  0.2552 -0.2278 -0.4352
14129TIP3    H163802   6.193   2.770   2.175 -1.9757 -1.1148 -0.3007
14129TIP3    H263803   6.293   2.660   2.203 -0.4291  0.4783  0.6276
14130TIP3   OH263804   5.843   4.217   5.928  0.2779 -0.4587 -0.3994
14130TIP3    H163805   5.765   4.162   5.932  0.5919 -1.0020 -1.3444
14130TIP3    H263806   5.823   4.291   5.984 -0.4944 -1.1176  0.2222
14131TIP3   OH263807   5.850   2.874  12.093  0.5528 -0.0045 -0.4307
14131TIP3    H163808   5.807   2.871  12.179  0.3707 -0.6686 -0.5380
14131TIP3    H263809   5.943   2.885  12.114  0.4622  0.2432 -0.1566
14132TIP3   OH263810   4.267   3.561  13.216 -0.2390  0.5050 -0.0677
14132TIP3    H163811   4.218   3.626  13.165 -0.9232  0.3304  0.3555
14132TIP3    H263812   4.248   3.584  13.307 -0.3179 -0.1654  0.0879
14133TIP3   OH263813   4.307   3.026   5.494 -0.3875  0.3448  0.1947
14133TIP3    H163814   4.292   2.937   5.525 -0.7279 -0.6107 -2.4311
14133TIP3    H263815   4.388   3.054   5.537  0.5195 -1.8096  0.0093
14134TIP3   OH263816   6.159   4.989   3.942  0.0113  0.0211 -0.2993
14134TIP3    H163817   6.142   4.928   3.871 -1.4364 -1.9567  1.6057
14134TIP3    H263818   6.212   4.939   4.004  1.0781  1.6197  0.1405
14135TIP3   OH263819   6.065   1.353  11.184 -0.4751 -0.6026 -0.1724
14135TIP3    H163820   6.068   1.271  11.234  0.0685 -0.6166 -0.2240
14135TIP3    H263821   6.155   1.369  11.158 -0.2010  1.0344  1.5111
14136TIP3   OH263822   2.905   0.556  15.447 -0.1669 -0.1997 -0.6368
14136TIP3    H163823   3.000   0.546  15.454 -0.1747  0.7391  1.5761
14136TIP3    H263824   2.875   0.472  15.412  1.4079 -0.7585 -0.7317
14137TIP3   OH263825   6.083   1.388  14.875 -0.3473 -0.5221 -0.2864
14137TIP3    H163826   5.996   1.419  14.847  0.2583  0.8249 -0.7624
14137TIP3    H263827   6.144   1.454  14.841  0.7305 -0.6453  1.3215
14138TIP3   OH263828   4.965   5.538   3.891  0.3934 -0.0348  0.6219
14138TIP3    H163829   4.968   5.503   3.981 -0.0270 -1.8349 -0.0186
14138TIP3    H263830   4.995   5.465   3.837  2.2182  1.5482 -0.5999
14139TIP3   OH263831   2.973   4.871  16.877  0.1210 -0.6449 -0.1586
14139TIP3    H163832   3.038   4.875  16.947  0.8878  0.8953 -0.9212
14139TIP3    H263833   2.893   4.905  16.916  0.0575 -1.4675  0.4563
14140TIP3   OH263834   6.790   5.342  10.893 -0.3989  0.7912  0.1756
14140TIP3    H163835   6.764   5.424  10.936  0.5985  0.8423  0.7120
14140TIP3    H263836   6.799   5.279  10.965 -0.8463  0.2866 -0.2029
14141TIP3   OH263837   5.094   4.582  11.084 -1.0335 -0.2725  0.3956
14141TIP3    H163838   5.011   4.583  11.036 -1.0253  0.1132  0.3826
14141TIP3    H263839   5.099   4.669  11.124  0.0267  0.2294 -0.7608
14142TIP3   OH263840   2.009   0.478   6.423  0.3101  0.2439  0.1130
14142TIP3    H163841   1.937   0.455   6.481 -2.0579  1.1805 -2.2573
14142TIP3    H263842   2.017   0.403   6.363  1.2668  0.2033  0.2667
14143TIP3   OH263843   3.226   2.624   4.208 -0.3822  0.0605  1.0239
14143TIP3    H163844   3.297   2.677   4.244 -0.8612  1.7287 -0.3388
14143TIP3    H263845   3.146   2.665   4.241 -0.7660  0.4010 -0.2719
14144TIP3   OH263846   4.536   6.735  14.124  0.2778 -0.2036 -0.2394
14144TIP3    H163847   4.571   6.653  14.159  2.5282  1.3824  1.5791
14144TIP3    H263848   4.573   6.741  14.036 -1.8753 -2.1780 -1.3820
14145TIP3   OH263849   6.662   6.392   6.065  0.5036 -0.1761 -0.0967
14145TIP3    H163850   6.704   6.478   6.061 -1.3508  0.7238 -0.9717
14145TIP3    H263851   6.666   6.359   5.975 -3.7095  1.5375 -1.1457
14146TIP3   OH263852   3.971   3.129   3.169 -0.2568  0.2754 -0.2358
14146TIP3    H163853   3.884   3.169   3.163  0.5297  1.9681 -0.9409
14146TIP3    H263854   3.985   3.089   3.083 -0.0386  0.6510 -0.3749
14147TIP3   OH263855   0.827   0.172   4.810  0.3504  0.1402  0.2233
14147TIP3    H163856   0.878   0.154   4.889 -0.2665  1.9718  1.0834
14147TIP3    H263857   0.886   0.149   4.737  0.8316 -1.8341  1.1598
14148TIP3   OH263858   6.574   3.571   6.403  0.1250  0.0231 -0.0358
14148TIP3    H163859   6.618   3.548   6.321  1.7344  2.1326  0.1328
14148TIP3    H263860   6.627   3.529   6.471 -0.4971 -0.7271 -0.0082
14149TIP3   OH263861   0.079   6.582  13.203  0.2487  0.4754 -0.1442
14149TIP3    H163862   0.022   6.568  13.127 -0.9131  1.2810  0.5379
14149TIP3    H263863   0.166   6.591  13.167 -0.2889  0.8407 -1.3922
14150TIP3   OH263864   6.031   4.160   4.110 -0.2924  0.3806 -0.2715
14150TIP3    H163865   5.976   4.090   4.074  0.6000 -0.1586 -0.6280
14150TIP3    H263866   5.979   4.199   4.179 -0.3739 -1.4183  0.7355
14151TIP3   OH263867   4.149   6.557  14.376  0.4631  0.1528 -0.7979
14151TIP3    H163868   4.145   6.530  14.285  0.2763 -1.5017 -0.3307
14151TIP3    H263869   4.225   6.615  14.381 -0.8049  2.0889 -2.4183
14152TIP3   OH263870   2.450   2.246   0.613  0.1929  0.1467  0.0108
14152TIP3    H163871   2.529   2.223   0.662 -0.3933 -1.3396  0.2955
14152TIP3    H263872   2.476   2.236   0.521  0.5208  0.3326  0.0789
14153TIP3   OH263873   3.457   3.915   5.702 -0.0895  0.3096 -0.9291
14153TIP3    H163874   3.526   3.855   5.676  0.2651  0.7954 -1.1313
14153TIP3    H263875   3.501   4.000   5.711 -0.2976  0.2524  0.8381
14154TIP3   OH263876   5.170   2.714  10.827 -0.1781  0.1452 -0.1301
14154TIP3    H163877   5.083   2.709  10.789 -0.2287 -0.0700  0.0127
14154TIP3    H263878   5.214   2.783  10.778 -0.2450 -0.1272 -0.5796
14155TIP3   OH263879   2.041   3.716  13.705 -0.0718 -0.1425 -0.5022
14155TIP3    H163880   2.050   3.626  13.737 -3.1877 -0.3941 -0.0234
14155TIP3    H263881   2.097   3.719  13.627  0.5185 -2.3272 -0.2359
14156TIP3   OH263882   4.942   2.125   5.444  0.4914  0.2492 -0.5467
14156TIP3    H163883   4.974   2.037   5.465 -1.0308  0.1302  1.7481
14156TIP3    H263884   5.012   2.165   5.393  0.9242 -2.5066 -2.3485
14157TIP3   OH263885   6.667   0.172   0.141 -0.3556 -0.7137 -0.6935
14157TIP3    H163886   6.631   0.155   0.054  0.5743 -0.9655 -1.0372
14157TIP3    H263887   6.598   0.142   0.201 -0.0315 -2.9122 -1.3219
14158TIP3   OH263888   0.364   3.442   5.156  0.3641  0.2937 -0.0697
14158TIP3    H163889   0.433   3.449   5.222  0.5253 -0.0201 -0.2012
14158TIP3    H263890   0.285   3.473   5.200  0.8106  1.8257 -0.2891
14159TIP3   OH263891   1.850   6.275   3.268 -0.2616  0.1858  0.2922
14159TIP3    H163892   1.922   6.334   3.287 -0.4337 -0.1373  2.2518
14159TIP3    H263893   1.856   6.258   3.174  3.2700 -1.1562  0.5990
14160TIP3   OH263894   3.829   4.472   5.082 -0.1185  0.6039  0.4277
14160TIP3    H163895   3.897   4.417   5.122  0.8682 -0.3879 -2.3800
14160TIP3    H263896   3.876   4.523   5.016 -1.8345  1.2397 -0.3554
14161TIP3   OH263897   3.866   1.416   5.843  0.4609  0.4746  0.0325
14161TIP3    H163898   3.885   1.338   5.896  0.5591  0.8858  0.6083
14161TIP3    H263899   3.884   1.388   5.753  0.3789 -0.2059  0.2162
14162TIP3   OH263900   2.052   5.589  16.974  0.4172 -0.2950  0.0006
14162TIP3    H163901   2.079   5.610  16.885  1.5198  0.6679  0.5348
14162TIP3    H263902   2.133   5.569  17.020 -0.2245 -1.8778  0.5458
14163TIP3   OH263903   4.568   1.669  17.158  0.5588  1.1336  0.4413
14163TIP3    H163904   4.560   1.762  17.138  0.8827  0.7839 -1.5414
14163TIP3    H263905   4.478   1.637  17.161  0.3973  1.6872  2.2009
14164TIP3   OH263906   5.757   1.454   4.124 -0.1317  0.2129  0.5125
14164TIP3    H163907   5.738   1.364   4.099 -0.9998  0.4408  0.3319
14164TIP3    H263908   5.788   1.496   4.044  0.8276 -0.0634  0.7252
14165TIP3   OH263909   0.575   3.470  15.555 -0.0684 -0.1458  0.3409
14165TIP3    H163910   0.547   3.405  15.619  0.0793 -0.0414  0.5127
14165TIP3    H263911   0.669   3.458  15.547 -0.0755 -0.1113  0.1961
14166TIP3   OH263912   5.385   4.245   3.301 -0.1344 -0.1176 -0.4005
14166TIP3    H163913   5.388   4.336   3.332 -0.4106  0.1655 -1.1735
14166TIP3    H263914   5.451   4.200   3.353 -0.0699  0.5042  0.0708
14167TIP3   OH263915   5.793   4.998  16.509  0.2142 -0.4508  0.0116
14167TIP3    H163916   5.775   5.088  16.536 -0.0704 -0.9164  1.4949
14167TIP3    H263917   5.729   4.945  16.556  2.1642 -1.6742  1.4647
14168TIP3   OH263918   0.977   3.842   3.970 -0.2047 -0.2143 -0.0198
14168TIP3    H163919   0.966   3.892   4.051 -0.8529  0.8988 -0.7762
14168TIP3    H263920   0.888   3.830   3.937 -0.0618 -1.8105  0.0845
14169TIP3   OH263921   2.509   5.963  16.905 -0.0227  0.2824  0.2207
14169TIP3    H163922   2.567   5.914  16.847  1.2881  1.7026  0.2332
14169TIP3    H263923   2.559   6.043  16.925 -1.6133  1.1189  1.0247
14170TIP3   OH263924   0.178   6.372  14.744 -0.7006  0.0804  0.1757
14170TIP3    H163925   0.129   6.393  14.824 -1.3328 -0.1366 -0.1454
14170TIP3    H263926   0.263   6.343  14.776 -1.1651 -0.6417  0.8201
14171TIP3   OH263927   4.083   0.424  12.088  0.2498 -0.9357  0.0919
14171TIP3    H163928   4.116   0.413  12.177  1.2703 -0.8925 -0.2623
14171TIP3    H263929   4.083   0.335  12.052  0.0362 -0.9264  0.0700
14172TIP3   OH263930   3.030   5.873   3.218 -0.0797 -0.0271  0.4104
14172TIP3    H163931   3.068   5.901   3.135  0.6964  0.5212  0.9444
14172TIP3    H263932   2.937   5.895   3.210 -0.2155 -0.8843 -0.6834
14173TIP3   OH263933   1.613   2.726   0.266 -0.2811  0.5492 -0.7653
14173TIP3    H163934   1.659   2.647   0.239 -2.1829 -1.1391  0.6244
14173TIP3    H263935   1.559   2.749   0.191 -1.1291 -0.6400 -0.5573
14174TIP3   OH263936   6.360   0.170  10.893  0.5130  0.1545  0.4619
14174TIP3    H163937   6.292   0.108  10.868  1.0905 -0.1584 -0.3613
14174TIP3    H263938   6.398   0.200  10.810  0.2734  1.5766  0.8427
14175TIP3   OH263939   0.799   1.479   1.227  0.2569 -0.1826 -0.1315
14175TIP3    H163940   0.842   1.426   1.294 -1.3681  0.0868  1.1832
14175TIP3    H263941   0.772   1.559   1.273 -2.2188 -0.6286 -0.6764
14176TIP3   OH263942   1.930   1.143   4.939 -0.0226 -0.0201 -0.0029
14176TIP3    H163943   2.002   1.111   4.886 -0.2762  0.3017 -0.5564
14176TIP3    H263944   1.940   1.099   5.023  0.9009  0.1367 -0.0256
14177TIP3   OH263945   0.610   1.547  15.345  0.4414 -0.2349 -0.2400
14177TIP3    H163946   0.576   1.631  15.377  0.7890 -0.5845  1.1195
14177TIP3    H263947   0.644   1.566  15.258 -0.1040  0.8806 -0.2238
14178TIP3   OH263948   2.709   2.475   1.676 -0.1866 -0.4655  0.6230
14178TIP3    H163949   2.768   2.550   1.681 -0.1717 -0.5076  1.0780
14178TIP3    H263950   2.745   2.411   1.737 -0.3879 -0.7156  0.4868
14179TIP3   OH263951   6.590   4.270  13.426 -0.8084  0.1526 -0.3172
14179TIP3    H163952   6.586   4.332  13.354 -0.9479  0.3580 -0.1364
14179TIP3    H263953   6.507   4.222  13.420 -0.4587 -0.4045 -0.7939
14180TIP3   OH263954   0.520   5.445   4.315  0.1029 -0.0322  0.2760
14180TIP3    H163955   0.475   5.376   4.267 -0.2081  0.7030 -0.5186
14180TIP3    H263956   0.612   5.432   4.296 -0.0734  0.8407 -1.3872
14181TIP3   OH263957   3.769   4.622   0.124  0.0922  0.5263 -0.1776
14181TIP3    H163958   3.827   4.582   0.190 -0.8312  0.3686  0.5705
14181TIP3    H263959   3.706   4.552   0.103  0.0640  0.7489 -0.8458
14182TIP3   OH263960   3.601   3.496  12.572 -0.4766 -0.0571 -0.6500
14182TIP3    H163961   3.671   3.553  12.540  2.0909 -1.7962  1.4136
14182TIP3    H263962   3.582   3.529  12.660  0.0079 -1.4852  0.0066
14183TIP3   OH263963   4.710   0.620  13.382  0.3665  0.1256  0.5723
14183TIP3    H163964   4.754   0.579  13.456  1.0115 -0.0632  0.0891
14183TIP3    H263965   4.652   0.552  13.348  1.2406 -0.3207 -0.0658
14184TIP3   OH263966   3.039   5.806   1.157 -0.3790  0.2222 -0.0230
14184TIP3    H163967   2.964   5.818   1.098 -0.6487  2.0860  0.6008
14184TIP3    H263968   3.040   5.713   1.176 -3.6670  0.2882  1.2921
14185TIP3   OH263969   0.754   4.002   2.763  0.4552  0.6998  0.2616
14185TIP3    H163970   0.729   3.915   2.731 -3.0436  2.0549 -1.2859
14185TIP3    H263971   0.682   4.028   2.820  0.8129  3.0241 -0.2612
14186TIP3   OH263972   2.849   0.936   2.204  0.0540  0.1074  0.5571
14186TIP3    H163973   2.782   0.881   2.245 -0.0228 -0.8686 -0.8182
14186TIP3    H263974   2.800   0.999   2.152  0.1671  0.9871  1.4813
14187TIP3   OH263975   2.942   4.511  16.669  0.9631 -0.4096 -0.0127
14187TIP3    H163976   2.954   4.517  16.574 -2.8301 -1.7362 -0.7551
14187TIP3    H263977   2.946   4.417  16.687  0.9831 -0.2090  1.0430
14188TIP3   OH263978   3.247   0.578   2.661 -0.3665  0.5206  0.0510
14188TIP3    H163979   3.188   0.650   2.639 -1.1091  0.1418  0.7664
14188TIP3    H263980   3.219   0.549   2.748 -2.0422 -2.5357 -1.3463
14189TIP3   OH263981   0.135   0.656  16.655  0.1405  0.7877  0.8578
14189TIP3    H163982   0.084   0.695  16.726 -0.9529 -2.2948  1.9643
14189TIP3    H263983   0.074   0.653  16.582 -0.5278 -0.6330  1.4255
14190TIP3   OH263984   1.565   2.351   1.968 -0.4754  0.5582 -0.2536
14190TIP3    H163985   1.543   2.406   1.893  2.3136  1.0742 -0.7921
14190TIP3    H263986   1.637   2.296   1.937 -1.2462 -1.3784  1.1667
14191TIP3   OH263987   6.323   3.569   2.978  0.3796  0.2105  0.1499
14191TIP3    H163988   6.280   3.485   2.990  2.0039 -0.4501  1.8670
14191TIP3    H263989   6.349   3.570   2.886 -0.0534 -0.9722  0.0095
14192TIP3   OH263990   3.061   3.720  13.987 -0.0272  0.2163  0.3651
14192TIP3    H163991   3.043   3.800  14.037 -0.0165  1.0761 -0.9599
14192TIP3    H263992   2.990   3.714  13.924  0.5518 -0.2287 -0.2617
14193TIP3   OH263993   4.520   5.090  12.940 -0.5883  0.1083 -0.2413
14193TIP3    H163994   4.584   5.142  12.989 -0.6920  1.1866 -1.2315
14193TIP3    H263995   4.573   5.026  12.893 -0.3408  0.2205 -0.1168
14194TIP3   OH263996   1.148   4.037   1.786 -0.5379 -0.3221  0.9479
14194TIP3    H163997   1.210   4.016   1.716 -0.0958  0.3702  1.1202
14194TIP3    H263998   1.201   4.038   1.866 -0.5955  1.0617  0.9936
14195TIP3   OH263999   0.096   1.653   4.774  0.1989  0.4562 -0.1343
14195TIP3    H164000   0.065   1.564   4.758  0.6701  0.2249  0.1931
14195TIP3    H264001   0.113   1.656   4.868 -1.5943  1.4880  0.1891
14196TIP3   OH264002   5.322   5.730   3.391  0.3219 -1.0377  0.1962
14196TIP3    H164003   5.391   5.665   3.375 -0.1301 -2.2268  2.6043
14196TIP3    H264004   5.241   5.679   3.391 -0.6261  0.3085 -2.3665
14197TIP3   OH264005   0.116   0.326  15.138  0.1575 -0.2595 -0.6873
14197TIP3    H164006   0.164   0.250  15.106  0.8069  0.3026 -1.0627
14197TIP3    H264007   0.063   0.292  15.211  1.5138 -0.7821  0.0788
14198TIP3   OH264008   2.270   0.390  15.393 -0.0941  0.2341 -0.6203
14198TIP3    H164009   2.252   0.452  15.324 -0.2686  0.0533 -0.7403
14198TIP3    H264010   2.364   0.371  15.386  0.2943  1.5970  0.3495
14199TIP3   OH264011   1.080   4.378   0.022 -0.5310  0.5618  0.5402
14199TIP3    H164012   1.095   4.471   0.037 -1.8880  0.9564 -0.3490
14199TIP3    H264013   0.992   4.362   0.057 -0.4494 -0.3021  0.3726
14200TIP3   OH264014   4.023   5.376  16.648 -0.2848  0.1904  0.1569
14200TIP3    H164015   3.944   5.332  16.615 -0.0390 -0.6328  0.6386
14200TIP3    H264016   4.032   5.453  16.592 -1.4665  0.3361  0.1335
14201TIP3   OH264017   3.150   4.032   0.593 -0.2103 -0.1627  0.2388
14201TIP3    H164018   3.220   3.971   0.568 -0.4870  0.0348 -1.0761
14201TIP3    H264019   3.097   3.982   0.655 -0.3700 -1.2574 -0.7267
14202TIP3   OH264020   2.054   4.740  11.945  0.4921 -0.3812  0.4312
14202TIP3    H164021   2.113   4.804  11.904 -0.7814  0.9304  0.5710
14202TIP3    H264022   1.993   4.793  11.996 -0.3916 -1.7474  0.8368
14203TIP3   OH264023   3.085   5.914  16.144  0.4557  0.2727  0.3381
14203TIP3    H164024   3.146   5.860  16.194  0.6905 -0.3593 -0.6112
14203TIP3    H264025   3.040   5.967  16.210 -0.5041 -1.7689  1.4060
14204TIP3   OH264026   5.200   0.864   4.684 -0.7456 -0.5820  1.1193
14204TIP3    H164027   5.176   0.782   4.641 -1.0641  0.2717 -0.3726
14204TIP3    H264028   5.295   0.858   4.694 -0.6792 -0.8421  0.3861
14205TIP3   OH264029   3.771   2.234  13.109  0.4483  0.0278  0.1775
14205TIP3    H164030   3.762   2.228  13.205 -0.3684  0.3882  0.1355
14205TIP3    H264031   3.842   2.297  13.096 -0.2778  0.9656  0.5639
14206TIP3   OH264032   3.066   3.151   3.369 -0.4372  0.0407  0.3316
14206TIP3    H164033   3.083   3.189   3.456 -1.8227  1.2490  0.1277
14206TIP3    H264034   3.042   3.060   3.387  1.9999 -0.5360  0.9361
14207TIP3   OH264035   2.069   6.458   4.885  0.2499  0.5969 -0.5610
14207TIP3    H164036   2.025   6.488   4.805  1.3633  1.3111 -0.9268
14207TIP3    H264037   2.131   6.392   4.856 -0.6612 -0.5396 -0.0211
14208TIP3   OH264038   3.504   6.138   4.766  0.0254 -0.0061  0.6201
14208TIP3    H164039   3.539   6.221   4.797 -1.1236  0.8513 -0.3205
14208TIP3    H264040   3.472   6.094   4.845  0.0424  0.7264  1.0389
14209TIP3   OH264041   0.905   4.950  11.542 -0.4120 -0.5735 -0.1015
14209TIP3    H164042   0.956   4.912  11.471  0.1511  0.5868 -0.3550
14209TIP3    H264043   0.816   4.920  11.528 -0.6314  0.8940 -2.2448
14210TIP3   OH264044   2.830   2.926   1.811  0.2757  0.4178  0.2510
14210TIP3    H164045   2.791   2.980   1.880 -0.3467  1.0229 -0.5602
14210TIP3    H264046   2.865   2.989   1.748 -0.3419 -0.1239 -0.6443
14211TIP3   OH264047   0.312   2.527   2.118 -0.0538 -0.4276 -0.2318
14211TIP3    H164048   0.253   2.593   2.081  1.0885  0.2631 -0.8730
14211TIP3    H264049   0.334   2.560   2.204  0.0145 -0.3015 -0.2982
14212TIP3   OH264050   3.243   1.455   5.595  0.7824 -0.0287  0.7261
14212TIP3    H164051   3.185   1.432   5.668  0.4022  1.1973  0.8442
14212TIP3    H264052   3.299   1.525   5.631  0.3079  0.8849 -0.2651
14213TIP3   OH264053   0.026   5.931  12.826  0.0179  0.2279  0.1068
14213TIP3    H164054   0.093   5.998  12.811  0.5628 -0.5858 -1.3556
14213TIP3    H264055   0.076   5.850  12.839 -0.6327  0.0235  1.4808
14214TIP3   OH264056   6.688   6.241  15.743  0.2609 -0.0716 -0.0856
14214TIP3    H164057   6.611   6.272  15.791  0.4614  0.2488  0.0351
14214TIP3    H264058   6.688   6.146  15.756  0.2841  0.0087  0.4987
14215TIP3   OH264059   3.902   1.053  16.449  0.4578  0.1921 -0.1884
14215TIP3    H164060   3.905   1.008  16.533  2.0405 -0.3841 -0.5107
14215TIP3    H264061   3.889   1.145  16.471  0.2316 -0.0329  0.6501
14216TIP3   OH264062   3.452   4.852  12.987 -0.7772  0.0675  0.2151
14216TIP3    H164063   3.363   4.824  13.011 -0.7101 -0.5291 -0.2138
14216TIP3    H264064   3.471   4.805  12.906 -0.6250  1.3273 -0.4988
14217TIP3   OH264065   0.653   2.376  15.515  0.3264 -0.0521 -0.1756
14217TIP3    H164066   0.713   2.320  15.466 -0.9619 -1.4668 -0.2063
14217TIP3    H264067   0.691   2.381  15.603  0.0305 -1.7577  0.0933
14218TIP3   OH264068   6.019   5.123  12.500 -0.0781  0.6428  0.3389
14218TIP3    H164069   5.972   5.184  12.443  0.8127  0.2323 -0.8690
14218TIP3    H264070   5.986   5.143  12.588 -1.7221  1.0653 -0.3384
14219TIP3   OH264071   1.958   5.747  15.801  0.1040 -0.7160  0.2692
14219TIP3    H164072   1.998   5.744  15.714 -0.5537  0.7511 -0.1146
14219TIP3    H264073   2.002   5.820  15.845 -0.3067 -0.7719  0.7802
14220TIP3   OH264074   6.742   3.494   6.186 -0.0325  0.3572 -0.3657
14220TIP3    H164075   6.806   3.422   6.182  0.4082  0.2996  3.6257
14220TIP3    H264076   6.795   3.573   6.190 -0.4024  0.6631 -1.3220
14221TIP3   OH264077   5.401   1.492   3.394 -0.5664 -0.5591  0.1152
14221TIP3    H164078   5.478   1.511   3.448  1.8377 -0.0886 -3.1911
14221TIP3    H264079   5.360   1.577   3.381 -0.8323 -0.5918  0.7103
14222TIP3   OH264080   4.303   0.272  15.792  0.3220 -0.8181 -0.4957
14222TIP3    H164081   4.286   0.195  15.846  0.4971  0.7826  2.0221
14222TIP3    H264082   4.220   0.320  15.791  0.5134 -0.4869 -1.0995
14223TIP3   OH264083   4.998   6.648   2.236  0.6835 -0.4108  0.2685
14223TIP3    H164084   4.997   6.592   2.158 -0.9121  1.1286 -0.9126
14223TIP3    H264085   4.915   6.696   2.232  1.8564  1.8718  1.3024
14224TIP3   OH264086   4.083   6.588  16.044 -0.1303 -0.1930  0.6279
14224TIP3    H164087   4.073   6.541  15.961 -1.0596 -0.4647  0.8832
14224TIP3    H264088   4.050   6.676  16.026  1.2459  0.2798  0.2602
14225TIP3   OH264089   6.326   4.745  15.411  0.4690  0.1060 -0.1797
14225TIP3    H164090   6.384   4.687  15.461  1.2257 -0.8008 -1.9883
14225TIP3    H264091   6.386   4.795  15.355 -0.2988  1.6111  0.3036
14226TIP3   OH264092   4.804   0.382  14.291  0.0766 -0.2406  0.2886
14226TIP3    H164093   4.746   0.310  14.317  0.1992 -0.1467  0.8183
14226TIP3    H264094   4.791   0.449  14.358 -0.4819  0.4858 -0.5146
14227TIP3   OH264095   6.301   4.940   5.640  0.1313  0.3820 -0.3339
14227TIP3    H164096   6.325   4.998   5.712  0.7181  0.8349 -0.8848
14227TIP3    H264097   6.208   4.960   5.624  0.2465  0.9479 -0.3156
14228TIP3   OH264098   3.425   5.301  13.602 -0.0017  0.1381  0.5150
14228TIP3    H164099   3.414   5.329  13.511 -0.3908 -1.5938 -0.0065
14228TIP3    H264100   3.358   5.234  13.615  0.7796 -0.4489  1.7390
14229TIP3   OH264101   3.826   3.267   2.570 -0.2799 -0.5315 -0.0037
14229TIP3    H164102   3.921   3.269   2.561 -0.1389  3.1341  0.9654
14229TIP3    H264103   3.807   3.180   2.606  2.7761 -0.9607  0.7876
14230TIP3   OH264104   2.175   4.005  13.751  0.1386  0.0303  0.0412
14230TIP3    H164105   2.097   3.988  13.699  0.4603  0.8040 -0.7138
14230TIP3    H264106   2.159   4.091  13.790  0.5763  0.1567 -0.0540
14231TIP3   OH264107   0.864   1.821   6.134 -0.6025  0.2619 -0.4034
14231TIP3    H164108   0.897   1.858   6.217 -0.5736  0.5986 -0.5616
14231TIP3    H264109   0.838   1.732   6.156  1.3414 -0.3731 -0.4877
14232TIP3   OH264110   1.174   2.838   0.608 -0.1063  0.4697 -0.6034
14232TIP3    H164111   1.084   2.813   0.586  0.0083  0.5613 -1.2010
14232TIP3    H264112   1.228   2.778   0.556  0.1856 -0.2575  0.5218
14233TIP3   OH264113   2.942   6.287  12.419  0.8446 -0.4491  0.5701
14233TIP3    H164114   2.886   6.239  12.357  1.9144 -1.5044  0.3906
14233TIP3    H264115   2.911   6.259  12.505  0.7219 -0.5850  0.4829
14234TIP3   OH264116   2.617   3.771   1.659 -0.0814  0.2254 -0.0476
14234TIP3    H164117   2.522   3.765   1.649  0.1565 -0.7249 -2.1490
14234TIP3    H264118   2.632   3.751   1.752 -2.0146  2.2028  0.8002
14235TIP3   OH264119   0.328   5.077   5.777 -0.2059  0.0577  0.3176
14235TIP3    H164120   0.411   5.045   5.813 -0.4905 -0.3863  0.5856
14235TIP3    H264121   0.282   5.113   5.853 -0.3708  0.0563  0.2170
14236TIP3   OH264122   3.003   3.703  10.529  0.7758  0.1028 -0.8540
14236TIP3    H164123   2.936   3.770  10.514  1.0457  0.2158 -1.5520
14236TIP3    H264124   3.061   3.709  10.454  0.6715 -1.0771 -1.0506
14237TIP3   OH264125   2.463   5.399  15.862 -0.1526 -0.4043  0.2345
14237TIP3    H164126   2.487   5.431  15.949  1.9758 -1.4378  0.0943
14237TIP3    H264127   2.445   5.306  15.875 -0.1028 -0.5034 -0.3711
14238TIP3   OH264128   1.238   4.185  12.077  0.4230  0.1046 -0.2339
14238TIP3    H164129   1.306   4.238  12.120 -0.2275 -0.1814  1.2281
14238TIP3    H264130   1.275   4.097  12.074 -0.1805 -0.2328  1.3562
14239TIP3   OH264131   3.235   4.129   0.176  0.5984 -0.2901 -0.3065
14239TIP3    H164132   3.147   4.164   0.188  0.5076 -0.3720 -0.7027
14239TIP3    H264133   3.235   4.095   0.086  0.5613 -1.6941  0.1996
14240TIP3   OH264134   1.640   3.823   0.070 -0.2160 -0.2082  0.0745
14240TIP3    H164135   1.730   3.833   0.101  0.7984  1.3093 -2.9497
14240TIP3    H264136   1.588   3.878   0.129  0.7767 -1.1399  1.8927
14241TIP3   OH264137   2.987   3.744   2.641 -0.0355 -0.2849  0.7517
14241TIP3    H164138   2.989   3.839   2.637  1.6996 -0.2520  1.3831
14241TIP3    H264139   2.901   3.723   2.676  0.0065  1.1287  1.7878
14242TIP3   OH264140   2.887   4.280   2.868  0.6185  0.0093  0.3939
14242TIP3    H164141   2.803   4.280   2.914 -0.2418 -2.3692 -1.0161
14242TIP3    H264142   2.944   4.225   2.922 -0.2683 -2.4312 -0.9727
14243TIP3   OH264143   2.093   0.987   4.280  0.1609  0.0284 -0.1469
14243TIP3    H164144   2.067   0.900   4.312  1.2011 -0.3003 -0.1241
14243TIP3    H264145   2.056   0.993   4.192 -3.8534  1.4662  1.4373
14244TIP3   OH264146   5.438   1.569   5.759 -0.5843 -0.7070  0.0950
14244TIP3    H164147   5.371   1.570   5.691 -0.7353 -1.4948  0.2212
14244TIP3    H264148   5.410   1.636   5.822 -0.0043  0.6240 -1.0053
14245TIP3   OH264149   3.227   1.610  15.870  0.3991 -0.4052  0.4236
14245TIP3    H164150   3.288   1.677  15.838  1.0777 -1.6899 -1.1449
14245TIP3    H264151   3.227   1.620  15.965  1.7321  0.7707  0.3302
14246TIP3   OH264152   5.105   0.608  16.711 -0.3195  0.1891 -0.0072
14246TIP3    H164153   5.027   0.599  16.657 -0.8053 -0.9064  0.8423
14246TIP3    H264154   5.114   0.524  16.755  0.1917  0.9705  1.4449
14247TIP3   OH264155   6.742   1.883  12.505 -0.1272  0.0092  0.0282
14247TIP3    H164156   6.655   1.879  12.544 -0.2591 -1.7569 -0.3269
14247TIP3    H264157   6.789   1.809  12.545  1.7250  1.7915  1.3317
14248TIP3   OH264158   5.884   4.732   1.949 -0.3012  0.1597 -0.0370
14248TIP3    H164159   5.978   4.734   1.928  0.1181 -1.3311  1.4542
14248TIP3    H264160   5.861   4.823   1.966  1.1149  0.4420  0.4893
14249TIP3   OH264161   5.391   2.834  14.034  0.8664 -0.0110  0.4118
14249TIP3    H164162   5.387   2.814  14.128  1.8425  1.5257  0.8036
14249TIP3    H264163   5.303   2.811  14.002  0.5318 -0.6224  1.6721
14250TIP3   OH264164   5.087   3.111   2.059  0.3145  0.3545  0.2151
14250TIP3    H164165   5.043   3.196   2.057  0.4609  0.4270 -2.3577
14250TIP3    H264166   5.175   3.128   2.026  0.0062 -0.9150 -1.4147
14251TIP3   OH264167   6.316   5.967   4.937  0.0738  0.2884  0.6641
14251TIP3    H164168   6.225   5.969   4.966 -0.1525  1.2264 -0.0631
14251TIP3    H264169   6.366   5.942   5.015 -0.7041  0.7162  1.3128
14252TIP3   OH264170   5.639   0.531   5.915  0.0633  0.4420 -0.3086
14252TIP3    H164171   5.597   0.584   5.983 -1.0849  1.8734 -2.0369
14252TIP3    H264172   5.568   0.508   5.855  1.2276  0.3261 -1.7043
14253TIP3   OH264173   4.812   2.383   5.956  0.4093  0.3729  0.0824
14253TIP3    H164174   4.757   2.306   5.940  0.1848  0.2557  1.2905
14253TIP3    H264175   4.899   2.358   5.926  0.3876 -0.4543  0.6811
14254TIP3   OH264176   2.832   6.298  11.870  0.6461  0.3798 -0.3776
14254TIP3    H164177   2.818   6.392  11.882 -1.0175  0.0080  0.9384
14254TIP3    H264178   2.749   6.266  11.835  0.1396 -1.0287  1.9285
14255TIP3   OH264179   1.695   1.830  12.793  0.8035  0.0469  0.4290
14255TIP3    H164180   1.732   1.877  12.718 -1.0942  0.9279 -0.0069
14255TIP3    H264181   1.603   1.816  12.770  0.6228 -1.3207  1.8182
14256TIP3   OH264182   6.545   1.760   3.786  0.2715  1.4196  0.6712
14256TIP3    H164183   6.572   1.830   3.846 -1.2437  0.6618  2.3550
14256TIP3    H264184   6.573   1.680   3.830  2.2365  0.9057 -1.3704
14257TIP3   OH264185   4.998   3.934   1.019 -0.1146  0.0812  0.0307
14257TIP3    H164186   4.983   4.028   1.011  0.3373  0.3619  1.8817
14257TIP3    H264187   4.998   3.918   1.114 -1.2555 -1.9711 -0.2446
14258TIP3   OH264188   2.714   4.852   1.894 -0.8620  0.0025 -1.0190
14258TIP3    H164189   2.766   4.886   1.967 -2.3753  0.4311 -0.0951
14258TIP3    H264190   2.715   4.757   1.905  0.7740 -0.1082 -1.7856
14259TIP3   OH264191   3.175   3.670   1.476 -0.1342  0.3090  0.0071
14259TIP3    H164192   3.248   3.731   1.486 -1.3150  1.4634  2.5145
14259TIP3    H264193   3.146   3.652   1.566 -2.6171 -0.4800 -0.8641
14260TIP3   OH264194   1.666   5.781   1.029  0.1426  0.3338 -0.5044
14260TIP3    H164195   1.721   5.829   0.967  0.1528 -1.1837 -1.7344
14260TIP3    H264196   1.576   5.809   1.008  0.2474  0.8791 -0.2390
14261TIP3   OH264197   2.787   5.515  12.391  0.0602  0.6207 -1.0309
14261TIP3    H164198   2.711   5.572  12.404 -0.4429 -0.2269 -0.1120
14261TIP3    H264199   2.847   5.566  12.336  0.4050  2.7439  1.1864
14262TIP3   OH264200   0.417   0.192  13.626 -0.3460 -0.2627  0.3757
14262TIP3    H164201   0.504   0.174  13.661 -0.0648  0.6589  0.1573
14262TIP3    H264202   0.365   0.216  13.703 -0.6399 -1.6160  0.6245
14263TIP3   OH264203   4.095   4.957   3.786 -0.3044  0.3495 -0.5914
14263TIP3    H164204   4.079   4.985   3.696  0.1197  0.8039 -0.5262
14263TIP3    H264205   4.112   4.863   3.779  0.5286  0.5322 -1.0898
14264TIP3   OH264206   0.904   2.151   5.619  0.2318  0.3091  0.1859
14264TIP3    H164207   0.817   2.185   5.601 -0.0164  0.6842  1.9322
14264TIP3    H264208   0.909   2.069   5.569 -1.8083 -0.6354  1.4030
14265TIP3   OH264209   2.479   5.329   0.621  0.2088 -0.1869  0.7290
14265TIP3    H164210   2.443   5.244   0.596  0.7344 -0.4075  0.7010
14265TIP3    H264211   2.490   5.323   0.716 -2.1418  0.7880  1.1221
14266TIP3   OH264212   1.819   6.293  15.003  0.1725 -0.5998 -0.7027
14266TIP3    H164213   1.770   6.321  14.926 -0.4790 -0.7743 -0.3570
14266TIP3    H264214   1.780   6.342  15.076 -1.3761 -2.7128  0.0107
14267TIP3   OH264215   6.527   6.450  11.124  0.0869  1.1950 -0.1001
14267TIP3    H164216   6.551   6.391  11.197  1.2740  1.0689 -0.5718
14267TIP3    H264217   6.431   6.452  11.127  0.0646  0.3156  0.7807
14268TIP3   OH264218   5.936   4.729   6.157 -0.4232 -0.3269  0.1352
14268TIP3    H164219   5.918   4.659   6.220  0.3494 -1.2968 -0.6623
14268TIP3    H264220   5.906   4.809   6.199 -0.9381 -1.0906  1.2625
14269TIP3   OH264221   0.741   3.644   3.316  0.5790 -0.1241  0.2691
14269TIP3    H164222   0.715   3.735   3.300  0.8504 -0.0554  0.2228
14269TIP3    H264223   0.806   3.650   3.386 -0.7714 -0.4327  1.6159
14270TIP3   OH264224   5.882   4.916   5.910 -0.7789 -0.8396 -0.3762
14270TIP3    H164225   5.818   4.972   5.867 -0.4852  0.0347  0.2962
14270TIP3    H264226   5.855   4.827   5.887 -2.5067 -0.5254  0.2417
14271TIP3   OH264227   4.228   1.367  14.992 -0.2743  0.0660  0.0685
14271TIP3    H164228   4.168   1.326  14.929 -0.6989 -0.7816  1.0161
14271TIP3    H264229   4.265   1.294  15.041  1.8841  0.5349 -0.7702
14272TIP3   OH264230   4.528   4.222  14.129 -0.1138 -0.2909  0.5801
14272TIP3    H164231   4.456   4.162  14.147  0.2310 -1.1537 -0.7545
14272TIP3    H264232   4.555   4.254  14.215 -2.3367  0.3851  1.0902
14273TIP3   OH264233   1.539   4.774  14.938 -0.1195 -0.1247 -0.3988
14273TIP3    H164234   1.592   4.725  15.000  2.6379  2.0882 -0.7986
14273TIP3    H264235   1.516   4.854  14.984 -1.3792 -0.1470 -0.9540
14274TIP3   OH264236   0.584   6.309   0.640  0.0343 -0.0410  0.2073
14274TIP3    H164237   0.669   6.351   0.629 -0.0608  0.3881  1.0653
14274TIP3    H264238   0.540   6.361   0.706 -0.5820 -0.7512  0.3639
14275TIP3   OH264239   4.683   3.878   2.524  0.0676  0.7486 -0.6070
14275TIP3    H164240   4.706   3.866   2.616  1.1734  0.1145 -0.9499
14275TIP3    H264241   4.764   3.905   2.481  0.1425 -1.0578 -1.7644
14276TIP3   OH264242   4.211   5.748   5.898 -0.3206  0.4126  0.0322
14276TIP3    H164243   4.228   5.769   5.806  1.0480 -0.1239  0.1335
14276TIP3    H264244   4.291   5.705   5.927 -1.7682 -2.0319  0.6988
14277TIP3   OH264245   1.471   0.154  14.287 -0.0349  0.3229 -0.4008
14277TIP3    H164246   1.565   0.162  14.305 -0.1247 -0.0988  0.2967
14277TIP3    H264247   1.464   0.157  14.192  0.9652 -2.2041 -0.6415
14278TIP3   OH264248   5.185   0.117   4.929 -0.3705 -0.5097 -0.1803
14278TIP3    H164249   5.137   0.200   4.926  0.6141  0.0480 -0.9574
14278TIP3    H264250   5.124   0.056   4.970 -0.7870  0.8080  1.2459
14279TIP3   OH264251   1.798   5.182  15.669  0.1063  0.1724 -0.0647
14279TIP3    H164252   1.847   5.165  15.750 -0.2722 -1.2594 -0.1185
14279TIP3    H264253   1.861   5.228  15.613  1.1437 -0.9136  0.1723
14280TIP3   OH264254   1.482   6.118  15.635  0.1794 -0.1107  0.7073
14280TIP3    H164255   1.434   6.201  15.630  1.9294  0.9660  0.9599
14280TIP3    H264256   1.434   6.059  15.577 -1.5675  0.8247  1.1423
14281TIP3   OH264257   5.399   3.246  13.551 -0.1243 -0.3101  0.4462
14281TIP3    H164258   5.418   3.303  13.476  1.2021 -2.0887 -0.6512
14281TIP3    H264259   5.485   3.218  13.581 -0.7204 -0.9206  1.6234
14282TIP3   OH264260   2.049   3.097  12.228  0.0729 -0.0021 -0.2344
14282TIP3    H164261   1.973   3.040  12.238 -0.9358  1.3498 -0.0128
14282TIP3    H264262   2.050   3.151  12.306  0.8685  0.4814 -0.5589
14283TIP3   OH264263   1.106   1.707   0.566 -0.1013 -0.0132 -0.0140
14283TIP3    H164264   1.190   1.744   0.593  1.1872 -2.2657 -0.6985
14283TIP3    H264265   1.042   1.746   0.626  1.3054  2.2318  0.1363
14284TIP3   OH264266   4.787   2.474   5.405 -0.1407  0.0623 -0.2305
14284TIP3    H164267   4.800   2.379   5.398 -0.0720 -0.0258  0.8625
14284TIP3    H264268   4.857   2.512   5.354  0.3347 -0.4770  0.0092
14285TIP3   OH264269   3.680   3.657   0.129 -0.0770 -0.5937  0.2133
14285TIP3    H164270   3.688   3.650   0.034 -1.0772  1.3200 -0.0435
14285TIP3    H264271   3.681   3.566   0.159 -1.5943 -1.3473 -1.7949
14286TIP3   OH264272   0.657   2.259  11.790 -0.4902  0.0153  0.1421
14286TIP3    H164273   0.744   2.280  11.755 -1.0587  0.2911 -1.1772
14286TIP3    H264274   0.668   2.175  11.833  0.6092  0.4233  0.6938
14287TIP3   OH264275   6.455   1.850  14.484 -0.1624  0.3165  0.4546
14287TIP3    H164276   6.423   1.908  14.415 -1.5217  0.0407  0.8209
14287TIP3    H264277   6.383   1.789  14.500  0.8160 -0.7889  0.8444
14288TIP3   OH264278   4.724   4.322   3.095  0.1031  0.2768 -0.3597
14288TIP3    H164279   4.772   4.341   3.176 -0.1988 -0.3648 -0.0223
14288TIP3    H264280   4.737   4.400   3.041  0.3298  0.7065  0.2978
14289TIP3   OH264281   1.980   5.794   1.217 -0.4352  0.2591 -0.0573
14289TIP3    H164282   1.925   5.810   1.141 -0.8195 -2.2907 -0.4014
14289TIP3    H264283   2.069   5.793   1.182 -0.6393 -1.3216 -0.6120
14290TIP3   OH264284   1.415   1.574  15.140 -0.1170 -0.2999  0.0969
14290TIP3    H164285   1.460   1.512  15.197 -0.4982  0.4387  1.2208
14290TIP3    H264286   1.413   1.531  15.055  1.7090 -0.8346  0.2791
14291TIP3   OH264287   1.544   6.112  12.966  0.0939 -0.3462  0.0853
14291TIP3    H164288   1.540   6.028  12.921 -0.3991 -0.3264  0.0904
14291TIP3    H264289   1.461   6.155  12.946  0.6444  0.4720 -0.5615
14292TIP3   OH264290   0.594   0.748  11.382  0.3659 -0.5055 -0.0002
14292TIP3    H164291   0.627   0.738  11.293  1.4552 -2.8088  0.6110
14292TIP3    H264292   0.500   0.732  11.375  0.4309 -0.5644 -0.7332
14293TIP3   OH264293   5.845   6.742  13.798 -0.1587 -0.0446 -0.9671
14293TIP3    H164294   5.937   6.714  13.797  0.1782  0.8386  0.6083
14293TIP3    H264295   5.818   6.740  13.707  1.0586 -1.4735 -1.3382
14294TIP3   OH264296   1.859   2.539   5.090 -0.5261 -0.1517 -0.1510
14294TIP3    H164297   1.770   2.541   5.125 -1.3269  2.2524 -2.0338
14294TIP3    H264298   1.855   2.595   5.013  2.7170  0.3217 -0.0976
14295TIP3   OH264299   5.818   1.300  15.351  0.5734  0.3071 -0.0354
14295TIP3    H164300   5.811   1.383  15.398  0.9142  0.8950 -0.9813
14295TIP3    H264301   5.891   1.255  15.393  0.9253  0.8553 -0.0395
14296TIP3   OH264302   5.389   0.817  12.945 -0.0781  0.1071  0.2224
14296TIP3    H164303   5.403   0.889  13.006 -0.9134 -0.1807  0.7710
14296TIP3    H264304   5.372   0.859  12.861 -1.2762  0.5905  0.6813
14297TIP3   OH264305   5.961   4.184  12.154 -0.3682 -0.6380 -0.0033
14297TIP3    H164306   6.011   4.179  12.236 -0.6287 -3.8660  0.0867
14297TIP3    H264307   6.023   4.157  12.087 -0.3557  1.3191 -0.8245
14298TIP3   OH264308   3.792   1.518   3.483 -0.0872 -0.1744  0.2151
14298TIP3    H164309   3.713   1.535   3.431  1.8625 -0.0337 -2.9391
14298TIP3    H264310   3.847   1.596   3.470  1.0942 -0.7653  1.3701
14299TIP3   OH264311   4.995   3.205  11.845 -0.0173  0.1454 -0.3626
14299TIP3    H164312   5.077   3.210  11.895 -0.1789 -0.5993 -0.0188
14299TIP3    H264313   4.943   3.279  11.878  0.6111  0.7789 -0.7660
14300TIP3   OH264314   5.380   1.631  14.017  0.1583 -0.2076 -0.3044
14300TIP3    H164315   5.461   1.656  14.061  0.5393 -1.2269 -0.4061
14300TIP3    H264316   5.341   1.564  14.074 -0.1181 -0.4244 -0.7433
14301TIP3   OH264317   5.184   4.210  14.215 -0.0038 -0.2684  0.2010
14301TIP3    H164318   5.279   4.215  14.208 -0.1232  0.0191 -1.5069
14301TIP3    H264319   5.160   4.131  14.166 -0.4710 -2.0426  3.0139
14302TIP3   OH264320   6.389   4.516  16.191  0.3475 -0.1762 -0.1987
14302TIP3    H164321   6.378   4.605  16.225 -0.3169  0.7204 -2.5744
14302TIP3    H264322   6.345   4.460  16.255  2.0600  0.9661  2.1461
14303TIP3   OH264323   3.359   1.351  15.598  0.3080  0.0013  0.6022
14303TIP3    H164324   3.446   1.328  15.564  0.4269  0.9549  0.2370
14303TIP3    H264325   3.359   1.316  15.688  1.2571  0.4038  0.7731
14304TIP3   OH264326   4.509   5.935  10.461 -0.1876 -0.4737 -1.0042
14304TIP3    H164327   4.538   5.888  10.384  0.9533 -1.4463 -0.0079
14304TIP3    H264328   4.588   5.974  10.498  0.0150 -3.0561  1.6772
14305TIP3   OH264329   4.119   6.727   1.438 -0.1489  0.5590 -0.5016
14305TIP3    H164330   4.095   6.636   1.453 -0.1698  0.9164  2.2572
14305TIP3    H264331   4.185   6.724   1.369 -2.0047 -1.2327 -2.3369
14306TIP3   OH264332   1.174   2.993   2.545 -0.7307 -0.1071  0.0599
14306TIP3    H164333   1.116   2.934   2.593 -1.3680  1.5241  1.3764
14306TIP3    H264334   1.249   2.938   2.520 -0.4130 -1.0961  2.8308
14307TIP3   OH264335   2.156   3.422  12.977  0.1878  0.0372  0.7391
14307TIP3    H164336   2.200   3.433  12.892  0.6477 -1.2673  0.7880
14307TIP3    H264337   2.074   3.377  12.955  0.1483  0.0094  0.9442
14308TIP3   OH264338   0.871   6.442   1.599 -0.4089 -0.6858  0.3000
14308TIP3    H164339   0.923   6.406   1.671  0.2176 -0.3526  0.0136
14308TIP3    H264340   0.787   6.395   1.605  0.0863 -1.5747  0.4593
14309TIP3   OH264341   4.098   3.761   1.144  0.1471  0.4686  0.1490
14309TIP3    H164342   4.168   3.825   1.152 -0.5835  1.2040  0.7052
14309TIP3    H264343   4.017   3.811   1.154 -0.4467 -0.4929  0.3075
14310TIP3   OH264344   5.719   1.001   5.792 -0.9180  0.3722 -0.0822
14310TIP3    H164345   5.728   0.964   5.880 -1.4488  1.8302  0.6145
14310TIP3    H264346   5.776   1.078   5.792 -1.7206  0.9818 -0.6667
14311TIP3   OH264347   3.057   1.532   4.852  0.2941  0.4054 -0.2316
14311TIP3    H164348   2.962   1.524   4.860  0.4159  0.3280  1.5006
14311TIP3    H264349   3.074   1.520   4.758 -1.2176 -1.5936 -0.3250
14312TIP3   OH264350   3.186   5.532  15.922  0.5033  0.2705 -0.2495
14312TIP3    H164351   3.178   5.501  16.013  4.2476  0.0660  0.1448
14312TIP3    H264352   3.163   5.455  15.869  0.4164 -0.2657  0.5452
14313TIP3   OH264353   5.685   4.532   3.347  0.1353  0.5344 -0.0283
14313TIP3    H164354   5.682   4.489   3.262  2.2373 -1.7464  0.9426
14313TIP3    H264355   5.773   4.570   3.351 -0.5487  2.1602  0.4872
14314TIP3   OH264356   5.261   0.556   5.349  0.1734  0.1343  0.3950
14314TIP3    H164357   5.334   0.503   5.379 -0.7630  0.5440  3.8079
14314TIP3    H264358   5.236   0.518   5.265  1.9148 -2.3883  0.9251
14315TIP3   OH264359   0.777   0.208  11.149 -0.5069  0.4494 -0.1186
14315TIP3    H164360   0.751   0.298  11.169  1.6749  1.3327 -0.8847
14315TIP3    H264361   0.704   0.173  11.098 -1.9249  1.3585  1.2015
14316TIP3   OH264362   3.519   0.047  10.338 -0.1213 -0.3505  0.4294
14316TIP3    H164363   3.555  -0.036  10.308 -0.8419 -0.9926  1.2965
14316TIP3    H264364   3.595   0.096  10.369  0.1290 -1.3405  1.4313
14317TIP3   OH264365   2.867   0.436  16.298  0.3647 -0.0473 -0.3706
14317TIP3    H164366   2.906   0.349  16.291  1.7277  0.4555  0.6257
14317TIP3    H264367   2.890   0.466  16.386 -0.1856  1.2779 -0.6509
14318TIP3   OH264368   1.748   4.331  13.642  0.4645  0.1919  0.3454
14318TIP3    H164369   1.779   4.404  13.695 -0.1195  0.7575 -0.0711
14318TIP3    H264370   1.804   4.331  13.565  0.1482  0.5310  0.1076
14319TIP3   OH264371   1.565   1.913   1.926  0.5638  0.1393 -0.3629
14319TIP3    H164372   1.654   1.920   1.961  0.3677  0.8585  0.0364
14319TIP3    H264373   1.509   1.939   2.000  0.0968  0.9523 -0.9836
14320TIP3   OH264374   0.123   5.438  11.453 -0.8532 -0.5486 -0.0939
14320TIP3    H164375   0.103   5.490  11.531  0.5940  0.8166 -0.5855
14320TIP3    H264376   0.039   5.429  11.408 -1.4581 -0.1865  0.9245
14321TIP3   OH264377   3.078   6.270  13.838 -0.3082 -0.5359 -0.2262
14321TIP3    H164378   3.039   6.299  13.755 -0.5715 -0.1208  0.0389
14321TIP3    H264379   3.003   6.245  13.892 -0.1611 -0.4594  0.0140
14322TIP3   OH264380   6.486   6.581  12.034  0.5380  0.3819 -0.4895
14322TIP3    H164381   6.500   6.608  12.125  1.2459 -0.1504 -0.4370
14322TIP3    H264382   6.392   6.562  12.029  0.4527  0.6295  0.0663
14323TIP3   OH264383   1.416   4.048  10.761  0.0154  0.4092 -0.1500
14323TIP3    H164384   1.339   4.105  10.773  0.6080  1.1808  0.1014
14323TIP3    H264385   1.451   4.074  10.676  0.1054  0.1894 -0.1786
14324TIP3   OH264386   5.505   3.510  10.486 -0.6781 -0.0964 -0.1814
14324TIP3    H164387   5.600   3.512  10.478 -0.5930 -0.5992  0.5661
14324TIP3    H264388   5.475   3.461  10.410 -0.2507 -0.8765  0.1410
14325TIP3   OH264389   4.315   5.288   2.364  0.7011 -0.2055 -0.0750
14325TIP3    H164390   4.384   5.258   2.423  0.5376 -1.7239 -0.5955
14325TIP3    H264391   4.327   5.235   2.285 -0.2328  0.4556 -0.6836
14326TIP3   OH264392   6.488   5.077   5.834 -0.1177 -1.0034 -0.0305
14326TIP3    H164393   6.473   5.157   5.885  1.4202 -0.9908  0.4410
14326TIP3    H264394   6.439   5.010   5.880 -1.6167 -0.3113 -0.5565
14327TIP3   OH264395   2.191   6.091   3.626 -0.1243  0.1079  0.1297
14327TIP3    H164396   2.110   6.098   3.577  0.2630  0.9279 -0.4082
14327TIP3    H264397   2.253   6.051   3.565 -0.3943 -1.5694  0.8890
14328TIP3   OH264398   2.076   2.129  16.538  0.7575 -0.0002  0.0224
14328TIP3    H164399   2.070   2.112  16.632 -0.7499  1.7540  0.3006
14328TIP3    H264400   2.019   2.063  16.498 -0.4535  0.6881  0.5652
14329TIP3   OH264401   2.688   2.401   2.630  0.4094 -0.3373  0.1295
14329TIP3    H164402   2.763   2.449   2.667  0.5521  0.0994 -0.7083
14329TIP3    H264403   2.721   2.313   2.614  1.3474  0.3555 -2.0296
14330TIP3   OH264404   0.215   5.368   0.088  0.0925 -0.3584  0.3094
14330TIP3    H164405   0.163   5.333   0.160 -0.7914  1.2718  0.5022
14330TIP3    H264406   0.273   5.432   0.129 -1.0071  1.2054 -0.4985
14331TIP3   OH264407   4.832   0.727  16.046  0.6215  0.0162 -0.7111
14331TIP3    H164408   4.834   0.641  16.003  0.0776 -0.8010  0.8486
14331TIP3    H264409   4.853   0.709  16.137 -0.5046  1.4119 -0.1446
14332TIP3   OH264410   6.668   0.579   3.822  0.1463  0.3571  0.3382
14332TIP3    H164411   6.602   0.518   3.854 -0.0232 -0.4973 -1.4871
14332TIP3    H264412   6.749   0.528   3.819  0.2220  0.5004 -0.2562
14333TIP3   OH264413   1.282   6.582  16.338  0.1513  0.2712  0.0555
14333TIP3    H164414   1.355   6.634  16.372  0.9854 -0.6221 -0.2957
14333TIP3    H264415   1.278   6.605  16.245  0.2832 -0.0158 -0.0211
14334TIP3   OH264416   4.088   0.653   0.275  0.2672  0.2716 -0.4045
14334TIP3    H164417   4.129   0.576   0.316 -1.6928 -0.8658 -0.4196
14334TIP3    H264418   4.080   0.628   0.183  0.9070  1.1152 -0.6966
14335TIP3   OH264419   5.779   4.316  10.789 -0.3264 -0.2605  0.1907
14335TIP3    H164420   5.770   4.221  10.790  0.4728 -0.3877  2.2561
14335TIP3    H264421   5.872   4.331  10.808 -0.6053  0.9174  0.7418
14336TIP3   OH264422   6.750   2.962  16.670 -0.1920 -0.1970  0.6461
14336TIP3    H164423   6.834   2.927  16.699  0.6896  1.1604 -0.1449
14336TIP3    H264424   6.752   3.055  16.693 -0.4853  0.3790 -1.4002
14337TIP3   OH264425   0.157   4.594   4.000 -0.1591  0.0914  0.3462
14337TIP3    H164426   0.126   4.551   4.080  1.0826  0.1136  0.8610
14337TIP3    H264427   0.252   4.578   3.999  0.0056  0.9998 -0.5692
14338TIP3   OH264428   5.182   5.074   4.838  0.0335  0.6306  0.2375
14338TIP3    H164429   5.228   5.077   4.754 -1.1534  0.2984 -0.4502
14338TIP3    H264430   5.104   5.127   4.825 -0.1107  0.6689  1.1732
14339TIP3   OH264431   1.324   5.812   3.970 -0.3254 -0.3891 -0.7708
14339TIP3    H164432   1.336   5.827   3.876 -1.5471 -0.7508 -0.9944
14339TIP3    H264433   1.381   5.738   3.990 -0.3749 -0.5802 -1.3137
14340TIP3   OH264434   6.332   6.104   4.673 -0.1886  0.1516 -0.3557
14340TIP3    H164435   6.284   6.057   4.605 -1.0020  0.2972  0.1124
14340TIP3    H264436   6.321   6.051   4.752  1.1131 -0.2471 -0.4088
14341TIP3   OH264437   6.363   0.159   0.992 -0.0677  0.4759  0.6083
14341TIP3    H164438   6.334   0.179   0.903 -0.0703 -0.8546  0.2957
14341TIP3    H264439   6.300   0.095   1.025  0.6990 -0.0633  1.0741
14342TIP3   OH264440   2.244   3.414  13.640  0.8062 -0.4418 -0.1402
14342TIP3    H164441   2.265   3.322  13.658  1.4989 -0.4154 -0.7907
14342TIP3    H264442   2.196   3.413  13.557  1.8535 -0.1195 -0.7712
14343TIP3   OH264443   2.097   2.577   4.828  0.4142 -0.1973 -0.3013
14343TIP3    H164444   2.017   2.629   4.823 -0.1817 -1.1765 -1.3231
14343TIP3    H264445   2.167   2.640   4.809 -0.0269  0.7850  1.1223
14344TIP3   OH264446   1.784   4.132  14.262 -0.4018  0.0535 -0.2182
14344TIP3    H164447   1.810   4.133  14.170  0.2780 -1.3239 -0.0615
14344TIP3    H264448   1.765   4.223  14.282  1.0821  0.6323 -1.2638
14345TIP3   OH264449   4.124   6.262   5.527 -0.4439  0.3475  0.0960
14345TIP3    H164450   4.209   6.301   5.505 -0.5381  0.0108 -0.8923
14345TIP3    H264451   4.081   6.327   5.582  1.2258 -0.2534  2.2963
14346TIP3   OH264452   6.197   6.073   0.368 -0.1464 -0.0944 -0.3018
14346TIP3    H164453   6.252   5.998   0.392 -2.2033 -1.5933  0.0176
14346TIP3    H264454   6.216   6.139   0.434 -0.1259 -1.3059  0.9479
14347TIP3   OH264455   6.279   3.241   0.296  0.2370 -0.1522 -0.2052
14347TIP3    H164456   6.248   3.318   0.343  2.6349  0.2542  0.9076
14347TIP3    H264457   6.270   3.170   0.359 -1.6419 -0.7819 -1.1105
14348TIP3   OH264458   5.623   1.254  13.752  0.3976  0.6153 -0.0678
14348TIP3    H164459   5.588   1.322  13.809 -0.7550 -1.2157  1.5235
14348TIP3    H264460   5.690   1.211  13.806  0.8904  0.2768 -0.9357
14349TIP3   OH264461   0.950   5.551   3.599  0.0691 -0.0826  0.4264
14349TIP3    H164462   1.016   5.574   3.533  0.7260 -2.6908  0.0558
14349TIP3    H264463   0.986   5.583   3.681  1.7507 -1.2142  0.1878
14350TIP3   OH264464   4.721   6.473  16.966 -0.2031 -0.0514  0.5964
14350TIP3    H164465   4.719   6.388  17.009  1.1467  0.0528  0.9107
14350TIP3    H264466   4.677   6.532  17.027 -0.1976 -0.3234  0.8649
14351TIP3   OH264467   2.817   4.240   1.981 -0.0741  0.2648  0.1660
14351TIP3    H164468   2.847   4.325   2.012  2.6780 -0.5342 -0.0032
14351TIP3    H264469   2.841   4.238   1.889 -0.9452 -0.3777 -0.0622
14352TIP3   OH264470   2.805   5.419   0.723  0.6912 -0.8200  0.1167
14352TIP3    H164471   2.871   5.353   0.742 -0.0307 -0.9883  2.2550
14352TIP3    H264472   2.727   5.390   0.771  0.0049  0.9775  0.1552
14353TIP3   OH264473   3.675   3.812  11.225  0.2417  0.0542 -0.4151
14353TIP3    H164474   3.644   3.836  11.312 -0.8360 -0.4570 -0.6528
14353TIP3    H264475   3.598   3.818  11.169  0.6648 -0.7828 -1.1038
14354TIP3   OH264476   2.525   4.464   3.962 -0.0623 -0.1309 -0.2336
14354TIP3    H164477   2.469   4.510   3.900 -1.1657 -2.4286 -1.0743
14354TIP3    H264478   2.597   4.524   3.979 -0.9908  1.5313 -1.8483
14355TIP3   OH264479   0.726   0.336   2.879 -0.1952 -0.0729 -0.1116
14355TIP3    H164480   0.778   0.401   2.926 -0.2036 -0.2531  0.1476
14355TIP3    H264481   0.758   0.342   2.788  0.5033 -0.3912  0.0997
14356TIP3   OH264482   2.561   5.613  15.275  0.0236 -0.0144  0.0005
14356TIP3    H164483   2.534   5.703  15.260  0.4248  0.3547  1.4394
14356TIP3    H264484   2.636   5.619  15.333 -0.7570 -1.3175  1.2111
14357TIP3   OH264485   4.999   4.268  14.003  0.7509 -0.6643  0.0964
14357TIP3    H164486   4.943   4.336  14.041  2.5068  2.3266 -2.2206
14357TIP3    H264487   5.061   4.246  14.072  1.7842  2.1186  0.1638
14358TIP3   OH264488   1.326   5.846   3.687  0.3292  0.7434 -0.2620
14358TIP3    H164489   1.417   5.817   3.683  1.5382  3.7719  1.6667
14358TIP3    H264490   1.315   5.900   3.608  1.1694  2.5365  0.7747
14359TIP3   OH264491   3.083   0.245   3.438  0.1051 -0.4895  0.0715
14359TIP3    H164492   3.083   0.254   3.533  1.2655 -0.6444  0.1065
14359TIP3    H264493   3.053   0.155   3.423  0.3975 -0.6348  0.3248
14360TIP3   OH264494   5.117   0.973  11.467  0.2187 -0.7296  0.3028
14360TIP3    H164495   5.206   0.999  11.443  0.2974 -1.2219  0.0552
14360TIP3    H264496   5.119   0.877  11.468 -0.2673 -0.7418  0.4561
14361TIP3   OH264497   4.171   6.257  10.369 -0.1929 -0.3970 -0.2282
14361TIP3    H164498   4.224   6.325  10.328 -1.1948  0.1086 -0.7064
14361TIP3    H264499   4.217   6.237  10.451  0.4738  0.3665 -0.4038
14362TIP3   OH264500   6.748   6.182   4.220  0.3348  0.1535  0.0872
14362TIP3    H164501   6.749   6.237   4.299  1.3270  1.2798 -0.6718
14362TIP3    H264502   6.659   6.190   4.187  0.0389  0.0484  0.8392
14363TIP3   OH264503   1.789   5.701  14.208  0.5382  0.0599  0.1246
14363TIP3    H164504   1.772   5.741  14.123 -1.6298 -0.1164  0.4153
14363TIP3    H264505   1.737   5.753  14.269 -0.2677 -1.5864  0.8974
14364TIP3   OH264506   2.070   1.101  16.187  0.0722  0.0103  0.6346
14364TIP3    H164507   1.990   1.146  16.214  0.1307  0.1859  0.5235
14364TIP3    H264508   2.101   1.153  16.112  0.3958  0.0615  0.8034
14365TIP3   OH264509   0.486   5.650   4.765 -0.1394  0.3132  0.0336
14365TIP3    H164510   0.414   5.597   4.731 -0.6418  1.2157 -0.3639
14365TIP3    H264511   0.475   5.735   4.723 -0.2259  1.1973  1.7356
14366TIP3   OH264512   3.407   1.574   1.119 -0.3919  0.9384  0.3599
14366TIP3    H164513   3.481   1.560   1.179 -0.6595  1.3929  0.8048
14366TIP3    H264514   3.361   1.490   1.117 -0.7939  1.1135  1.3670
14367TIP3   OH264515   0.656   4.866  13.777  0.4569  0.1055 -0.6019
14367TIP3    H164516   0.707   4.813  13.839 -0.3136 -0.4051 -0.3893
14367TIP3    H264517   0.629   4.804  13.709 -0.0517  0.3131 -0.5967
14368TIP3   OH264518   3.135   4.851  13.143 -1.0417  0.1117  0.3971
14368TIP3    H164519   3.189   4.773  13.155 -1.6607 -0.6254 -1.2455
14368TIP3    H264520   3.071   4.848  13.214  0.9098  0.9222  2.2839
14369TIP3   OH264521   1.096   4.677   5.997  0.2080  0.2095  0.1325
14369TIP3    H164522   1.027   4.632   6.045  0.9782  0.5853  1.6804
14369TIP3    H264523   1.172   4.674   6.056  1.1983  0.7496 -1.0569
14370TIP3   OH264524   5.663   3.605  11.707  0.1288 -0.2528  0.4398
14370TIP3    H164525   5.667   3.700  11.692 -1.5553 -0.4060 -1.2939
14370TIP3    H264526   5.727   3.568  11.646 -1.1668 -0.3696 -0.8960
14371TIP3   OH264527   4.808   2.248   4.253  0.3413  0.2322 -0.4022
14371TIP3    H164528   4.891   2.215   4.287  0.0946  0.1385  0.1099
14371TIP3    H264529   4.744   2.179   4.273  0.3559 -0.2466 -1.8769
14372TIP3   OH264530   6.710   1.430   2.392 -0.2671 -0.5672  0.1795
14372TIP3    H164531   6.662   1.410   2.473 -0.9183 -1.4868 -0.4173
14372TIP3    H264532   6.688   1.358   2.333  0.7233 -0.2428 -0.5999
14373TIP3   OH264533   5.996   3.730  16.671  0.0485 -0.0650  0.2122
14373TIP3    H164534   5.962   3.706  16.757  0.2118 -1.3839 -0.0770
14373TIP3    H264535   5.942   3.681  16.610  1.3910 -0.9006 -0.3294
14374TIP3   OH264536   1.844   4.086  16.769 -0.1865 -0.2642 -0.5819
14374TIP3    H164537   1.860   4.002  16.726 -1.5831 -1.1856  0.6060
14374TIP3    H264538   1.790   4.135  16.708 -1.3956 -1.2030 -0.2941
14375TIP3   OH264539   3.179   5.501   3.078 -0.5259 -0.6579  0.2376
14375TIP3    H164540   3.129   5.530   3.002  0.1772  0.2477  0.0970
14375TIP3    H264541   3.130   5.535   3.153  0.4305  1.2367  0.0699
14376TIP3   OH264542   1.331   3.083   0.398 -0.1922  0.0279  0.6010
14376TIP3    H164543   1.327   3.143   0.473 -0.7192  0.9060 -0.1000
14376TIP3    H264544   1.274   3.010   0.424 -1.8443  1.1652  0.3757
14377TIP3   OH264545   0.705   0.923  17.146  0.6967 -0.3737 -0.3744
14377TIP3    H164546   0.749   0.948  17.227  0.8966  1.6563 -1.0417
14377TIP3    H264547   0.616   0.957  17.155  0.7385 -0.0756 -1.0094
14378TIP3   OH264548   2.996   3.824   0.084  0.1921  0.2022  0.5887
14378TIP3    H164549   2.988   3.798  -0.008 -0.2153 -0.3196  0.7649
14378TIP3    H264550   2.987   3.742   0.133  1.2750  0.3557  1.0659
14379TIP3   OH264551   3.110   4.236  16.187  0.5076 -0.9115  0.0174
14379TIP3    H164552   3.175   4.220  16.255  0.8244 -1.5246 -0.4165
14379TIP3    H264553   3.152   4.301  16.129  0.2115 -0.3398  0.4318
14380TIP3   OH264554   3.309   0.192   5.200 -0.1839  0.2257 -0.2827
14380TIP3    H164555   3.248   0.260   5.232  0.3034  0.3429  0.4122
14380TIP3    H264556   3.387   0.241   5.175  0.2088 -0.0820  0.3195
14381TIP3   OH264557   5.144   1.244   4.625  0.3607 -0.0325  0.1694
14381TIP3    H164558   5.080   1.312   4.603  0.3920 -0.1699 -0.3411
14381TIP3    H264559   5.225   1.292   4.641  0.1369  0.1422  0.8172
14382TIP3   OH264560   6.181   5.322  16.299 -0.2164  0.3886  0.5022
14382TIP3    H164561   6.108   5.362  16.251 -0.1987 -1.5720 -1.2980
14382TIP3    H264562   6.258   5.339  16.244  0.4147  0.9383  1.5206
14383TIP3   OH264563   1.880   1.874  15.148  0.6097 -0.0417  0.4281
14383TIP3    H164564   1.930   1.849  15.070  0.1456 -2.4967  0.8332
14383TIP3    H264565   1.794   1.899  15.114 -0.3452 -3.2031  0.1658
14384TIP3   OH264566   5.141   1.132   5.772 -0.7982 -0.3846 -0.2159
14384TIP3    H164567   5.105   1.189   5.704  1.0025  0.2086 -0.7481
14384TIP3    H264568   5.225   1.174   5.795 -0.2692 -1.8692  0.6551
14385TIP3   OH264569   5.634   1.426  15.703 -0.2777 -0.7807  0.0759
14385TIP3    H164570   5.679   1.343  15.683  0.7308 -0.5001  1.1088
14385TIP3    H264571   5.704   1.484  15.734 -1.4751 -0.6914  2.8601
14386TIP3   OH264572   0.444   5.738  16.411 -0.3499 -0.4084 -0.3819
14386TIP3    H164573   0.351   5.754  16.426 -0.6318 -1.1458 -1.2208
14386TIP3    H264574   0.481   5.728  16.499 -1.0667 -0.1347 -0.0415
14387TIP3   OH264575   2.822   5.448   4.194  0.1476  0.2215  0.2693
14387TIP3    H164576   2.832   5.486   4.107 -0.9977  1.5163  0.6609
14387TIP3    H264577   2.736   5.479   4.224  0.8387  0.4495  2.1658
14388TIP3   OH264578   1.629   3.858   1.628 -0.8885  0.0872  0.3859
14388TIP3    H164579   1.714   3.847   1.670 -1.5470  1.6828  2.3003
14388TIP3    H264580   1.603   3.769   1.603  1.1332 -0.4743  0.0830
14389TIP3   OH264581   1.338   2.150  12.944  0.3073  0.3453  0.0770
14389TIP3    H164582   1.384   2.166  12.861  1.6917 -0.6883  0.5920
14389TIP3    H264583   1.279   2.077  12.925 -0.0918  0.7446 -0.2335
14390TIP3   OH264584   2.882   4.970  11.236 -0.2484  0.1082 -0.7828
14390TIP3    H164585   2.816   4.998  11.173 -0.7811  1.6220  0.4001
14390TIP3    H264586   2.851   5.004  11.320  0.5380 -1.6858  0.2879
14391TIP3   OH264587   4.173   0.664   4.521 -0.9761  0.1572 -0.5788
14391TIP3    H164588   4.220   0.681   4.440 -0.0582 -1.5456 -0.4520
14391TIP3    H264589   4.224   0.709   4.589  0.5036 -1.5599 -0.4606
14392TIP3   OH264590   2.700   0.774  14.545  0.2189 -0.2351  0.1404
14392TIP3    H164591   2.701   0.831  14.622  0.9535  0.7228 -0.5440
14392TIP3    H264592   2.665   0.830  14.475  0.4733 -0.7888 -0.4349
14393TIP3   OH264593   1.177   3.040   4.428 -0.4111 -0.2519 -0.6233
14393TIP3    H164594   1.140   3.109   4.483  0.1123 -0.1940 -0.3386
14393TIP3    H264595   1.267   3.069   4.411 -0.5212 -0.3479 -1.3783
14394TIP3   OH264596   3.832   2.210   0.144  0.3501 -0.1542  0.1970
14394TIP3    H164597   3.784   2.279   0.097 -1.3141 -0.3661  1.4668
14394TIP3    H264598   3.909   2.254   0.179  0.4746  0.5197 -0.8751
14395TIP3   OH264599   1.438   0.596   1.571 -0.6632 -0.3838  0.0348
14395TIP3    H164600   1.417   0.575   1.480 -1.1861 -0.0449  0.0671
14395TIP3    H264601   1.358   0.574   1.619 -0.1767 -1.1425  0.5065
14396TIP3   OH264602   5.897   2.670  15.233 -0.3315  0.4176 -0.7398
14396TIP3    H164603   5.939   2.624  15.305 -2.9154  1.1812  1.4021
14396TIP3    H264604   5.964   2.729  15.198  0.8351  0.4250  1.3916
14397TIP3   OH264605   2.173   4.279   0.412  0.3643 -0.3551 -0.8914
14397TIP3    H164606   2.238   4.257   0.345  2.2464 -1.3191  1.1410
14397TIP3    H264607   2.199   4.366   0.442  0.4562 -0.5578 -0.3819
14398TIP3   OH264608   5.517   0.953  17.041  0.4987  0.0789 -0.3366
14398TIP3    H164609   5.490   0.862  17.057 -0.9913  0.5568  0.0729
14398TIP3    H264610   5.566   0.978  17.119 -0.2812  0.0363  0.1838
14399TIP3   OH264611   0.166   0.180  11.934 -0.4322 -0.5346 -0.0718
14399TIP3    H164612   0.199   0.121  12.001 -0.5509 -0.9638 -0.3901
14399TIP3    H264613   0.147   0.261  11.981  3.2289  0.5865 -0.1901
14400TIP3   OH264614   3.888   0.752   1.511 -0.7587 -0.0564 -0.1048
14400TIP3    H164615   3.872   0.713   1.596  0.7181 -1.4674 -0.4161
14400TIP3    H264616   3.922   0.840   1.530 -1.3738  0.0046  0.7167
14401TIP3   OH264617   4.201   2.370   0.702 -0.1665  0.1260 -0.3157
14401TIP3    H164618   4.162   2.429   0.637  1.0123  1.6489  0.3162
14401TIP3    H264619   4.284   2.343   0.663 -0.0463  0.0056  0.0237
14402TIP3   OH264620   2.906   4.366   0.469  0.6478 -0.3520 -0.9212
14402TIP3    H164621   2.944   4.447   0.502  0.7725 -0.4714 -0.7704
14402TIP3    H264622   2.902   4.309   0.546  0.2349 -0.3672 -0.9494
14403TIP3   OH264623   5.128   5.498   1.813  0.2359 -0.0004 -0.4320
14403TIP3    H164624   5.110   5.427   1.752  1.3444 -0.3426 -0.3730
14403TIP3    H264625   5.222   5.512   1.807  0.0850  1.2821 -0.2383
14404TIP3   OH264626   1.794   6.339   4.284  0.1645 -0.1618  0.1921
14404TIP3    H164627   1.778   6.263   4.341  1.6084 -0.2989  0.4371
14404TIP3    H264628   1.870   6.315   4.232  1.0591  1.3634  0.7275
14405TIP3   OH264629   0.201   3.002  14.048  0.2958 -0.4432 -0.3187
14405TIP3    H164630   0.120   3.049  14.066 -0.9170 -2.2586 -0.7125
14405TIP3    H264631   0.231   3.036  13.964 -1.2115 -1.1340 -1.1954
14406TIP3   OH264632   0.838   4.823  16.645 -0.1099 -0.3035 -0.0449
14406TIP3    H164633   0.784   4.900  16.626 -1.8945 -1.5834 -0.5051
14406TIP3    H264634   0.919   4.858  16.681 -1.4226  1.7233  1.1380
14407TIP3   OH264635   5.700   4.495  10.969  0.2247 -0.3764 -0.1020
14407TIP3    H164636   5.792   4.519  10.982  0.3594 -0.4100 -0.9262
14407TIP3    H264637   5.702   4.409  10.928 -0.1151  0.2295 -1.4483
14408TIP3   OH264638   2.116   0.480   0.466 -0.5324 -0.0537  0.5216
14408TIP3    H164639   2.042   0.435   0.425  0.8885 -2.2706  0.2294
14408TIP3    H264640   2.152   0.535   0.397 -2.3567  1.7672  0.9090
14409TIP3   OH264641   6.695   4.315  14.312  0.1259  0.2698 -0.3554
14409TIP3    H164642   6.609   4.273  14.300 -0.3846  0.6195  1.7076
14409TIP3    H264643   6.692   4.391  14.255 -0.6936 -0.0528 -0.7679
14410TIP3   OH264644   3.576   6.176   5.559  0.2373  0.3659 -0.8412
14410TIP3    H164645   3.607   6.233   5.490  1.1436 -0.7042 -1.3466
14410TIP3    H264646   3.541   6.099   5.513  3.1683 -1.5384 -0.1519
14411TIP3   OH264647   6.711   4.909   1.374  0.2410  0.1701  0.2856
14411TIP3    H164648   6.761   4.834   1.408  0.6616 -0.0095 -0.7089
14411TIP3    H264649   6.751   4.927   1.289 -0.8681  0.5520 -0.1596
14412TIP3   OH264650   3.896   2.915   1.028  0.2790 -0.4998  0.6137
14412TIP3    H164651   3.930   3.005   1.020  0.1965 -0.2417  2.5841
14412TIP3    H264652   3.965   2.860   0.992  0.2421  0.3390 -0.8288
14413TIP3   OH264653   0.677   2.946  16.771  0.6271 -0.5167 -0.2856
14413TIP3    H164654   0.674   3.026  16.718 -0.1439 -1.1050 -1.1659
14413TIP3    H264655   0.769   2.937  16.795  0.4734  1.6392  1.4440
14414TIP3   OH264656   0.409   2.914   3.818  0.2338  0.0303  0.3941
14414TIP3    H164657   0.490   2.866   3.836 -0.0931 -0.9861 -0.7555
14414TIP3    H264658   0.339   2.856   3.848 -0.1910 -0.4798 -1.4530
14415TIP3   OH264659   4.192   5.743   1.364 -0.3555  0.0016  0.2064
14415TIP3    H164660   4.240   5.665   1.393 -1.4925 -1.2913 -1.2104
14415TIP3    H264661   4.154   5.779   1.444 -2.0310 -2.4894  0.6453
14416TIP3   OH264662   3.212   1.291  14.076  0.0503 -0.4310 -0.5838
14416TIP3    H164663   3.168   1.250  14.002  0.3191 -0.5069 -0.6992
14416TIP3    H264664   3.146   1.290  14.146 -0.9433  1.5225 -1.4115
14417TIP3   OH264665   3.174   2.729  12.895 -0.1164  0.3682 -0.3871
14417TIP3    H164666   3.257   2.711  12.940 -0.0745  1.5810  0.0369
14417TIP3    H264667   3.107   2.694  12.954  0.0153  0.7500 -0.0076
14418TIP3   OH264668   4.581   3.257  16.557  0.3260  0.0042  0.5800
14418TIP3    H164669   4.656   3.202  16.534  0.6009  0.0798  1.2658
14418TIP3    H264670   4.618   3.345  16.569  0.1653  0.0057  1.0973
14419TIP3   OH264671   4.653   5.933  15.399  0.0393 -0.1481 -0.3529
14419TIP3    H164672   4.585   5.925  15.466  1.8815 -3.4351  1.4075
14419TIP3    H264673   4.672   6.027  15.395 -3.7678  0.7761 -0.2308
14420TIP3   OH264674   1.398   3.334   5.107  0.5672 -0.2832  0.4799
14420TIP3    H164675   1.475   3.301   5.061  0.7272 -0.0348  0.5715
14420TIP3    H264676   1.332   3.265   5.095  0.8012 -0.4940  0.4009
14421TIP3   OH264677   0.208   6.625  16.472 -0.4174  0.4975  0.1570
14421TIP3    H164678   0.215   6.720  16.483 -0.4608  0.3244  1.8647
14421TIP3    H264679   0.162   6.595  16.550  0.8882 -1.0867  0.3779
14422TIP3   OH264680   1.112   0.734  14.356  0.9185 -0.3720 -0.5049
14422TIP3    H164681   1.069   0.659  14.314 -0.4814 -1.1703  2.0978
14422TIP3    H264682   1.184   0.694  14.406 -0.1664 -0.1304  1.3336
14423TIP3   OH264683   6.080   3.866   5.386 -0.0207  0.5962  0.3065
14423TIP3    H164684   6.044   3.917   5.314  0.3476 -0.9888 -1.0502
14423TIP3    H264685   6.003   3.843   5.439 -0.4367  0.8716 -0.1663
14424TIP3   OH264686   2.808   2.311   3.885 -0.4862  0.0086 -1.0767
14424TIP3    H164687   2.747   2.292   3.814 -0.6086 -2.9684 -0.3130
14424TIP3    H264688   2.755   2.305   3.965 -0.3441  3.2512 -0.5779
14425TIP3   OH264689   3.782   2.685  16.893  0.2193  0.5933 -0.0058
14425TIP3    H164690   3.758   2.744  16.822  1.3014  1.0311 -0.0293
14425TIP3    H264691   3.710   2.623  16.899  0.3655  0.1946 -1.8726
14426TIP3   OH264692   5.205   0.723  11.988  0.1444 -0.4578  0.0663
14426TIP3    H164693   5.187   0.804  11.940  1.0725 -0.3900 -0.1746
14426TIP3    H264694   5.179   0.654  11.927 -1.7958 -0.3612  0.7184
14427TIP3   OH264695   6.570   4.231  13.095  0.6227  0.3295  0.2397
14427TIP3    H164696   6.643   4.275  13.052  0.4012 -0.3322 -0.8782
14427TIP3    H264697   6.596   4.139  13.098  0.2267  0.2303  0.6821
14428TIP3   OH264698   5.593   3.921  16.424  0.2027 -0.1850  0.0467
14428TIP3    H164699   5.684   3.894  16.434  1.0467  2.9065  2.2407
14428TIP3    H264700   5.587   3.948  16.332  1.2828 -1.0902 -0.3178
14429TIP3   OH264701   3.784   0.476  13.331 -0.3947 -0.4657 -0.3740
14429TIP3    H164702   3.789   0.384  13.305 -0.1988 -0.3135 -0.8883
14429TIP3    H264703   3.872   0.511  13.314 -0.4331 -0.2133 -0.0658
14430TIP3   OH264704   4.407   4.096  13.088 -0.2085  0.2345 -0.3527
14430TIP3    H164705   4.350   4.147  13.029 -2.0688 -0.1575  1.0083
14430TIP3    H264706   4.478   4.065  13.032 -0.3346  2.2810 -1.7426
14431TIP3   OH264707   4.510   2.821  16.885  0.2736 -0.0399  0.4714
14431TIP3    H164708   4.452   2.763  16.836  0.4017 -0.1858  0.4917
14431TIP3    H264709   4.594   2.816  16.838 -0.0235  1.0327 -0.2242
14432TIP3   OH264710   2.578   6.299  12.736  0.7609 -0.0995 -0.3152
14432TIP3    H164711   2.543   6.211  12.722 -0.3497 -0.0056  1.5826
14432TIP3    H264712   2.517   6.357  12.691  1.0914 -0.2240 -0.9431
14433TIP3   OH264713   0.201   2.655  16.231  0.5610  0.0367  0.5522
14433TIP3    H164714   0.178   2.579  16.179 -0.7901  0.3907  0.5711
14433TIP3    H264715   0.174   2.632  16.320  1.4484  0.0041  0.8150
14434TIP3   OH264716   4.159   2.802  10.959  0.4282  0.5703 -0.1804
14434TIP3    H164717   4.196   2.801  11.047 -0.0358 -1.9897  0.0586
14434TIP3    H264718   4.225   2.757  10.905 -0.8304 -1.1613 -0.3672
14435TIP3   OH264719   3.278   3.155   1.942 -0.1663 -0.4147 -0.4014
14435TIP3    H164720   3.229   3.154   1.859 -1.6299 -2.8511  0.3735
14435TIP3    H264721   3.331   3.075   1.938 -0.6651 -0.8620  1.1841
14436TIP3   OH264722   5.842   4.520   5.674  0.6683  0.2691 -0.2418
14436TIP3    H164723   5.758   4.492   5.639  0.6018 -0.6021  0.5931
14436TIP3    H264724   5.823   4.550   5.763  0.9516  1.8179 -0.6580
14437TIP3   OH264725   0.220   6.461   2.717 -0.1219 -0.0995  0.2478
14437TIP3    H164726   0.160   6.386   2.723  1.4668 -1.3013  2.6882
14437TIP3    H264727   0.218   6.500   2.804  1.7436  0.5597  0.0375
14438TIP3   OH264728   1.317   5.412   1.138 -0.1344  0.5751 -0.5125
14438TIP3    H164729   1.307   5.443   1.227  0.3060  0.8992 -0.5745
14438TIP3    H264730   1.363   5.482   1.092  1.1255 -0.2629 -0.5859
14439TIP3   OH264731   5.883   4.782  15.398  0.0218 -0.0794  0.1129
14439TIP3    H164732   5.819   4.852  15.410 -0.0636 -0.2445  0.6332
14439TIP3    H264733   5.923   4.771  15.485  0.3007 -0.4150 -0.0560
14440TIP3   OH264734   5.234   1.869  14.222 -0.8042  0.3080 -0.2063
14440TIP3    H164735   5.175   1.804  14.183  1.5762 -2.1917  0.0872
14440TIP3    H264736   5.314   1.864  14.170  0.2242  1.4417  1.1677
14441TIP3   OH264737   5.436   5.166   1.544 -0.3133 -0.4283  0.6967
14441TIP3    H164738   5.523   5.173   1.503  0.1077  0.6736  1.7222
14441TIP3    H264739   5.441   5.087   1.597 -0.5488 -1.3512 -0.6163
14442TIP3   OH264740   4.483   5.855  11.852  0.1916  0.0815 -0.1071
14442TIP3    H164741   4.426   5.894  11.919  1.2711  0.9114  0.3577
14442TIP3    H264742   4.434   5.865  11.771  0.0456  1.5994  0.1453
14443TIP3   OH264743   0.028   0.183  14.853  0.5145  0.5694 -0.4335
14443TIP3    H164744   0.008   0.229  14.771  1.7767  0.7153 -0.6654
14443TIP3    H264745   0.119   0.204  14.872  0.2912  0.3854  0.9257
14444TIP3   OH264746   0.611   5.502   4.962  0.1715  0.2804  0.0767
14444TIP3    H164747   0.595   5.543   4.878 -1.0061  0.1224  0.2049
14444TIP3    H264748   0.532   5.520   5.013  1.1101  0.9086  1.3744
14445TIP3   OH264749   3.470   2.836  16.266  0.3494  0.1572  0.3438
14445TIP3    H164750   3.529   2.772  16.228  1.1920  1.8160 -1.3356
14445TIP3    H264751   3.471   2.910  16.204 -2.0488  1.0248  1.1861
14446TIP3   OH264752   0.779   4.690   2.163  0.3438 -0.6582 -0.2336
14446TIP3    H164753   0.726   4.757   2.207 -0.7145 -0.9569 -1.0223
14446TIP3    H264754   0.867   4.703   2.197 -0.3843 -0.7380  1.8272
14447TIP3   OH264755   0.627   0.259   3.535  0.1804  0.0405 -0.1092
14447TIP3    H164756   0.647   0.318   3.462 -0.2954 -0.3394 -0.5517
14447TIP3    H264757   0.535   0.236   3.523  0.2719 -0.5320  0.2483
14448TIP3   OH264758   1.559   3.646  11.913 -0.1207  0.1338 -0.2009
14448TIP3    H164759   1.575   3.552  11.904 -0.5550  0.0962 -0.6204
14448TIP3    H264760   1.560   3.662  12.007 -0.6473 -0.3991 -0.1021
14449TIP3   OH264761   4.747   2.540  12.125 -0.0904 -0.0233  0.2910
14449TIP3    H164762   4.794   2.562  12.206 -0.7956  0.6754  0.5323
14449TIP3    H264763   4.664   2.504  12.155 -0.1421 -0.2504 -0.1239
14450TIP3   OH264764   6.017   3.186  15.618 -0.4628  0.1871  0.5111
14450TIP3    H164765   5.998   3.190  15.712  0.5065  2.4211  0.6803
14450TIP3    H264766   6.112   3.178  15.613 -0.1992  2.6803 -0.1826
14451TIP3   OH264767   4.295   1.830   6.149 -0.5328  0.4195 -0.5411
14451TIP3    H164768   4.342   1.866   6.225 -1.5182  0.3563  0.1180
14451TIP3    H264769   4.275   1.740   6.175  1.1688 -0.3892 -1.8327
14452TIP3   OH264770   6.664   3.675   4.893 -0.2732 -0.5663  0.1496
14452TIP3    H164771   6.691   3.679   4.801  0.0977  0.1210  0.2851
14452TIP3    H264772   6.603   3.601   4.896 -0.0917 -0.7608 -0.5963
14453TIP3   OH264773   5.880   4.924  12.373 -0.3486 -0.2337 -0.7805
14453TIP3    H164774   5.844   5.013  12.370  1.5631  0.5643 -1.4693
14453TIP3    H264775   5.950   4.930  12.438  0.3201 -1.0311 -1.4249
14454TIP3   OH264776   3.412   5.614  12.136  0.0198  0.1001 -0.1974
14454TIP3    H164777   3.325   5.618  12.097 -0.0817 -0.0410  0.0151
14454TIP3    H264778   3.408   5.540  12.197 -1.0214  2.5829  3.0056
14455TIP3   OH264779   2.058   6.571  16.024  0.0402  0.4016  0.1632
14455TIP3    H164780   2.086   6.646  16.076 -1.4262 -0.6925  2.7253
14455TIP3    H264781   1.973   6.546  16.061 -0.4534 -1.3265 -1.9060
14456TIP3   OH264782   3.350   5.543   4.477 -0.2910 -0.4790 -0.4521
14456TIP3    H164783   3.294   5.602   4.526  0.8539  0.0389  0.2767
14456TIP3    H264784   3.420   5.599   4.442  2.0746 -1.6112  2.0935
14457TIP3   OH264785   5.288   1.138   0.310 -0.0598 -0.0508  0.6682
14457TIP3    H164786   5.240   1.066   0.351 -0.7675  0.3295  0.5118
14457TIP3    H264787   5.245   1.217   0.341 -0.3200  0.2597 -0.4328
14458TIP3   OH264788   1.638   3.337  13.830 -0.3394 -0.0209 -0.0446
14458TIP3    H164789   1.559   3.337  13.777  0.2008  1.2973 -0.9038
14458TIP3    H264790   1.708   3.361  13.769  0.3008  1.6610  1.2491
14459TIP3   OH264791   1.047   0.187  12.903  0.3158 -0.1440  0.1284
14459TIP3    H164792   1.103   0.218  12.974  2.0200 -0.9685 -0.7648
14459TIP3    H264793   1.058   0.092  12.904 -0.4048 -0.2450 -0.6144
14460TIP3   OH264794   2.348   2.540  11.931 -0.5793  0.1873 -0.4696
14460TIP3    H164795   2.344   2.590  11.849 -1.6927  1.7856  0.4932
14460TIP3    H264796   2.368   2.606  11.997 -1.1485 -0.8351  0.7511
14461TIP3   OH264797   5.381   2.244   1.706 -0.1144  0.3584 -0.6165
14461TIP3    H164798   5.466   2.281   1.682 -0.1708  0.2032 -1.0680
14461TIP3    H264799   5.326   2.259   1.630 -0.4018  0.1715 -0.4488
14462TIP3   OH264800   6.118   4.297   4.816 -0.2973 -0.3572  0.7266
14462TIP3    H164801   6.151   4.218   4.857 -0.5113 -0.7031  0.2499
14462TIP3    H264802   6.059   4.266   4.748 -0.7214  0.2225  0.8168
14463TIP3   OH264803   3.159   0.762   0.553  0.5486  0.4451  0.0910
14463TIP3    H164804   3.230   0.700   0.534  0.9135  0.9243 -0.1376
14463TIP3    H264805   3.134   0.798   0.468 -1.4930 -1.3168 -0.1158
14464TIP3   OH264806   6.350   5.939   3.773  0.0894  0.1205  0.1584
14464TIP3    H164807   6.393   6.024   3.766 -0.5939  0.3966 -0.8500
14464TIP3    H264808   6.392   5.898   3.849  0.1338  1.5217  0.9398
14465TIP3   OH264809   5.014   0.121  11.898  0.1488 -1.2984 -0.4113
14465TIP3    H164810   4.987   0.142  11.988 -0.7847 -0.7963 -0.7930
14465TIP3    H264811   4.944   0.156  11.843  1.6161  0.0689 -1.4768
14466TIP3   OH264812   1.814   5.170   1.444  0.0221 -0.1767 -0.1704
14466TIP3    H164813   1.727   5.164   1.484 -0.3215  0.9806 -0.6917
14466TIP3    H264814   1.828   5.264   1.433  1.6716 -0.3061  0.5923
14467TIP3   OH264815   1.619   4.854  10.720 -0.2261 -0.0336  0.2139
14467TIP3    H164816   1.529   4.846  10.690  0.4175  0.2807 -2.0407
14467TIP3    H264817   1.670   4.807  10.654  1.5337  2.7365 -0.5684
14468TIP3   OH264818   0.937   1.560   4.249 -0.3766 -0.0413  0.4258
14468TIP3    H164819   1.008   1.613   4.213 -1.4831  1.0783 -0.1966
14468TIP3    H264820   0.979   1.480   4.278  0.8631 -0.2114 -1.6661
14469TIP3   OH264821   4.623   6.281  11.914  0.7363 -0.1546  0.5099
14469TIP3    H164822   4.647   6.373  11.923  1.4939 -0.3326  0.3498
14469TIP3    H264823   4.673   6.236  11.982  0.1799 -0.4233  0.7533
14470TIP3   OH264824   6.374   2.091  16.866 -0.2100  0.2710  0.1397
14470TIP3    H164825   6.300   2.085  16.805 -0.0530 -1.6727  0.0865
14470TIP3    H264826   6.332   2.096  16.952 -0.4104  0.2386  0.0479
14471TIP3   OH264827   4.481   0.698  14.607  0.5049 -0.3963  0.0788
14471TIP3    H164828   4.477   0.789  14.635  0.9288  0.7781 -3.3051
14471TIP3    H264829   4.541   0.656  14.669 -0.0904  1.4454  1.9995
14472TIP3   OH264830   5.859   3.948   0.300  0.9231 -0.4509  0.1910
14472TIP3    H164831   5.812   4.000   0.366 -1.4704 -0.8231 -1.1329
14472TIP3    H264832   5.875   4.009   0.228  3.8141  0.0390  1.0846
14473TIP3   OH264833   2.788   4.115   5.155 -0.1061  0.1280  0.0874
14473TIP3    H164834   2.695   4.095   5.144  0.0145 -1.3265  1.4542
14473TIP3    H264835   2.818   4.056   5.225  1.7571  0.8363 -0.0526
14474TIP3   OH264836   0.291   1.257   3.505  0.4124 -0.1950  0.1488
14474TIP3    H164837   0.316   1.287   3.418 -0.0189 -2.1205 -0.6909
14474TIP3    H264838   0.305   1.162   3.503 -0.0752 -0.3465  2.0125
14475TIP3   OH264839   4.389   4.102   3.907  0.7106 -0.0898 -0.5733
14475TIP3    H164840   4.365   4.016   3.873  0.4669 -1.3079  2.3384
14475TIP3    H264841   4.473   4.121   3.866  0.5506 -1.5059 -1.6425
14476TIP3   OH264842   6.328   5.392   3.970 -0.2064  0.2219  0.8474
14476TIP3    H164843   6.343   5.439   3.888  1.3928  0.0728  1.0136
14476TIP3    H264844   6.415   5.362   3.996 -1.0260 -2.0193  1.2406
14477TIP3   OH264845   3.115   0.308   2.909 -0.1869 -0.2070  0.4289
14477TIP3    H164846   3.139   0.401   2.908  1.0062 -0.5004  0.3439
14477TIP3    H264847   3.131   0.280   2.999  0.6879 -0.6335  0.1433
14478TIP3   OH264848   0.034   4.338   6.040 -0.4979  0.0848  0.0779
14478TIP3    H164849   0.117   4.317   5.996  0.3331  1.2522  1.0215
14478TIP3    H264850   0.013   4.259   6.090  0.0210 -0.2507 -0.2292
14479TIP3   OH264851   6.202   6.565  11.369 -0.2576  0.2264  0.2803
14479TIP3    H164852   6.202   6.529  11.280 -0.9777  1.1044 -0.1002
14479TIP3    H264853   6.286   6.612  11.375 -0.9422  1.6733 -0.6216
14480TIP3   OH264854   4.450   1.819   5.929  0.6857  0.0463 -0.3246
14480TIP3    H164855   4.374   1.820   5.987  0.0074 -0.6609 -1.1654
14480TIP3    H264856   4.507   1.752   5.966  0.8643  0.5064  0.2512
14481TIP3   OH264857   6.471   1.986  15.550 -0.5604  0.8578  0.3035
14481TIP3    H164858   6.539   1.922  15.569  0.0070  1.5871  0.8083
14481TIP3    H264859   6.508   2.041  15.481 -0.1707  1.9152  1.3091
14482TIP3   OH264860   6.004   1.413  13.556  0.0258  0.0337  0.7482
14482TIP3    H164861   5.926   1.442  13.509  0.7761  0.5360 -0.2286
14482TIP3    H264862   5.980   1.419  13.648 -0.9510  0.5607  0.4773
14483TIP3   OH264863   6.610   4.289   5.270 -0.2763 -0.3383  0.3626
14483TIP3    H164864   6.656   4.205   5.265 -0.1133 -0.2420  0.2652
14483TIP3    H264865   6.658   4.339   5.335 -0.2076 -0.2149  0.2176
14484TIP3   OH264866   3.270   3.835   6.278  0.5134  0.4986  0.2224
14484TIP3    H164867   3.202   3.901   6.289  1.4575  1.4810  0.4304
14484TIP3    H264868   3.229   3.752   6.301 -1.0106  0.8551 -1.0725
14485TIP3   OH264869   0.119   5.535  11.724  0.4259 -0.3765  0.2313
14485TIP3    H164870   0.031   5.507  11.701  0.5412  0.7208 -1.8248
14485TIP3    H264871   0.107   5.590  11.802 -0.5070 -1.3644  0.8019
14486TIP3   OH264872   3.215   4.401  15.973  0.8017 -0.0583 -0.3384
14486TIP3    H164873   3.187   4.409  15.882  0.3752  1.2223 -0.1146
14486TIP3    H264874   3.308   4.424  15.972  1.0811 -1.1258 -0.5930
14487TIP3   OH264875   3.776   5.661   5.025 -0.4840  0.4652 -0.3219
14487TIP3    H164876   3.759   5.727   5.092 -0.2406  0.1703  0.0333
14487TIP3    H264877   3.871   5.662   5.013 -0.3857 -0.4231  0.3143
14488TIP3   OH264878   5.905   2.413  14.441  0.1367 -0.0087  0.0610
14488TIP3    H164879   5.818   2.395  14.405 -0.1843 -0.5785  1.0821
14488TIP3    H264880   5.891   2.488  14.499 -0.6869 -2.7211  3.7069
14489TIP3   OH264881   2.891   1.183   2.415 -0.2164  0.5885  0.1626
14489TIP3    H164882   2.883   1.247   2.345 -0.2805  0.9007  0.4528
14489TIP3    H264883   2.910   1.100   2.370 -2.8383  0.2296 -0.4487
14490TIP3   OH264884   0.093   0.301   0.577  0.8330  0.4354 -0.0958
14490TIP3    H164885   0.023   0.358   0.609 -2.3414 -2.6264 -0.9648
14490TIP3    H264886   0.080   0.297   0.482  1.9744 -0.5235 -0.2388
14491TIP3   OH264887   2.866   3.170  11.197 -0.4270  0.2687 -0.4569
14491TIP3    H164888   2.866   3.218  11.114  0.5717 -1.9847 -1.8821
14491TIP3    H264889   2.815   3.091  11.178  0.1177 -0.4577  0.9697
14492TIP3   OH264890   6.453   3.846   5.697 -0.0421  0.3854  0.4331
14492TIP3    H164891   6.359   3.824   5.700 -0.5620  2.1764 -0.9812
14492TIP3    H264892   6.463   3.913   5.765  0.0293  0.8177 -0.0042
14493TIP3   OH264893   4.600   5.686   3.439  0.0913 -0.3501 -0.0955
14493TIP3    H164894   4.596   5.712   3.531  0.3031  0.8594 -0.4151
14493TIP3    H264895   4.527   5.734   3.398 -0.0686 -0.9648 -0.5419
14494TIP3   OH264896   0.585   0.723  11.899 -0.0156 -0.4295  0.0227
14494TIP3    H164897   0.498   0.690  11.878  0.3110 -1.2535 -0.1018
14494TIP3    H264898   0.640   0.694  11.826  0.1440  1.1087 -0.4931
14495TIP3   OH264899   5.596   0.434  13.949  0.0324  0.3281 -0.1677
14495TIP3    H164900   5.686   0.423  13.979 -0.3897 -2.6051  0.2909
14495TIP3    H264901   5.549   0.464  14.027  0.1140 -1.0591  0.4472
14496TIP3   OH264902   3.240   1.735  12.998  0.0699  0.1467 -0.0572
14496TIP3    H164903   3.156   1.692  12.984  0.8522 -0.7626 -2.5451
14496TIP3    H264904   3.295   1.669  13.040 -0.0470  0.3060  0.3579
14497TIP3   OH264905   2.725   6.677  14.135  0.1162 -0.5092  0.5366
14497TIP3    H164906   2.801   6.655  14.082  0.4077  0.9891  0.2953
14497TIP3    H264907   2.760   6.732  14.206 -0.8325  0.9978 -0.1052
14498TIP3   OH264908   2.837   1.641  14.893  0.0283  0.0431  0.0116
14498TIP3    H164909   2.810   1.722  14.850 -0.6888  0.1070  0.5617
14498TIP3    H264910   2.780   1.634  14.969  0.3621 -0.7691  0.1996
14499TIP3   OH264911   2.338   6.631   4.872 -0.3748 -0.5915  0.1769
14499TIP3    H164912   2.374   6.580   4.945 -0.4184 -0.8546  0.0163
14499TIP3    H264913   2.255   6.588   4.852  0.0298 -1.0412 -0.5811
14500TIP3   OH264914   5.684   0.436   4.576  0.2989 -0.1205  0.3706
14500TIP3    H164915   5.705   0.461   4.486 -1.3321 -0.7992 -0.2475
14500TIP3    H264916   5.698   0.516   4.627  1.4575  0.2174 -0.4268
14501TIP3   OH264917   5.936   2.010  16.331 -0.9067 -0.2279 -0.2920
14501TIP3    H164918   6.022   2.047  16.352 -0.6725 -0.6329 -0.5138
14501TIP3    H264919   5.874   2.078  16.354 -0.3950  0.8432 -1.9364
14502TIP3   OH264920   2.099   1.345   5.503  0.0374 -0.0371 -0.2458
14502TIP3    H164921   2.025   1.342   5.564 -0.2589  1.9188 -0.4260
14502TIP3    H264922   2.084   1.273   5.442 -1.7554  0.3257 -0.2847
14503TIP3   OH264923   1.909   2.171   5.733 -0.3594  0.1312  0.4695
14503TIP3    H164924   1.850   2.133   5.667  0.3936 -0.7401  0.2786
14503TIP3    H264925   1.950   2.245   5.689  1.0973 -1.2008 -0.5177
14504TIP3   OH264926   0.718   4.836   4.362  0.3531 -0.7323 -0.0171
14504TIP3    H164927   0.732   4.831   4.457  1.3576  0.9880 -0.0432
14504TIP3    H264928   0.627   4.865   4.353  0.7244  0.6546  0.4813
14505TIP3   OH264929   6.301   5.123  16.973 -0.1632  0.1716  0.6158
14505TIP3    H164930   6.387   5.123  16.930 -1.3317 -0.7327 -1.9415
14505TIP3    H264931   6.256   5.199  16.935 -1.5127 -1.1041 -0.4892
14506TIP3   OH264932   2.301   2.495   1.939  0.3830 -0.5976 -0.0604
14506TIP3    H164933   2.395   2.485   1.953  0.5034  0.1712 -0.2743
14506TIP3    H264934   2.261   2.466   2.022  0.9577  1.4204  0.9828
14507TIP3   OH264935   6.198   4.540   0.410  0.4101  0.1613  0.1204
14507TIP3    H164936   6.292   4.537   0.393  0.8125  0.6952  1.9799
14507TIP3    H264937   6.191   4.577   0.498 -1.5866  0.8982 -0.2956
14508TIP3   OH264938   4.723   6.493   3.348  0.0133  0.5073  0.3842
14508TIP3    H164939   4.671   6.571   3.330 -1.6626 -0.6314 -0.0180
14508TIP3    H264940   4.738   6.454   3.261 -2.2077 -1.4157  0.7627
14509TIP3   OH264941   3.869   4.111  16.140 -0.0677  0.5050  0.4501
14509TIP3    H164942   3.838   4.024  16.115 -0.8761  0.4901  1.4314
14509TIP3    H264943   3.962   4.110  16.120 -0.2469 -0.2725 -0.3909
14510TIP3   OH264944   5.868   2.450   0.259  0.3068  0.4631 -0.2922
14510TIP3    H164945   5.818   2.385   0.210  0.5940 -0.4443  0.5887
14510TIP3    H264946   5.822   2.532   0.244  0.2891  0.1855 -1.9300
14511TIP3   OH264947   3.429   6.163   2.723 -0.6760  0.2977  0.1739
14511TIP3    H164948   3.521   6.136   2.728 -1.0824 -1.2894 -0.1990
14511TIP3    H264949   3.386   6.117   2.796 -1.3125  0.4026 -0.1250
14512TIP3   OH264950   5.718   4.410  13.201  0.5734 -0.4568 -0.2871
14512TIP3    H164951   5.771   4.330  13.202  2.1230  0.5230  0.9627
14512TIP3    H264952   5.773   4.473  13.154 -0.9848 -0.3001 -2.0003
14513TIP3   OH264953   4.958   2.809  16.238 -0.5556  0.0669 -0.3407
14513TIP3    H164954   4.983   2.896  16.268 -0.1381  0.7293 -2.3912
14513TIP3    H264955   4.894   2.779  16.302  1.1036  0.8181  1.7705
14514TIP3   OH264956   4.084   2.457   1.875 -0.3115 -0.3697  0.0862
14514TIP3    H164957   4.123   2.455   1.963 -0.1779  1.9273  0.1206
14514TIP3    H264958   4.006   2.511   1.883 -0.0738  0.2267 -1.2947
14515TIP3   OH264959   0.419   6.356  13.813 -0.0067  0.5574 -0.2321
14515TIP3    H164960   0.409   6.447  13.842  1.4659  0.2698  1.3525
14515TIP3    H264961   0.477   6.316  13.879  0.1538 -1.2736 -1.4138
14516TIP3   OH264962   6.683   2.424  10.498  0.1980  0.2633 -0.0698
14516TIP3    H164963   6.738   2.346  10.493 -0.8530 -0.4324 -1.7281
14516TIP3    H264964   6.594   2.390  10.509 -0.1136  1.2979  0.8294
14517TIP3   OH264965   5.599   5.062  13.426  0.3027  0.0205 -0.2674
14517TIP3    H164966   5.590   5.098  13.337  1.5885  0.3713 -0.2821
14517TIP3    H264967   5.642   4.977  13.413 -0.5803 -0.4672 -0.0550
14518TIP3   OH264968   0.332   0.407   1.406 -0.0474  0.2339 -0.2448
14518TIP3    H164969   0.395   0.478   1.395 -0.1051  0.2383 -0.5691
14518TIP3    H264970   0.375   0.344   1.463  1.7943 -1.5654 -3.3234
14519TIP3   OH264971   6.202   4.504   3.824 -0.1187 -0.1978 -0.5133
14519TIP3    H164972   6.256   4.425   3.820  0.3008  0.1024 -0.9096
14519TIP3    H264973   6.127   4.479   3.877  0.5630 -0.5338  0.3203
14520TIP3   OH264974   0.007   0.543  16.354  0.0026  0.1129  0.5848
14520TIP3    H164975  -0.001   0.638  16.355 -2.3698 -0.0120 -0.9089
14520TIP3    H264976   0.101   0.527  16.342  0.2150  2.2878 -1.1417
14521TIP3   OH264977   3.156   2.125  13.865 -0.5064 -0.0368 -0.0826
14521TIP3    H164978   3.113   2.134  13.949  1.1573 -1.3772  0.9852
14521TIP3    H264979   3.087   2.099  13.805 -1.4713 -0.5470  1.2106
14522TIP3   OH264980   4.029   3.416   3.776 -0.1023  0.4829  0.5636
14522TIP3    H164981   3.989   3.349   3.721  0.1478 -0.5814  1.6532
14522TIP3    H264982   3.975   3.494   3.761 -1.8739 -0.5863  1.0719
14523TIP3   OH264983   1.740   5.714   2.103  0.3709 -0.0323  0.0984
14523TIP3    H164984   1.765   5.642   2.162 -1.2758  0.2088  1.1599
14523TIP3    H264985   1.731   5.672   2.018  0.4841 -0.8810  0.4861
14524TIP3   OH264986   5.464   0.225  13.817  0.2930  0.6177 -0.1162
14524TIP3    H164987   5.495   0.313  13.839  0.1191  0.8339 -0.7147
14524TIP3    H264988   5.511   0.167  13.878  2.2751  0.8860 -1.3153
14525TIP3   OH264989   2.007   1.016  10.504  0.2112 -0.4834  0.4203
14525TIP3    H164990   2.002   1.069  10.424  1.2928 -0.3369  0.4350
14525TIP3    H264991   1.916   0.997  10.526 -0.2793  1.7976  0.6903
14526TIP3   OH264992   1.457   1.341  14.903 -0.2446  0.2368  0.1103
14526TIP3    H164993   1.475   1.249  14.921  0.8136  0.3742 -0.1725
14526TIP3    H264994   1.409   1.340  14.820 -1.3592 -0.1240  0.7405
14527TIP3   OH264995   3.518   6.339  13.278 -0.3538  0.3001  0.6383
14527TIP3    H164996   3.579   6.278  13.320 -2.1613 -1.7119  0.5207
14527TIP3    H264997   3.433   6.319  13.318 -1.7853 -0.3036 -2.4554
14528TIP3   OH264998   4.390   5.842   3.372 -0.8823  0.3989 -0.1382
14528TIP3    H164999   4.319   5.877   3.426 -1.7709  0.7073 -1.4669
14528TIP3    H265000   4.453   5.913   3.364 -0.6005  0.2541  0.7167
14529TIP3   OH265001   4.123   3.448   1.190 -0.1137 -0.2090 -0.2390
14529TIP3    H165002   4.162   3.362   1.176  1.0488  0.1891  0.4170
14529TIP3    H265003   4.169   3.506   1.129 -0.4320  0.0696 -0.2171
14530TIP3   OH265004   2.198   2.971  11.418 -0.5044  0.2120  0.0844
14530TIP3    H165005   2.148   2.898  11.382  0.2736 -0.7827  0.9679
14530TIP3    H265006   2.289   2.953  11.395 -0.4409  1.6890 -0.9730
14531TIP3   OH265007   2.689   3.546  11.044 -0.0410  0.1381  0.1410
14531TIP3    H165008   2.654   3.584  10.964  1.2761 -0.3433 -0.6987
14531TIP3    H265009   2.735   3.467  11.015 -0.9976 -1.0244  1.5880
14532TIP3   OH265010   2.375   0.045  12.781  0.2386 -0.2923 -0.7443
14532TIP3    H165011   2.458  -0.003  12.782  0.3171 -0.1552 -0.0548
14532TIP3    H265012   2.322  -0.001  12.716  0.8724 -0.3389 -1.2431
14533TIP3   OH265013   5.466   0.441   2.960  0.3192 -0.4439 -0.3426
14533TIP3    H165014   5.453   0.534   2.942  1.5185 -0.5540 -1.9485
14533TIP3    H265015   5.559   0.426   2.946  0.2233 -1.8243  0.2737
14534TIP3   OH265016   6.281   0.890   4.110 -0.1024  0.4536 -0.6134
14534TIP3    H165017   6.371   0.924   4.110  0.0707  0.1216  1.1849
14534TIP3    H265018   6.286   0.808   4.061  0.4131  0.8218 -1.1851
14535TIP3   OH265019   2.767   1.870  14.783 -0.2008 -0.2832  0.0617
14535TIP3    H165020   2.688   1.905  14.743  0.4061 -0.7168 -1.5920
14535TIP3    H265021   2.832   1.939  14.773 -0.3354  0.0611  1.3918
14536TIP3   OH265022   1.735   0.152  15.143 -0.0358  0.4982 -0.6070
14536TIP3    H165023   1.653   0.103  15.153 -0.0743  0.5439 -0.7053
14536TIP3    H265024   1.799   0.101  15.193  0.0355  0.0831 -1.1149
14537TIP3   OH265025   2.294   1.554  14.926  0.4791  0.7584  0.1670
14537TIP3    H165026   2.261   1.607  14.853 -0.0042  0.5150  0.2073
14537TIP3    H265027   2.338   1.480  14.884 -0.7084  0.0564  0.1134
14538TIP3   OH265028   6.516   0.544  14.923 -0.4093 -0.4712  0.3317
14538TIP3    H165029   6.502   0.626  14.876  2.1175 -0.2368 -0.1756
14538TIP3    H265030   6.611   0.537  14.930 -0.6042 -1.6599  3.4199
14539TIP3   OH265031   3.264   3.046  13.435  0.2806  0.5754  0.3891
14539TIP3    H165032   3.335   2.983  13.420  0.0347  0.5488 -0.7472
14539TIP3    H265033   3.299   3.129  13.402 -0.3844  0.4548 -0.6852
14540TIP3   OH265034   5.087   0.070  14.911 -0.0755 -0.3711  0.2250
14540TIP3    H165035   5.102   0.162  14.934  1.0099 -0.5557  0.3232
14540TIP3    H265036   5.150   0.021  14.964  1.1012 -0.9712 -1.6167
14541TIP3   OH265037   0.749   2.235  13.176  0.4538 -0.7054  0.1369
14541TIP3    H165038   0.839   2.204  13.172  0.0485 -2.0379  0.5894
14541TIP3    H265039   0.708   2.201  13.096  0.3375 -0.1443 -0.0455
14542TIP3   OH265040   3.549   0.403  14.227  0.5726 -0.0675  0.0921
14542TIP3    H165041   3.548   0.447  14.142 -1.4672 -0.3874 -0.1070
14542TIP3    H265042   3.537   0.310  14.206 -2.0783  0.0424  0.7244
14543TIP3   OH265043   3.623   2.854   2.581  0.0934 -0.0789  0.3959
14543TIP3    H165044   3.610   2.874   2.673  0.7042 -1.6455  0.8478
14543TIP3    H265045   3.599   2.762   2.572  0.6384 -0.1205 -0.8752
14544TIP3   OH265046   6.406   2.258   3.179  0.0103 -0.3310 -0.0932
14544TIP3    H165047   6.478   2.199   3.202  0.5478 -0.3641 -1.7686
14544TIP3    H265048   6.329   2.217   3.217  0.7581 -0.6447  1.1606
14545TIP3   OH265049   2.308   1.423  12.762 -0.3408  0.3354  0.3739
14545TIP3    H165050   2.361   1.352  12.727 -0.7739  1.3028 -2.4893
14545TIP3    H265051   2.370   1.494  12.777 -0.4591  0.6798 -0.7020
14546TIP3   OH265052   5.904   3.737  13.900  0.0183  0.4605  0.4201
14546TIP3    H165053   5.819   3.704  13.873 -0.3028  0.8069  0.9777
14546TIP3    H265054   5.954   3.659  13.924 -1.2896  0.4074  3.3554
14547TIP3   OH265055   3.756   2.829  13.648  0.3967 -0.0566 -0.4918
14547TIP3    H165056   3.807   2.756  13.684  0.6897 -0.2139 -1.2040
14547TIP3    H265057   3.822   2.896  13.627 -0.0021  1.1055  1.6676
14548TIP3   OH265058   4.957   5.385  14.486 -0.0594 -0.3852  0.2604
14548TIP3    H165059   4.991   5.450  14.425 -0.1581  1.2917  1.8931
14548TIP3    H265060   5.027   5.320  14.495 -0.7810 -1.7909 -3.0602
14549TIP3   OH265061   1.612   3.278   0.124  0.3889  0.2727  0.5910
14549TIP3    H165062   1.639   3.326   0.202 -0.4583  0.4265  0.7940
14549TIP3    H265063   1.577   3.344   0.065 -1.3464 -0.1170  1.1088
14550TIP3   OH265064   3.410   5.300  13.220  0.8789  0.6169  0.1605
14550TIP3    H165065   3.441   5.373  13.167  1.9918  0.3683  0.4461
14550TIP3    H265066   3.438   5.222  13.171  0.3068  0.3752  0.2065
14551TIP3   OH265067   1.975   3.780   3.292 -0.6052 -0.6353 -0.4826
14551TIP3    H165068   1.987   3.688   3.268 -0.5484 -0.4134 -1.3597
14551TIP3    H265069   1.881   3.790   3.307 -0.8440 -0.5180 -1.8748
14552TIP3   OH265070   2.488   4.226   1.449 -0.4561 -0.4188  0.2572
14552TIP3    H165071   2.579   4.217   1.478 -0.9571 -2.2219  1.4016
14552TIP3    H265072   2.480   4.165   1.376 -0.2489  1.2645 -1.2544
14553TIP3   OH265073   0.317   3.789  11.652  0.4782 -0.6144 -0.0241
14553TIP3    H165074   0.409   3.815  11.661  0.1899  0.5322 -0.1923
14553TIP3    H265075   0.274   3.828  11.729  0.3478 -2.2870  0.7978
14554TIP3   OH265076   6.577   0.145  11.093 -0.1483  0.0186 -0.7113
14554TIP3    H165077   6.664   0.182  11.106 -0.0574 -0.5546  0.4282
14554TIP3    H265078   6.556   0.165  11.002  2.1017 -1.7252 -1.6981
14555TIP3   OH265079   1.721   3.055   1.680  0.1435  0.4447 -0.5175
14555TIP3    H165080   1.706   3.147   1.702  0.9953  1.0061 -2.1310
14555TIP3    H265081   1.710   3.008   1.763  0.0791  2.0361  0.4061
14556TIP3   OH265082   5.121   1.719   7.002 -0.2537 -0.0477  0.0207
14556TIP3    H165083   5.201   1.721   6.950  0.2004  2.2861  0.6696
14556TIP3    H265084   5.143   1.668   7.079  1.0276  1.4363  0.7043
14557TIP3   OH265085   6.625   3.148   6.298  0.3739 -0.1964  0.0643
14557TIP3    H165086   6.589   3.113   6.217  0.7571 -1.7929  0.5514
14557TIP3    H265087   6.600   3.085   6.365  1.9690 -0.0924  0.8072
14558TIP3   OH265088   0.257   6.054  16.621  0.0037 -0.2735 -0.3249
14558TIP3    H165089   0.257   5.962  16.592  1.5440 -0.8751  1.3752
14558TIP3    H265090   0.196   6.054  16.696 -0.8720  0.3772 -1.0154
14559TIP3   OH265091   1.078   2.687  15.832  0.6492 -0.2192 -0.8251
14559TIP3    H165092   1.092   2.623  15.762  1.1246 -0.4003 -0.5748
14559TIP3    H265093   1.138   2.759  15.811  0.7599 -0.2544 -0.6281
14560TIP3   OH265094   3.110   3.877   5.129 -0.4636 -0.6163  0.0806
14560TIP3    H165095   3.154   3.883   5.044  0.6660 -1.2761  0.5968
14560TIP3    H265096   3.052   3.802   5.121 -2.3206  0.8163 -0.9278
14561TIP3   OH265097   5.281   2.883   4.650  0.0588  0.2743 -0.0833
14561TIP3    H165098   5.291   2.977   4.662 -0.2076  0.2480  0.3714
14561TIP3    H265099   5.370   2.850   4.635 -0.0098  0.8355 -2.0902
14562TIP3   OH265100   6.580   6.625   0.723  0.1040 -0.3391  0.2375
14562TIP3    H165101   6.504   6.673   0.690  0.5562  0.1723 -0.0867
14562TIP3    H265102   6.564   6.534   0.699 -1.5371 -0.6430  2.2857
14563TIP3   OH265103   3.340   3.074  10.397  0.5528  0.0772  0.3943
14563TIP3    H165104   3.384   3.087  10.481  0.4409 -0.2981  0.5117
14563TIP3    H265105   3.258   3.123  10.404  0.7015  0.3327  0.3729
14564TIP3   OH265106   3.055   5.115  14.820 -0.3824  0.3242 -0.0175
14564TIP3    H165107   3.024   5.051  14.883 -1.0601 -0.9169 -1.5454
14564TIP3    H265108   3.146   5.089  14.802 -0.3184  0.4345  0.1458
14565TIP3   OH265109   4.336   6.446   1.260 -0.1650  0.1421  0.1648
14565TIP3    H165110   4.385   6.419   1.182 -3.2388 -1.6796 -1.3494
14565TIP3    H265111   4.275   6.373   1.276 -2.1173  2.0546  2.0594
14566TIP3   OH265112   3.894   5.843  14.874  0.1602 -0.4302  0.3093
14566TIP3    H165113   3.948   5.912  14.834 -1.3033  1.6155  1.6799
14566TIP3    H265114   3.919   5.764  14.827  3.0482  0.7153 -0.3308
14567TIP3   OH265115   3.799   0.503  12.262 -0.2597 -0.2840  0.0409
14567TIP3    H165116   3.836   0.581  12.304 -1.0106  0.9443 -1.5168
14567TIP3    H265117   3.796   0.525  12.169 -0.5456 -2.1652 -0.4209
14568TIP3   OH265118   3.265   3.895  16.773  0.4589 -0.3179 -0.8722
14568TIP3    H165119   3.179   3.864  16.746 -1.8811  2.0191  2.9250
14568TIP3    H265120   3.305   3.929  16.693 -2.6794 -0.3486 -2.5942
14569TIP3   OH265121   0.555   1.058   3.637 -0.1576  0.6070  0.2909
14569TIP3    H165122   0.511   0.999   3.576  1.5258  0.0069 -0.3997
14569TIP3    H265123   0.536   1.021   3.724  1.9581 -1.8656 -0.1645
14570TIP3   OH265124   6.086   5.645  12.994  0.1443  0.2806  0.2463
14570TIP3    H165125   6.147   5.620  13.064  2.8325 -1.3437 -2.4230
14570TIP3    H265126   6.126   5.723  12.954  0.6014 -0.8080 -1.5496
14571TIP3   OH265127   4.000   3.876   1.724 -0.2921 -0.0144  0.3081
14571TIP3    H165128   4.058   3.937   1.768 -0.6633  0.4851  0.1058
14571TIP3    H265129   4.053   3.797   1.713  0.7235  0.7912 -0.8356
14572TIP3   OH265130   3.427   3.173  16.823 -0.1377  0.4445 -0.5121
14572TIP3    H165131   3.350   3.137  16.777  1.1851 -1.6411 -1.2670
14572TIP3    H265132   3.398   3.184  16.913 -0.8388 -2.3019 -0.2955
14573TIP3   OH265133   2.676   1.319  14.920  0.0667  0.8001  0.2612
14573TIP3    H165134   2.685   1.254  14.990  0.9047  0.4680 -0.1425
14573TIP3    H265135   2.759   1.316  14.874 -1.0484 -0.2320 -1.8305
14574TIP3   OH265136   4.537   1.877  11.962 -0.0133 -0.8158 -0.5366
14574TIP3    H165137   4.498   1.805  12.013 -1.0332 -0.3298 -0.6009
14574TIP3    H265138   4.622   1.843  11.934  0.1424 -1.4572  0.6538
14575TIP3   OH265139   5.419   5.694  16.150 -0.4102 -0.5936  0.4107
14575TIP3    H165140   5.470   5.775  16.158 -0.2486 -0.5605 -0.8821
14575TIP3    H265141   5.348   5.705  16.213  0.2318  0.0693  1.0472
14576TIP3   OH265142   3.879   4.248   4.007  0.5495  0.2669 -0.5211
14576TIP3    H165143   3.864   4.304   3.930 -0.4984 -0.6341 -1.0002
14576TIP3    H265144   3.973   4.232   4.007  0.5893  0.4312 -1.5150
14577TIP3   OH265145   2.719   1.235   0.890  0.3172 -0.4168  0.1733
14577TIP3    H165146   2.719   1.139   0.899 -1.3352 -0.6517 -1.5792
14577TIP3    H265147   2.798   1.263   0.934  2.3660 -2.8393 -1.6476
14578TIP3   OH265148   4.720   0.698  16.841  0.6450 -0.1451  0.2889
14578TIP3    H165149   4.724   0.772  16.781 -0.7807  0.0255  0.3674
14578TIP3    H265150   4.629   0.696  16.870  1.0242 -0.9911  1.4816
14579TIP3   OH265151   2.302   0.274   2.706 -0.8341  0.5237 -0.0289
14579TIP3    H165152   2.307   0.307   2.616 -1.1185  1.3092  0.2374
14579TIP3    H265153   2.211   0.246   2.716 -1.0400  1.3023  0.3090
14580TIP3   OH265154   0.819   6.774   5.730 -0.2369 -0.1665 -0.0695
14580TIP3    H165155   0.842   6.839   5.796 -1.5053 -1.3447  1.6390
14580TIP3    H265156   0.729   6.750   5.751 -1.3210  0.6376 -3.3563
14581TIP3   OH265157   3.474   5.778  13.598  0.4320 -0.1283  0.3786
14581TIP3    H165158   3.435   5.787  13.685  0.6083 -0.6083  0.5093
14581TIP3    H265159   3.549   5.720  13.611  0.2296 -0.5166 -0.1619
14582TIP3   OH265160   3.371   6.160   1.645 -0.0581 -0.1310 -0.4706
14582TIP3    H165161   3.422   6.101   1.589 -3.7403 -3.9208 -0.3277
14582TIP3    H265162   3.374   6.119   1.732 -0.9539  1.1517  0.1967
14583TIP3   OH265163   0.688   4.694  11.679 -0.1646  0.0073 -0.2538
14583TIP3    H165164   0.711   4.757  11.746  1.4459 -0.0686 -0.6894
14583TIP3    H265165   0.677   4.746  11.599  0.6344 -0.1849 -0.4986
14584TIP3   OH265166   3.183   5.265   5.784 -0.3414  0.0996 -0.8361
14584TIP3    H165167   3.094   5.293   5.764 -1.9989 -3.2313  1.0445
14584TIP3    H265168   3.192   5.278   5.878  0.4523 -1.2889 -0.6918
14585TIP3   OH265169   6.787   5.089  13.298 -0.0889  0.1851 -0.2377
14585TIP3    H165170   6.858   5.148  13.272 -0.2363 -0.5731 -2.6559
14585TIP3    H265171   6.793   5.016  13.236 -1.2289 -1.3095  1.3147
14586TIP3   OH265172   3.000   3.433  12.624  0.0848  0.6329  0.3461
14586TIP3    H165173   3.019   3.377  12.699 -0.9661  0.1208  0.2476
14586TIP3    H265174   2.916   3.474  12.646 -0.4779  0.0924 -0.7660
14587TIP3   OH265175   6.734   5.232  12.937 -0.5368  0.1253 -0.5503
14587TIP3    H165176   6.690   5.203  13.017 -0.8196  0.6048 -0.5317
14587TIP3    H265177   6.666   5.278  12.887 -0.4549 -0.4634 -1.2236
14588TIP3   OH265178   5.890   2.615  13.428 -0.2329 -0.2233  0.4823
14588TIP3    H165179   5.827   2.591  13.496 -1.3059 -0.1465 -0.4397
14588TIP3    H265180   5.932   2.695  13.459  1.0493 -1.4670  2.1282
14589TIP3   OH265181   4.989   5.284   3.757  0.3929  0.9466  0.8485
14589TIP3    H165182   4.944   5.223   3.815 -0.9804  1.5022  0.4111
14589TIP3    H265183   5.071   5.241   3.736  0.6244  0.4177  2.6256
14590TIP3   OH265184   4.699   0.533   2.538 -0.0236  0.3601 -0.3068
14590TIP3    H165185   4.789   0.503   2.548 -0.1882 -0.8380 -2.0089
14590TIP3    H265186   4.648   0.471   2.590  0.0012  0.1044 -0.5853
14591TIP3   OH265187   1.188   4.702  14.004 -0.5558 -0.0743 -0.2651
14591TIP3    H165188   1.220   4.751  14.080 -0.4362  1.1109 -1.0505
14591TIP3    H265189   1.266   4.687  13.951 -0.6958 -0.5861 -0.3320
14592TIP3   OH265190   3.579   5.483  13.414 -0.1038 -0.0367 -0.4784
14592TIP3    H165191   3.534   5.405  13.384 -0.4904  0.2214 -0.5792
14592TIP3    H265192   3.624   5.517  13.337  0.1634 -0.2297 -0.4055
14593TIP3   OH265193   3.597   0.175  12.540 -0.1189 -0.1761  0.1762
14593TIP3    H165194   3.646   0.218  12.610 -0.8429 -1.1146  1.2800
14593TIP3    H265195   3.593   0.241  12.470 -0.2191  1.1336  1.3753
14594TIP3   OH265196   1.579   5.967   2.456  0.2775 -0.7791  0.4724
14594TIP3    H165197   1.517   5.942   2.387 -0.5251 -2.1539  1.6299
14594TIP3    H265198   1.594   6.061   2.443  0.0859 -0.9898 -1.4960
14595TIP3   OH265199   2.647   6.068  15.872  0.0842 -0.1749  0.2264
14595TIP3    H165200   2.620   6.130  15.939  1.8913  0.8427  0.0744
14595TIP3    H265201   2.597   5.988  15.892 -1.0808  0.8057  1.3994
14596TIP3   OH265202   0.365   3.528  15.380 -0.4827  0.2767  0.4399
14596TIP3    H165203   0.452   3.522  15.418  0.4206  0.7605 -1.4445
14596TIP3    H265204   0.324   3.444  15.399  0.1717  0.2362  1.7956
14597TIP3   OH265205   6.495   5.275   0.202 -0.0131  0.0906 -0.2607
14597TIP3    H165206   6.456   5.333   0.137  0.1616 -1.1025 -1.4701
14597TIP3    H265207   6.450   5.192   0.191  0.7526 -0.4345  0.4289
14598TIP3   OH265208   2.719   5.854  13.321  0.2755 -0.0284  0.0056
14598TIP3    H165209   2.807   5.874  13.351 -0.4714  0.5123  2.0664
14598TIP3    H265210   2.662   5.893  13.388 -1.5622  0.5121 -1.7754
14599TIP3   OH265211   5.799   3.109  11.487 -0.5008  0.5734  0.1643
14599TIP3    H165212   5.773   3.164  11.413 -2.0776 -0.4598 -0.1219
14599TIP3    H265213   5.728   3.119  11.551  0.0085  0.1697  0.8060
14600TIP3   OH265214   1.940   3.192  16.772 -0.4129 -0.0642  0.4828
14600TIP3    H165215   2.007   3.229  16.830 -1.4118  1.5404  0.6508
14600TIP3    H265216   1.991   3.149  16.703  0.8387  2.1409 -0.0552
14601TIP3   OH265217   4.402   6.479   3.296 -0.3385  0.2253 -0.1663
14601TIP3    H165218   4.482   6.473   3.243 -0.8525  0.0413 -0.9362
14601TIP3    H265219   4.339   6.522   3.239 -1.2101 -0.9099 -0.0779
14602TIP3   OH265220   4.912   4.030   2.468  0.5649  0.5093  0.3425
14602TIP3    H165221   4.917   4.109   2.522  1.3380  0.9661 -0.3678
14602TIP3    H265222   4.935   4.060   2.380  1.1288 -0.5604  0.1134
14603TIP3   OH265223   4.131   5.321  15.932 -0.0970  0.1476 -0.1597
14603TIP3    H165224   4.170   5.240  15.965 -1.4377 -0.0679  1.0133
14603TIP3    H265225   4.145   5.384  16.003 -2.0380 -0.0133  0.4234
14604TIP3   OH265226   4.021   0.393  15.434  0.3270  0.0531  0.0489
14604TIP3    H165227   3.931   0.422  15.417 -0.2032 -0.7944  1.2698
14604TIP3    H265228   4.047   0.346  15.355 -1.1734 -1.7043  0.5410
14605TIP3   OH265229   3.644   6.142  12.966  0.6746  0.2220 -0.3590
14605TIP3    H165230   3.563   6.187  12.941  0.6670  0.1160 -0.5253
14605TIP3    H265231   3.632   6.120  13.059 -0.2366 -1.3896 -0.8263
14606TIP3   OH265232   3.878   2.283  16.060 -0.7335 -0.7460 -0.0747
14606TIP3    H165233   3.966   2.262  16.089 -0.8780 -0.3295  0.6762
14606TIP3    H265234   3.855   2.364  16.106 -0.5898  0.5265 -2.1037
14607TIP3   OH265235   0.409   0.682  16.547 -0.1538 -0.4476 -0.1861
14607TIP3    H165236   0.486   0.669  16.602 -0.3425  0.2672  0.2576
14607TIP3    H265237   0.335   0.654  16.600 -0.3996  0.8050  0.1836
14608TIP3   OH265238   3.888   5.397  11.698  0.0204  0.2289  0.6381
14608TIP3    H165239   3.797   5.422  11.686 -0.0025 -0.9339 -3.3105
14608TIP3    H265240   3.886   5.301  11.699  1.2026  0.1852  0.3826
14609TIP3   OH265241   2.009   1.994  15.825 -0.1159  0.3422  0.1423
14609TIP3    H165242   2.023   2.083  15.856 -0.6376  0.3311  0.4230
14609TIP3    H265243   1.923   1.997  15.782  0.0602  0.0746 -0.2405
14610TIP3   OH265244   1.726   6.633  17.072 -0.4044  0.2200  0.1648
14610TIP3    H165245   1.819   6.614  17.061 -0.6716 -0.1457 -1.9608
14610TIP3    H265246   1.724   6.713  17.125  1.0159 -0.7645  1.8203
14611TIP3   OH265247   4.179   4.836   6.180  0.5551 -0.3418 -0.0095
14611TIP3    H165248   4.153   4.785   6.257  1.8722 -1.7277 -0.4264
14611TIP3    H265249   4.185   4.926   6.211 -4.9313  0.3079  0.0580
14612TIP3   OH265250   2.443   4.784  10.570 -0.2207 -0.2983  0.1484
14612TIP3    H165251   2.537   4.797  10.565 -0.1548 -0.8688 -0.3142
14612TIP3    H265252   2.431   4.710  10.629 -0.4234  0.2197  0.7603
14613TIP3   OH265253   5.949   3.494   1.223  0.2155  0.4062  0.0332
14613TIP3    H165254   6.002   3.571   1.202 -0.8772  0.9619 -0.7985
14613TIP3    H265255   5.862   3.516   1.190 -0.2308 -0.9899  0.2459
14614TIP3   OH265256   3.887   4.203   2.687  0.0276  0.1515  0.0048
14614TIP3    H165257   3.982   4.197   2.698  0.1606  0.4819 -0.8591
14614TIP3    H265258   3.859   4.114   2.666  0.5655  0.4959 -2.5614
14615TIP3   OH265259   5.580   1.820   3.868  0.4755 -0.2070  0.2614
14615TIP3    H165260   5.663   1.796   3.909 -0.0514 -0.1143  1.4235
14615TIP3    H265261   5.514   1.792   3.930 -0.4861 -1.9205 -1.4235
14616TIP3   OH265262   3.852   6.436   4.149  0.0447  0.2211 -0.1965
14616TIP3    H165263   3.931   6.382   4.145 -0.4298 -0.5735  0.6337
14616TIP3    H265264   3.797   6.403   4.078  0.3577  0.6093 -0.6196
14617TIP3   OH265265   0.068   5.549  15.070  0.0192 -0.5582  0.3083
14617TIP3    H165266   0.020   5.616  15.120 -0.3515 -1.1284  0.7331
14617TIP3    H265267   0.093   5.484  15.135  2.1344  0.1106  0.2452
14618TIP3   OH265268   1.266   3.346  14.703  0.5301  0.8044  0.0499
14618TIP3    H165269   1.298   3.339  14.613  0.1293 -0.4020 -0.0186
14618TIP3    H265270   1.336   3.308  14.756  0.5970  1.1532  0.2133
14619TIP3   OH265271   1.338   0.174  14.547 -0.6147 -0.3869 -0.0938
14619TIP3    H165272   1.364   0.215  14.465  0.9623  0.3843  0.7325
14619TIP3    H265273   1.373   0.085  14.541  1.8375  0.4343  0.7196
14620TIP3   OH265274   2.177   1.543   6.530  0.4032 -0.2519  0.0797
14620TIP3    H165275   2.112   1.610   6.550  0.2206 -0.4721  0.2306
14620TIP3    H265276   2.142   1.463   6.569  1.3071 -0.1456  1.1429
14621TIP3   OH265277   0.831   6.687   1.740 -0.0947 -0.5719 -0.1379
14621TIP3    H165278   0.873   6.622   1.684  1.7745  0.6456 -0.2627
14621TIP3    H265279   0.766   6.729   1.683  0.5424 -0.5456 -0.8656
14622TIP3   OH265280   0.328   4.073  15.347  0.0212  0.1568  0.0116
14622TIP3    H165281   0.325   4.066  15.252  0.0825  1.8887 -0.1452
14622TIP3    H265282   0.236   4.087  15.373  0.1631  1.0191  0.0716
14623TIP3   OH265283   6.026   0.995   0.226 -0.8177  0.8393 -0.0881
14623TIP3    H165284   6.063   0.911   0.256  0.4434  0.9607 -1.2131
14623TIP3    H265285   6.088   1.026   0.160 -0.7010  3.1723  1.0118
14624TIP3   OH265286   1.463   1.166  14.005 -0.4147  0.1133  0.2256
14624TIP3    H165287   1.395   1.224  13.970 -1.1435 -1.0635 -0.3942
14624TIP3    H265288   1.499   1.213  14.079  0.2515  2.1413 -1.2880
14625TIP3   OH265289   0.936   2.755   0.492  0.2360 -0.4703  0.3002
14625TIP3    H165290   0.867   2.819   0.477  0.4705 -0.1162  0.7264
14625TIP3    H265291   0.898   2.693   0.554  0.4657 -0.0100  0.9018
14626TIP3   OH265292   6.067   5.064  16.503 -0.0580  0.7426  0.2455
14626TIP3    H165293   6.086   5.054  16.410 -0.1812  1.5000  0.1338
14626TIP3    H265294   5.972   5.049  16.510 -0.0023  0.3998  0.2951
14627TIP3   OH265295   1.282   3.748   0.345  0.0523  0.0226 -0.0657
14627TIP3    H165296   1.364   3.756   0.295 -0.4876  0.2662 -0.9253
14627TIP3    H265297   1.280   3.826   0.399  1.4549 -1.0202  1.6167
14628TIP3   OH265298   0.993   1.661   2.209  0.0590 -0.2678  0.2013
14628TIP3    H165299   1.040   1.689   2.288 -0.5735 -0.7032  0.7505
14628TIP3    H265300   1.049   1.689   2.136  0.6290  0.1927  0.7999
14629TIP3   OH265301   4.164   5.685  12.686 -0.4855  0.1442  0.0267
14629TIP3    H165302   4.089   5.703  12.629  1.0250  1.3863 -1.7197
14629TIP3    H265303   4.202   5.772  12.703  0.9184 -0.5023  0.3308
14630TIP3   OH265304   5.980   6.625  12.696  0.0515 -0.0617  0.2770
14630TIP3    H165305   6.013   6.537  12.678  0.2200 -0.2127  1.2790
14630TIP3    H265306   6.048   6.666  12.748  1.8233  2.0805 -3.2993
14631TIP3   OH265307   3.648   2.364   1.663  0.3537  0.2977  0.0243
14631TIP3    H165308   3.555   2.386   1.663  0.2876  0.2020 -2.0597
14631TIP3    H265309   3.671   2.354   1.756 -1.6649  0.4620  0.5733
14632TIP3   OH265310   2.677   0.558  11.087  0.2351  0.7585 -0.0926
14632TIP3    H165311   2.610   0.589  11.148  1.0204  2.9069 -0.2320
14632TIP3    H265312   2.629   0.538  11.006 -0.2584  2.3288 -0.2144
14633TIP3   OH265313   5.152   3.940  14.040 -0.1696  0.0534  0.3383
14633TIP3    H165314   5.086   3.877  14.013  2.0975 -1.7376 -1.4740
14633TIP3    H265315   5.166   3.995  13.964  0.9384 -0.1036  0.4019
14634TIP3   OH265316   4.030   1.967  15.654 -0.3661 -0.2742  0.1749
14634TIP3    H165317   3.957   2.028  15.654 -0.9467 -0.9430  1.3824
14634TIP3    H265318   3.993   1.884  15.684  0.6772 -0.8934 -0.1765
14635TIP3   OH265319   0.365   4.059  13.818  0.5426  0.1911  0.0364
14635TIP3    H165320   0.379   3.981  13.872  1.4275  0.5145  0.3030
14635TIP3    H265321   0.287   4.039  13.766  0.9373 -0.9982 -0.1365
14636TIP3   OH265322   1.907   2.949  10.950 -0.5557  0.1892 -0.6619
14636TIP3    H165323   1.831   2.892  10.957  0.6042 -1.2544  0.7980
14636TIP3    H265324   1.963   2.906  10.885 -1.4762  1.9369 -2.7503
14637TIP3   OH265325   1.537   3.036  16.465  0.4991 -0.7098  0.5649
14637TIP3    H165326   1.632   3.042  16.452  0.8775 -1.0123  2.7489
14637TIP3    H265327   1.515   2.947  16.438  0.8322 -0.6454  0.0616
14638TIP3   OH265328   2.738   0.522  14.633 -0.0390  0.3257  0.2071
14638TIP3    H165329   2.714   0.608  14.600  1.9182  0.9232  0.2168
14638TIP3    H265330   2.833   0.518  14.625  0.3303 -0.4807  3.3057
14639TIP3   OH265331   1.018   5.822   5.639 -0.2103 -0.3123  0.1565
14639TIP3    H165332   1.089   5.876   5.604 -1.8198  1.5094 -0.5020
14639TIP3    H265333   0.976   5.879   5.704 -1.1296 -1.3119  0.4549
14640TIP3   OH265334   0.055   5.660   2.886  0.1814  0.7447 -0.4343
14640TIP3    H165335   0.060   5.567   2.862  0.3445  0.9048 -1.0334
14640TIP3    H265336   0.138   5.678   2.930 -0.3890  0.2836  0.9015
14641TIP3   OH265337   3.258   3.142  11.877 -0.4841 -0.2971 -0.4644
14641TIP3    H165338   3.226   3.052  11.870 -1.7378  0.2334 -2.5475
14641TIP3    H265339   3.341   3.142  11.829 -0.1313 -0.4827  0.1400
14642TIP3   OH265340   5.518   6.475  17.090  0.1262 -0.3164 -0.2882
14642TIP3    H165341   5.439   6.513  17.130 -0.6095 -2.9599  0.9534
14642TIP3    H265342   5.590   6.517  17.137 -0.6953 -2.2583  3.0510
14643TIP3   OH265343   2.539   5.926   5.869 -0.4473  0.0723  0.2416
14643TIP3    H165344   2.610   5.890   5.922 -0.7321 -0.4681  0.2700
14643TIP3    H265345   2.483   5.972   5.931  1.2540  2.8544 -0.1216
14644TIP3   OH265346   3.348   4.414   4.517  0.0401  0.1217  0.1006
14644TIP3    H165347   3.366   4.466   4.596 -0.5831 -0.6293  0.7604
14644TIP3    H265348   3.257   4.387   4.527 -0.6065  1.4419 -1.7458
14645TIP3   OH265349   0.282   2.056   5.741  0.0401  0.2491  0.4625
14645TIP3    H165350   0.296   2.122   5.808  1.1256  0.6719 -0.1544
14645TIP3    H265351   0.223   2.097   5.678 -0.5146  0.0634  0.8590
14646TIP3   OH265352   1.464   2.470   3.916  0.0342  0.1595  0.3666
14646TIP3    H165353   1.525   2.402   3.890 -1.1962 -1.1699  0.8061
14646TIP3    H265354   1.438   2.446   4.005 -0.7896  0.9276  0.3500
14647TIP3   OH265355   2.556   2.964  12.250 -0.0251  0.2388  0.0625
14647TIP3    H165356   2.587   2.899  12.313  0.9159  1.2149  0.6297
14647TIP3    H265357   2.497   3.020  12.300  0.6518  0.9599  0.0700
14648TIP3   OH265358   0.586   4.079   2.367  0.4182 -0.0058  0.1986
14648TIP3    H165359   0.660   4.070   2.308  0.1827  1.3731 -0.3515
14648TIP3    H265360   0.556   4.169   2.355 -1.4580 -0.5653  0.2672
14649TIP3   OH265361   0.569   2.282  16.455  0.5401  0.0860 -0.4165
14649TIP3    H165362   0.486   2.307  16.496  1.0798  0.7696  0.2911
14649TIP3    H265363   0.636   2.331  16.503  1.6536 -2.5273  0.8895
14650TIP3   OH265364   5.600   6.459   2.037 -0.1291  0.5530  0.0145
14650TIP3    H165365   5.518   6.506   2.047 -1.3481 -1.3468 -0.6461
14650TIP3    H265366   5.619   6.425   2.125  0.1516  1.2918  0.2438
14651TIP3   OH265367   1.202   2.946  13.923  0.5065  0.4798 -0.1377
14651TIP3    H165368   1.137   2.981  13.863  0.2652  0.9843  0.4137
14651TIP3    H265369   1.162   2.952  14.009  2.1816  3.1813  0.5729
14652TIP3   OH265370   2.628   4.277  15.168 -0.2898  0.4610  0.0508
14652TIP3    H165371   2.694   4.260  15.101  0.5063  0.2943  0.8505
14652TIP3    H265372   2.549   4.234  15.136  0.5973 -1.3094  0.1194
14653TIP3   OH265373   3.524   6.690   1.416  0.3347 -0.5020  0.4918
14653TIP3    H165374   3.504   6.637   1.339 -0.7891 -1.3022  1.2973
14653TIP3    H265375   3.619   6.699   1.414  0.7554 -3.5329  0.8592
14654TIP3   OH265376   6.490   2.655   0.829  0.3722 -0.0900 -0.1922
14654TIP3    H165377   6.551   2.604   0.883 -0.0589  0.3994  0.7815
14654TIP3    H265378   6.418   2.595   0.812  1.7084 -1.1656 -2.5658
14655TIP3   OH265379   3.548   5.203  17.024 -0.5961  0.2363 -0.3979
14655TIP3    H165380   3.613   5.234  16.961 -1.0337  0.9704 -0.4996
14655TIP3    H265381   3.568   5.250  17.105  0.0250 -0.7779  0.0474
14656TIP3   OH265382   5.856   0.269  10.913  0.0985 -0.2716 -0.3748
14656TIP3    H165383   5.907   0.211  10.970 -0.7499  0.7869  1.5556
14656TIP3    H265384   5.862   0.229  10.826  1.5428 -1.8944  0.4198
14657TIP3   OH265385   3.432   0.309   6.384 -0.0922 -0.1438  0.2454
14657TIP3    H165386   3.425   0.399   6.418  1.0835  0.4327 -0.9449
14657TIP3    H265387   3.342   0.276   6.386 -0.8108  1.6217 -0.7148
14658TIP3   OH265388   1.055   2.843   1.892  0.1506  0.3300 -0.5285
14658TIP3    H165389   1.061   2.839   1.796 -0.6283  2.2128 -0.7002
14658TIP3    H265390   1.147   2.850   1.920  0.3373  1.0075 -1.2421
14659TIP3   OH265391   3.846   5.420   0.059 -0.3320 -0.7972  0.8387
14659TIP3    H165392   3.770   5.421   0.002  0.4691  1.2143 -0.2959
14659TIP3    H265393   3.862   5.327   0.077 -1.8565 -1.3489 -0.4938
14660TIP3   OH265394   0.850   3.185   4.998 -0.2784 -0.1134  0.6060
14660TIP3    H165395   0.824   3.277   4.988  2.0766  0.4892 -0.6135
14660TIP3    H265396   0.862   3.173   5.092  0.7228  1.2440  0.6711
14661TIP3   OH265397   1.882   2.571  11.001 -0.2309 -0.0560  0.0633
14661TIP3    H165398   1.930   2.506  11.052 -1.0208 -1.1139 -0.5126
14661TIP3    H265399   1.823   2.612  11.064  0.1940  0.0333  0.4062
14662TIP3   OH265400   4.954   4.510   4.858 -0.3467  0.6637  0.3725
14662TIP3    H165401   4.865   4.535   4.833 -0.4737 -1.4765 -1.7389
14662TIP3    H265402   4.943   4.462   4.940 -1.2697 -0.1490 -0.2021
14663TIP3   OH265403   2.849   3.930  11.805  0.3284 -0.6083 -0.0341
14663TIP3    H165404   2.887   3.850  11.769  0.3531 -0.1155 -1.1479
14663TIP3    H265405   2.787   3.959  11.738 -0.3675 -0.1984  0.7718
14664TIP3   OH265406   6.597   1.827   5.848  0.0378  0.3357 -0.1015
14664TIP3    H165407   6.627   1.790   5.766  0.3108  0.2023  0.0551
14664TIP3    H265408   6.634   1.769   5.915  0.3578  0.8064  0.1386
14665TIP3   OH265409   6.717   4.895  13.119  0.0474  0.1906  0.0084
14665TIP3    H165410   6.801   4.852  13.100  0.1323  0.3571  0.0095
14665TIP3    H265411   6.673   4.900  13.034 -0.6809 -1.4019  0.2386
14666TIP3   OH265412   3.233   5.089   2.532 -0.6434  0.1922  0.2666
14666TIP3    H165413   3.282   5.171   2.535  0.2259 -0.2445 -1.0536
14666TIP3    H265414   3.178   5.096   2.455 -0.4386 -0.5250  0.0476
14667TIP3   OH265415   1.066   2.703  12.036  0.2575 -0.1543 -0.4567
14667TIP3    H165416   1.038   2.664  11.953  0.7857 -1.1991 -0.1727
14667TIP3    H265417   1.001   2.770  12.055  0.7818  0.9587 -2.3126
14668TIP3   OH265418   1.389   3.015   0.137 -0.1633  0.0384 -0.3902
14668TIP3    H165419   1.380   3.105   0.106 -1.8970  0.2418  0.5528
14668TIP3    H265420   1.362   3.018   0.228  0.2742 -1.3590 -0.1822
14669TIP3   OH265421   4.301   2.825   0.148  0.0167  0.2092 -0.3179
14669TIP3    H165422   4.217   2.784   0.127 -0.1094 -0.0342  0.5923
14669TIP3    H265423   4.366   2.763   0.116 -0.1147  0.9007 -2.0098
14670TIP3   OH265424   3.485   0.282   3.880 -0.0334 -0.0220  0.0442
14670TIP3    H165425   3.462   0.368   3.846  0.0675 -0.0166 -0.0116
14670TIP3    H265426   3.430   0.271   3.958  0.7989  0.5886  0.7387
14671TIP3   OH265427   3.444   1.772   3.390 -0.6297 -0.0093 -0.1335
14671TIP3    H165428   3.524   1.802   3.434 -0.9855  0.7454  0.0151
14671TIP3    H265429   3.455   1.677   3.383 -0.3612 -0.1003  1.1952
14672TIP3   OH265430   3.943   6.111  13.563  0.1221 -0.0816 -0.0333
14672TIP3    H165431   4.023   6.136  13.518  1.0682 -1.2830  0.8974
14672TIP3    H265432   3.895   6.193  13.576  0.1280  0.3754 -2.5449
14673TIP3   OH265433   0.092   0.925  13.175 -0.0592 -0.7200  0.2815
14673TIP3    H165434   0.188   0.919  13.168  0.3006  3.1870 -0.6337
14673TIP3    H265435   0.076   0.944  13.267  0.2906  0.6939  0.0690
14674TIP3   OH265436   2.989   0.051  15.069 -0.3586  0.8557 -0.0454
14674TIP3    H165437   3.075   0.091  15.083  1.6034 -3.0580  0.2778
14674TIP3    H265438   3.004  -0.020  15.007 -2.6190 -1.9275  2.2685
14675TIP3   OH265439   2.970   1.455  15.280  0.0030 -0.6890  0.7159
14675TIP3    H165440   2.933   1.367  15.276  0.4928 -0.8590 -0.7039
14675TIP3    H265441   2.964   1.487  15.189 -0.2187  0.7582  1.2166
14676TIP3   OH265442   6.671   3.135   2.154 -0.1382  0.2340  0.3026
14676TIP3    H165443   6.707   3.224   2.161 -0.4358  0.4673 -0.9081
14676TIP3    H265444   6.576   3.148   2.158 -0.1942  0.0152 -0.2508
14677TIP3   OH265445   1.471   5.871  13.185 -0.1556 -0.3242  0.0320
14677TIP3    H165446   1.520   5.813  13.128 -0.7299 -0.9934  0.2065
14677TIP3    H265447   1.416   5.922  13.126 -0.0950 -0.3840 -0.0763
14678TIP3   OH265448   4.221   5.370   3.063 -0.1987 -0.0865  0.6663
14678TIP3    H165449   4.305   5.328   3.082 -0.5224 -0.3433  1.5851
14678TIP3    H265450   4.183   5.388   3.149 -1.1436 -0.0715  0.2607
14679TIP3   OH265451   3.928   4.519  15.487  0.9429 -0.3500  0.0497
14679TIP3    H165452   3.888   4.474  15.561  1.4223 -0.2612  0.3647
14679TIP3    H265453   3.924   4.612  15.510 -2.1306  0.0300 -1.5946
14680TIP3   OH265454   5.256   2.485  11.317  0.3262 -0.0868  0.0759
14680TIP3    H165455   5.178   2.531  11.286  0.1909 -1.3578 -1.5791
14680TIP3    H265456   5.235   2.460  11.407 -1.7029 -1.4809 -0.7249
14681TIP3   OH265457   6.139   2.570  11.875 -0.1522 -0.0072 -0.4775
14681TIP3    H165458   6.077   2.626  11.828  0.3452  0.2817 -0.7933
14681TIP3    H265459   6.098   2.556  11.960 -1.2396 -0.8393 -1.1126
14682TIP3   OH265460   1.301   2.829  16.772  0.6468  0.2104  0.4020
14682TIP3    H165461   1.219   2.833  16.722  0.1321  2.1422  1.3119
14682TIP3    H265462   1.359   2.775  16.719 -0.9737 -0.6091 -0.6165
14683TIP3   OH265463   1.120   5.123  13.911 -0.6887 -0.2573  0.0799
14683TIP3    H165464   1.177   5.193  13.880  0.8692 -1.5864 -0.1905
14683TIP3    H265465   1.154   5.044  13.869 -3.0936 -1.0621 -0.5279
14684TIP3   OH265466   5.425   1.679   2.830  0.0669 -0.5836  0.4686
14684TIP3    H165467   5.393   1.755   2.780  1.8438  0.5024  0.8623
14684TIP3    H265468   5.361   1.667   2.900 -1.9147 -1.4759 -1.3896
14685TIP3   OH265469   4.747   6.646   1.154  0.0715  0.6782  0.6550
14685TIP3    H165470   4.680   6.710   1.178 -1.0070 -0.4588  0.7620
14685TIP3    H265471   4.707   6.593   1.085  1.4922  1.0495 -0.5173
14686TIP3   OH265472   0.966   4.827   4.819 -0.6764 -0.3403  0.0149
14686TIP3    H165473   0.986   4.753   4.876 -0.0163  0.1567  0.4548
14686TIP3    H265474   1.032   4.893   4.842 -1.0249  0.2453 -0.6213
14687TIP3   OH265475   3.762   4.281   4.740  0.3380 -0.2654  0.0642
14687TIP3    H165476   3.748   4.315   4.652 -0.9560  2.2005  1.1264
14687TIP3    H265477   3.686   4.226   4.758  1.6900 -2.6918 -1.0852
14688TIP3   OH265478   1.665   0.515  13.030 -0.6879 -0.2010  0.5965
14688TIP3    H165479   1.571   0.501  13.017 -0.5326 -0.9094  0.1502
14688TIP3    H265480   1.702   0.511  12.942 -0.0626 -1.4113  0.8834
14689TIP3   OH265481   2.731   5.955  12.636  0.4331 -0.1146  0.2137
14689TIP3    H165482   2.757   5.880  12.583 -1.5802  0.0104 -1.0585
14689TIP3    H265483   2.641   5.936  12.663 -0.5284  2.2238 -1.0273
14690TIP3   OH265484   4.499   0.399  11.306 -0.1537  0.2855 -0.6614
14690TIP3    H165485   4.495   0.351  11.389  0.2788  1.8176  0.2817
14690TIP3    H265486   4.445   0.476  11.320 -1.0483 -0.0111 -2.2408
14691TIP3   OH265487   2.194   2.660  13.363  0.5866 -0.7101  0.0666
14691TIP3    H165488   2.133   2.669  13.290  0.6253 -0.1719  0.0960
14691TIP3    H265489   2.154   2.593  13.419  0.6970 -1.3312 -0.5732
14692TIP3   OH265490   5.983   3.369  16.627 -0.1534  0.4497  0.5941
14692TIP3    H165491   5.958   3.281  16.600  1.2681  0.2994 -0.3571
14692TIP3    H265492   5.939   3.427  16.564 -2.4001  0.5809  2.1805
14693TIP3   OH265493   5.806   2.373   3.283  0.2178  0.5889 -0.2265
14693TIP3    H165494   5.891   2.335   3.259  0.0960 -0.1633  0.5118
14693TIP3    H265495   5.829   2.452   3.332  0.5283 -0.0875  0.7675
14694TIP3   OH265496   5.418   0.067  11.474  0.5389 -0.1351  0.9896
14694TIP3    H165497   5.490   0.012  11.506  2.0024  0.1875 -1.3987
14694TIP3    H265498   5.461   0.149  11.448 -0.7883  0.3004  0.0565
14695TIP3   OH265499   1.588   1.551  14.068 -0.4461 -0.2503  0.2297
14695TIP3    H165500   1.558   1.498  14.142 -1.6966 -1.7775 -1.3038
14695TIP3    H265501   1.549   1.637  14.084  0.0053 -0.3121  1.7708
14696TIP3   OH265502   1.556   0.013   5.086  0.1725  0.0096 -0.0520
14696TIP3    H165503   1.509   0.093   5.060 -1.2610 -0.6751  0.3776
14696TIP3    H265504   1.575  -0.031   5.003 -0.3578  0.0667 -0.2080
14697TIP3   OH265505   1.974   2.364  11.155  0.0844 -0.1648  0.2663
14697TIP3    H165506   2.000   2.327  11.071  1.2922  1.2011 -0.0096
14697TIP3    H265507   2.033   2.323  11.218  0.1917 -0.0794  0.2220
14698TIP3   OH265508   1.559   3.719  13.161 -0.1298 -0.6327  0.3350
14698TIP3    H165509   1.529   3.678  13.242  1.6028 -0.6209  1.0107
14698TIP3    H265510   1.581   3.809  13.186  0.5432 -0.6671 -0.1198
14699TIP3   OH265511   5.549   3.672  15.416  0.9101 -0.1084  0.1111
14699TIP3    H165512   5.617   3.651  15.353  0.2549 -0.5816 -0.4483
14699TIP3    H265513   5.526   3.589  15.457  0.9783  0.1157  0.6218
14700TIP3   OH265514   6.702   0.139  16.042  0.5351 -0.1080 -0.2097
14700TIP3    H165515   6.770   0.098  15.988  0.7402 -0.7163  0.4853
14700TIP3    H265516   6.689   0.225  16.003  0.0567 -0.8408 -1.7712
14701TIP3   OH265517   6.674   5.145  11.798  0.2523 -0.2718 -0.3335
14701TIP3    H165518   6.598   5.157  11.855 -0.2006 -0.7820 -0.8245
14701TIP3    H265519   6.735   5.213  11.826  0.1015 -0.6047  0.8704
14702TIP3   OH265520   3.983   6.651   4.705  0.4426  0.2078  0.7870
14702TIP3    H165521   4.035   6.598   4.645 -0.7328 -0.8744  0.6940
14702TIP3    H265522   4.012   6.741   4.688 -0.2251  0.0255 -1.8102
14703TIP3   OH265523   2.604   2.652  15.258  0.6062 -0.3797 -0.1588
14703TIP3    H165524   2.536   2.674  15.194 -1.4693  0.3033  2.1201
14703TIP3    H265525   2.683   2.639  15.206 -0.6266  1.4889 -2.7039
14704TIP3   OH265526   5.206   6.734   0.547  0.1830 -0.2829 -0.1015
14704TIP3    H165527   5.139   6.779   0.496 -0.7676  0.5846  1.8131
14704TIP3    H265528   5.193   6.641   0.527 -1.3629 -0.1003 -0.0869
14705TIP3   OH265529   3.877   5.986  15.409 -1.3301  0.4048 -0.4078
14705TIP3    H165530   3.917   6.043  15.343  2.8426  1.7225  2.8791
14705TIP3    H265531   3.919   5.901  15.397 -1.5487  0.2673 -0.2163
14706TIP3   OH265532   2.381   5.428  12.493 -0.6626 -0.0600  0.5347
14706TIP3    H165533   2.318   5.359  12.514 -1.1993 -0.5075 -2.1825
14706TIP3    H265534   2.462   5.400  12.535 -1.7123 -0.5707  2.3171
14707TIP3   OH265535   3.012   4.927  15.019 -0.7262 -0.5976 -0.2637
14707TIP3    H165536   2.982   4.838  15.000  1.4106 -1.4499  0.0217
14707TIP3    H265537   3.101   4.915  15.052 -0.5092  1.6437  0.1020
14708TIP3   OH265538   0.298   2.986  12.924 -0.0906 -0.2638 -0.2869
14708TIP3    H165539   0.264   2.904  12.960  0.5112  0.3217  1.7026
14708TIP3    H265540   0.390   2.968  12.904 -0.3962 -0.5578 -1.5247
14709TIP3   OH265541   6.789   2.241   5.890 -0.5568 -1.0795  0.4974
14709TIP3    H165542   6.760   2.173   5.952 -0.0456 -0.6458  1.2270
14709TIP3    H265543   6.868   2.277   5.930 -0.3363 -0.6447 -0.3194
14710TIP3   OH265544   1.721   1.645   3.143  0.4954  0.1428 -0.1484
14710TIP3    H165545   1.773   1.596   3.079  2.5395  1.3412  0.5196
14710TIP3    H265546   1.668   1.705   3.090  1.4609  0.4623 -0.7712
14711TIP3   OH265547   5.143   0.032  15.975 -0.3113  0.3963 -0.2934
14711TIP3    H165548   5.093  -0.040  16.014  0.6304 -1.0425 -1.6487
14711TIP3    H265549   5.145   0.099  16.044 -0.9942 -0.9576  1.1098
14712TIP3   OH265550   1.715   1.325  11.927 -0.0254  0.1350 -0.0130
14712TIP3    H165551   1.788   1.316  11.988  0.0283  0.9517  0.0600
14712TIP3    H265552   1.669   1.242  11.932  1.2552 -0.6340 -0.5240
14713TIP3   OH265553   3.065   1.266   4.472 -0.2571  0.7203 -0.3155
14713TIP3    H165554   3.103   1.352   4.489 -0.6167  0.4465  2.2556
14713TIP3    H265555   3.140   1.208   4.459  0.0467  1.0424 -0.0104
14714TIP3   OH265556   1.063   4.107  16.463  0.2512 -0.0268  0.0372
14714TIP3    H165557   0.978   4.117  16.505  0.0793 -1.0611 -0.0489
14714TIP3    H265558   1.086   4.015  16.476  0.0474 -0.4816 -2.3827
14715TIP3   OH265559   2.044   1.671  14.152 -0.1746  0.0619  0.3842
14715TIP3    H165560   2.090   1.672  14.068  0.8098 -0.7932  0.8903
14715TIP3    H265561   1.985   1.596  14.146 -0.4308  0.2631  0.3107
14716TIP3   OH265562   3.259   6.593   0.339 -0.1018  0.1155 -0.0025
14716TIP3    H165563   3.304   6.587   0.423  0.3555 -0.6552 -0.2950
14716TIP3    H265564   3.242   6.502   0.313 -0.1849  0.3397 -0.7732
14717TIP3   OH265565   5.933   4.099  15.766  0.0804 -0.3455 -0.3478
14717TIP3    H165566   5.954   4.164  15.832  1.5176 -0.0275 -1.0750
14717TIP3    H265567   5.894   4.150  15.694 -0.8783 -0.6030 -0.0223
14718TIP3   OH265568   3.313   2.027  14.283 -0.1071 -0.4153  0.0862
14718TIP3    H165569   3.280   2.055  14.369  0.1110 -1.1373  0.4218
14718TIP3    H265570   3.253   1.957  14.257  0.8692 -1.4393  0.4952
14719TIP3   OH265571   1.557   4.149   1.043 -0.4319 -0.1652 -0.1935
14719TIP3    H165572   1.547   4.084   0.974  0.1183  0.4123 -0.8365
14719TIP3    H265573   1.640   4.193   1.022 -1.2778  1.4177 -0.3658
14720TIP3   OH265574   5.337   5.465   3.641  0.2741  0.2805  0.5412
14720TIP3    H165575   5.255   5.472   3.592  0.5791  2.0020  0.1901
14720TIP3    H265576   5.332   5.537   3.704  2.6233  2.2071 -1.2918
14721TIP3   OH265577   5.960   3.458   3.155  0.3670  0.1043 -0.5304
14721TIP3    H165578   5.889   3.506   3.198  0.5867  0.5164 -0.6174
14721TIP3    H265579   5.958   3.371   3.195  1.6828  0.9870  1.6606
14722TIP3   OH265580   1.540   5.989   6.338 -0.3537  0.2648 -0.5711
14722TIP3    H165581   1.578   5.959   6.256  1.4498  1.5308 -0.2608
14722TIP3    H265582   1.541   5.912   6.395  2.4707  0.3550 -0.3595
14723TIP3   OH265583   0.792   4.652   5.682 -0.3355  0.1782 -0.7730
14723TIP3    H165584   0.821   4.565   5.709  0.7858  0.4078 -1.1866
14723TIP3    H265585   0.726   4.636   5.615  1.5548 -0.3799 -2.5953
14724TIP3   OH265586   6.427   1.554   4.738  0.0080 -0.1754 -0.3173
14724TIP3    H165587   6.382   1.483   4.784 -0.8656 -0.1100 -1.0624
14724TIP3    H265588   6.499   1.510   4.692 -1.0455 -0.7226 -1.4720
14725TIP3   OH265589   5.202   4.781  14.709  0.6093 -0.1550 -0.3330
14725TIP3    H165590   5.149   4.860  14.720 -0.0632 -0.5622 -0.6331
14725TIP3    H265591   5.256   4.778  14.788 -1.0346 -0.6531  0.8363
14726TIP3   OH265592   3.717   6.711  16.863 -0.0991 -0.4511  0.3162
14726TIP3    H165593   3.782   6.673  16.922  0.3027  0.5970  0.5627
14726TIP3    H265594   3.634   6.674  16.891 -0.0540  0.7654  2.1790
14727TIP3   OH265595   4.461   2.677  16.306  0.0293  0.3133  0.2620
14727TIP3    H165596   4.461   2.648  16.397 -0.3425  0.5426  0.3391
14727TIP3    H265597   4.487   2.601  16.256  0.7706  0.3312  0.6061
14728TIP3   OH265598   6.141   6.061  10.746 -0.2236 -0.2847  0.3798
14728TIP3    H165599   6.122   5.967  10.748 -3.3283  0.1222 -1.4955
14728TIP3    H265600   6.190   6.074  10.665 -2.5406 -0.0701 -1.1100
14729TIP3   OH265601   1.448   5.768   0.849 -0.1244  0.0790 -0.2336
14729TIP3    H165602   1.402   5.850   0.866 -0.1459  0.3151 -1.3676
14729TIP3    H265603   1.520   5.792   0.791  0.2869 -0.5960 -0.0136
14730TIP3   OH265604   4.504   4.161  13.365  0.2994 -0.1674  0.2929
14730TIP3    H165605   4.467   4.116  13.289 -1.3126  1.4061  0.0859
14730TIP3    H265606   4.513   4.252  13.337 -0.3458  0.4445  1.9615
14731TIP3   OH265607   3.029   2.644   2.545 -0.2397  0.7182 -0.1493
14731TIP3    H165608   2.992   2.592   2.616  0.6254  0.2647 -0.0181
14731TIP3    H265609   3.118   2.610   2.534  0.6978  2.7743  0.5900
14732TIP3   OH265610   6.275   6.168   3.944  0.2335 -0.3944 -0.2355
14732TIP3    H165611   6.264   6.073   3.956  1.6152 -0.7917 -1.7557
14732TIP3    H265612   6.231   6.186   3.861  0.7737  0.1228 -0.4137
14733TIP3   OH265613   4.505   6.030   4.764  0.3823  0.4271  0.1988
14733TIP3    H165614   4.513   6.112   4.715 -0.0346  0.8519  0.8261
14733TIP3    H265615   4.419   5.996   4.739  0.3933  0.3772  0.2299
14734TIP3   OH265616   5.085   1.023   2.333  0.0125  0.0944  0.6145
14734TIP3    H165617   5.172   1.019   2.293 -0.7964 -2.3111 -1.1687
14734TIP3    H265618   5.039   1.091   2.284  0.3482  0.1403  0.3620
14735TIP3   OH265619   3.478   2.584   5.257  0.3259  0.5949 -0.1220
14735TIP3    H165620   3.565   2.601   5.222  0.4649 -1.7513 -1.1165
14735TIP3    H265621   3.474   2.489   5.267 -1.8570  0.6996  0.6122
14736TIP3   OH265622   5.319   2.447  13.057  0.7036 -0.1053  0.2766
14736TIP3    H165623   5.362   2.447  12.971  1.1019 -1.9139  0.4222
14736TIP3    H265624   5.391   2.441  13.120  0.3667  0.0563  0.6854
14737TIP3   OH265625   0.460   1.433   5.438 -0.7060 -0.2426 -0.1785
14737TIP3    H165626   0.415   1.372   5.497  0.1875 -0.6426  0.1054
14737TIP3    H265627   0.492   1.378   5.367 -2.0675  0.2812 -1.2594
14738TIP3   OH265628   6.675   0.048   2.862 -0.2250 -0.0866  0.6725
14738TIP3    H165629   6.728  -0.020   2.820 -1.6078 -2.0068  1.8189
14738TIP3    H265630   6.732   0.084   2.930  1.1800  1.3266 -1.1770
14739TIP3   OH265631   1.888   4.098  16.347 -0.2148 -0.1710  0.3932
14739TIP3    H165632   1.801   4.121  16.317  0.4284  1.7994 -0.1039
14739TIP3    H265633   1.936   4.074  16.267 -0.0215 -0.2738  0.5372
14740TIP3   OH265634   1.626   6.005  12.261  0.0986  0.4184 -0.1765
14740TIP3    H165635   1.603   6.094  12.288 -0.8546  0.3951 -0.8699
14740TIP3    H265636   1.693   5.978  12.324 -0.7741  1.0183  1.0551
14741TIP3   OH265637   3.808   3.504  13.181 -0.3406 -0.4815  0.3305
14741TIP3    H165638   3.826   3.538  13.093 -1.2480 -2.7479 -0.8173
14741TIP3    H265639   3.850   3.566  13.240  1.5101  0.3870 -1.7552
14742TIP3   OH265640   4.965   0.016  12.388  0.0215  0.0181 -0.0750
14742TIP3    H165641   5.032   0.059  12.441 -0.8238  1.3562 -0.0423
14742TIP3    H265642   5.000   0.017  12.299  0.9631 -1.2406  0.2578
14743TIP3   OH265643   1.500   4.998  13.767  0.4046 -0.0041 -0.0447
14743TIP3    H165644   1.556   4.975  13.842  1.3798  0.0791 -0.7206
14743TIP3    H265645   1.550   5.065  13.720 -0.0737 -0.2399 -0.9110
14744TIP3   OH265646   1.728   5.071   4.240 -0.0089 -0.0458  0.1224
14744TIP3    H165647   1.762   5.016   4.170 -0.9005  0.9572 -1.1392
14744TIP3    H265648   1.634   5.055   4.239 -0.3037  1.5264 -0.3309
14745TIP3   OH265649   2.465   6.420  17.139  0.0348  0.1554 -0.2862
14745TIP3    H165650   2.488   6.327  17.139  1.1835  0.3883 -2.3697
14745TIP3    H265651   2.481   6.449  17.050 -0.7877  2.2706  0.1926
14746TIP3   OH265652   2.741   1.785   0.763 -0.1548 -0.2577 -0.0710
14746TIP3    H165653   2.694   1.702   0.761  1.2641 -1.0916  0.0573
14746TIP3    H265654   2.752   1.809   0.671 -0.1929 -0.4403 -0.1233
14747TIP3   OH265655   1.168   5.932  15.577  0.1439  0.1390  0.1561
14747TIP3    H165656   1.215   5.849  15.570 -0.0356  0.1175 -0.9615
14747TIP3    H265657   1.090   5.911  15.628 -0.3858 -0.6145 -0.9282
14748TIP3   OH265658   1.549   4.032  14.595 -0.2084  0.2994  0.4455
14748TIP3    H165659   1.635   4.062  14.627  0.4284 -0.5336 -0.4381
14748TIP3    H265660   1.556   3.937  14.594 -1.2345  0.2181  0.5803
14749TIP3   OH265661   5.123   6.442   3.604 -0.1575 -0.0129 -0.3893
14749TIP3    H165662   5.126   6.412   3.695  0.2953  1.5572  0.1434
14749TIP3    H265663   5.035   6.479   3.594  0.3738  1.4274 -0.0133
14750TIP3   OH265664   3.432   4.612   0.988 -1.2597 -0.2833  0.0092
14750TIP3    H165665   3.464   4.582   0.903 -0.1273 -0.8035  0.6019
14750TIP3    H265666   3.468   4.700   0.998  0.3393 -0.9934  0.8215
14751TIP3   OH265667   5.605   2.662  13.480 -0.3708 -0.1500 -0.2644
14751TIP3    H165668   5.534   2.603  13.506  0.7645 -2.5170 -2.0904
14751TIP3    H265669   5.583   2.687  13.390 -0.2817  1.4202  0.1244
14752TIP3   OH265670   4.753   3.901  15.376 -0.3815 -0.2173 -0.3025
14752TIP3    H165671   4.838   3.861  15.355 -1.6706 -1.3301 -4.5821
14752TIP3    H265672   4.766   3.994  15.362  0.6353 -0.0805  1.3788
14753TIP3   OH265673   4.909   5.677   5.424  0.2636 -0.1868 -0.2714
14753TIP3    H165674   4.982   5.672   5.363  1.4849  0.6534  1.0506
14753TIP3    H265675   4.915   5.596   5.475 -0.3251 -0.5599 -0.7812
14754TIP3   OH265676   1.640   3.424  14.290  1.0252  0.1691  0.1442
14754TIP3    H165677   1.659   3.505  14.337  0.0052  1.4880 -1.5884
14754TIP3    H265678   1.617   3.453  14.201  2.6181 -2.1463 -1.1467
14755TIP3   OH265679   2.965   0.830   2.729  0.1626 -0.4371 -0.5290
14755TIP3    H165680   3.046   0.808   2.683  0.3491 -0.3577 -0.2447
14755TIP3    H265681   2.915   0.883   2.667  0.3331 -0.4755 -0.6994
14756TIP3   OH265682   5.015   2.167  12.374 -0.4452  0.0724  0.7059
14756TIP3    H165683   4.935   2.130  12.410 -2.1690  0.7378 -2.1422
14756TIP3    H265684   5.024   2.126  12.288  0.6667  2.1140 -0.2269
14757TIP3   OH265685   6.712   3.401  14.122  0.3028 -0.3673 -0.4421
14757TIP3    H165686   6.767   3.461  14.071  0.1812  0.3116  0.2081
14757TIP3    H265687   6.704   3.443  14.208 -1.2159 -0.4449 -0.5164
14758TIP3   OH265688   0.716   4.606   0.404  0.3485  0.0784 -0.0034
14758TIP3    H165689   0.776   4.647   0.341 -0.6341 -0.0532 -1.0436
14758TIP3    H265690   0.765   4.532   0.438  1.0553  0.3949 -0.2899
14759TIP3   OH265691   6.012   0.350   4.869 -0.4456 -0.1020  0.0785
14759TIP3    H165692   5.966   0.416   4.920 -0.1567  1.5561 -1.6951
14759TIP3    H265693   5.943   0.287   4.845 -0.6299 -0.7822  2.1677
14760TIP3   OH265694   4.435   2.941  16.137  0.1918  0.1864 -0.2374
14760TIP3    H165695   4.511   2.978  16.181 -0.8620  0.6108  1.3228
14760TIP3    H265696   4.463   2.854  16.108  1.8337  1.0804 -1.4275
14761TIP3   OH265697   1.860   3.268  14.316 -0.3879 -0.0518  0.3637
14761TIP3    H165698   1.768   3.292  14.311 -0.0653  1.3513  0.6861
14761TIP3    H265699   1.905   3.334  14.263  0.4239 -0.8655  0.0006
14762TIP3   OH265700   4.033   3.188  13.040  0.5396 -0.2989  0.2781
14762TIP3    H165701   4.118   3.229  13.056  0.3937 -0.6384  2.1774
14762TIP3    H265702   4.050   3.094  13.046 -0.0195 -0.3605  1.0470
14763TIP3   OH265703   0.904   0.773  11.592 -0.6324 -0.2598 -0.2166
14763TIP3    H165704   0.940   0.734  11.512 -0.0110  1.5853 -0.8880
14763TIP3    H265705   0.841   0.708  11.624 -1.4173 -0.7870 -2.6007
14764TIP3   OH265706   0.209   4.114   6.393 -0.1377  0.3195 -0.7955
14764TIP3    H165707   0.247   4.026   6.400  0.1103  0.4599 -0.3745
14764TIP3    H265708   0.273   4.163   6.341 -0.8452 -0.0654 -2.0980
14765TIP3   OH265709   6.511   0.585  14.611  0.0640  0.2752 -0.1020
14765TIP3    H165710   6.601   0.556  14.593  0.0371  0.9021 -1.4507
14765TIP3    H265711   6.464   0.506  14.635  1.1233  0.0364  1.3116
14766TIP3   OH265712   1.426   0.387  12.560  0.2927 -0.1285 -0.0213
14766TIP3    H165713   1.448   0.478  12.580 -0.9209  0.5443 -1.5071
14766TIP3    H265714   1.445   0.378  12.467 -1.8530 -0.6479 -0.4657
14767TIP3   OH265715   4.321   3.920   1.102  0.3304  0.2695  0.2770
14767TIP3    H165716   4.330   4.015   1.109  0.2805  0.2688  0.3594
14767TIP3    H265717   4.411   3.888   1.097  0.3806  0.5736 -3.4465
14768TIP3   OH265718   2.526   2.415  14.012 -0.4786 -0.4061 -0.0210
14768TIP3    H165719   2.474   2.425  13.932 -0.7693  1.7028  0.3866
14768TIP3    H265720   2.474   2.457  14.080  0.6418 -0.4790  0.9076
14769TIP3   OH265721   0.218   1.345  12.309 -0.2401 -0.7143 -0.3024
14769TIP3    H165722   0.216   1.272  12.370  0.6124 -1.4628 -1.1479
14769TIP3    H265723   0.291   1.400  12.340 -0.3485 -0.6495 -0.1585
14770TIP3   OH265724   1.662   3.495   2.040 -0.2883  0.0705  0.7434
14770TIP3    H165725   1.642   3.584   2.013 -1.1509 -0.2997  0.1236
14770TIP3    H265726   1.580   3.447   2.028  0.4238 -1.0335  0.1379
14771TIP3   OH265727   6.315   0.042  11.869 -0.2076  0.5335  0.4404
14771TIP3    H165728   6.385  -0.023  11.875  1.3498  2.2347  1.5028
14771TIP3    H265729   6.358   0.123  11.844 -1.8619  1.5563  0.7024
14772TIP3   OH265730   3.295   1.759   2.708 -0.5544 -0.3452 -0.2156
14772TIP3    H165731   3.378   1.762   2.661 -0.2683 -2.9976 -0.0037
14772TIP3    H265732   3.230   1.785   2.642  0.2903  0.7320 -0.6674
14773TIP3   OH265733   6.011   2.657   2.306 -0.0321  0.0646 -0.5761
14773TIP3    H165734   5.947   2.717   2.344  0.7329  0.9140 -0.5844
14773TIP3    H265735   6.062   2.712   2.246  0.4801 -0.6649 -0.8163
14774TIP3   OH265736   2.105   2.213  14.297  0.2584  0.1052 -0.3668
14774TIP3    H165737   2.017   2.197  14.330 -0.3204  1.2284 -1.2937
14774TIP3    H265738   2.129   2.298  14.334  1.2681 -0.5274  0.4818
14775TIP3   OH265739   3.624   4.613   5.687  0.3048 -0.7292 -0.1062
14775TIP3    H165740   3.530   4.625   5.703  0.1037 -0.5097 -1.3491
14775TIP3    H265741   3.666   4.650   5.765 -0.6385 -1.0585  0.5803
14776TIP3   OH265742   4.777   0.288   6.319 -0.1639  0.0799  0.1104
14776TIP3    H165743   4.753   0.326   6.234 -1.1642 -0.1709  0.2631
14776TIP3    H265744   4.805   0.199   6.298  0.6356  0.3667 -0.0691
14777TIP3   OH265745   5.804   2.971   6.542 -0.1408 -0.2280  0.2997
14777TIP3    H165746   5.731   2.909   6.544  0.2279 -0.6554  0.9188
14777TIP3    H265747   5.846   2.961   6.627  1.4685 -1.0058 -0.5459
14778TIP3   OH265748   4.914   0.974   4.130  0.5787 -0.2397  0.1780
14778TIP3    H165749   5.005   0.953   4.113  0.6413  0.0035  0.2146
14778TIP3    H265750   4.865   0.921   4.068  0.8502  1.7100 -1.8293
14779TIP3   OH265751   3.812   6.482  11.436  0.2583  0.4095 -0.0019
14779TIP3    H165752   3.822   6.570  11.473 -0.3030  0.0505  1.0483
14779TIP3    H265753   3.889   6.435  11.467  1.7060  1.0771 -2.3414
14780TIP3   OH265754   5.034   5.169   3.025 -0.1557  0.0080  0.6265
14780TIP3    H165755   4.968   5.226   2.985 -0.6483 -0.2884  1.0153
14780TIP3    H265756   5.028   5.187   3.119 -0.4883 -0.8601  0.7789
14781TIP3   OH265757   1.074   0.031  14.255 -0.5640  0.2278  0.8005
14781TIP3    H165758   1.110   0.096  14.315  0.6107 -0.2198  0.6163
14781TIP3    H265759   1.002   0.075  14.211 -0.6642  0.9490  1.6591
14782TIP3   OH265760   2.392   0.063   0.853  0.1712 -0.1049 -0.0086
14782TIP3    H165761   2.355   0.142   0.894 -0.9302 -1.0982  0.9930
14782TIP3    H265762   2.316   0.010   0.830  0.9110 -1.5567  0.7511
14783TIP3   OH265763   3.043   4.890   0.494  0.2802  0.2605 -0.3831
14783TIP3    H165764   3.127   4.846   0.504  0.1226 -0.5170 -2.1024
14783TIP3    H265765   3.053   4.973   0.540  1.6873 -0.1836  0.1547
14784TIP3   OH265766   2.355   0.008  16.571  0.5027 -0.3101 -0.0986
14784TIP3    H165767   2.292   0.079  16.564  0.8008 -0.0624 -0.2937
14784TIP3    H265768   2.329  -0.054  16.502  0.3223 -0.3340 -0.0107
14785TIP3   OH265769   2.745   6.495  13.854  0.5142 -0.2145 -0.9691
14785TIP3    H165770   2.766   6.413  13.811  0.5403 -0.5704 -0.2953
14785TIP3    H265771   2.828   6.543  13.856  0.6141 -0.3871 -0.9235
14786TIP3   OH265772   4.758   6.637   6.121 -0.3559  0.4688  0.2272
14786TIP3    H165773   4.686   6.574   6.126 -0.4201  0.4960 -0.3142
14786TIP3    H265774   4.837   6.584   6.116 -0.2430  0.4292  1.7816
14787TIP3   OH265775   1.692   4.300   5.220 -0.4630  0.4475 -0.0544
14787TIP3    H165776   1.627   4.245   5.265 -0.4797  0.2225 -0.3451
14787TIP3    H265777   1.728   4.356   5.288 -0.8838  0.4963  0.1320
14788TIP3   OH265778   0.297   5.710  16.955 -0.9214  0.3599  0.4042
14788TIP3    H165779   0.221   5.761  16.925 -0.4816  0.0543 -1.3443
14788TIP3    H265780   0.369   5.773  16.956 -0.4415 -0.1044 -1.4745
14789TIP3   OH265781   3.456   2.974   0.149 -0.0362  0.1007 -1.2493
14789TIP3    H165782   3.505   2.932   0.219 -0.5696  1.1727 -0.1897
14789TIP3    H265783   3.410   2.903   0.104 -1.5371 -0.4104  0.9620
14790TIP3   OH265784   1.793   0.244   4.895 -0.0388  0.4366 -0.0535
14790TIP3    H165785   1.826   0.330   4.922  2.3043  0.1209 -1.6022
14790TIP3    H265786   1.769   0.256   4.803 -2.6588  0.1221  0.4893
14791TIP3   OH265787   2.144   2.106   0.977  0.4371  0.0242 -0.7903
14791TIP3    H165788   2.152   2.143   0.889  0.4503 -0.5797 -1.0462
14791TIP3    H265789   2.187   2.170   1.033  0.7370  0.2495 -1.2664
14792TIP3   OH265790   0.522   4.178   1.301 -0.2929  0.4062  0.1183
14792TIP3    H165791   0.527   4.200   1.394  2.0153  0.1355  0.1189
14792TIP3    H265792   0.429   4.186   1.280 -0.8303  0.8510  2.3398
14793TIP3   OH265793   3.492   0.901  15.821  0.1910  0.0102  0.1617
14793TIP3    H165794   3.505   0.909  15.726  0.7096  0.1305  0.2438
14793TIP3    H265795   3.402   0.931  15.835  0.8361  2.1645 -0.0161
14794TIP3   OH265796   2.940   1.052   0.869  0.2126  1.1441 -0.3093
14794TIP3    H165797   2.988   1.076   0.948 -0.5393  2.3118 -0.1722
14794TIP3    H265798   2.975   1.112   0.802  1.0977 -0.0729 -0.9744
14795TIP3   OH265799   5.039   1.201  13.208 -0.1244  0.1856 -0.2728
14795TIP3    H165800   5.119   1.150  13.202  0.1320  0.5293  0.1892
14795TIP3    H265801   5.040   1.238  13.296 -1.0692 -0.2652 -0.0548
14796TIP3   OH265802   4.760   4.536  11.023  0.3252 -0.0733 -0.5998
14796TIP3    H165803   4.769   4.623  10.983 -1.3828  0.1489 -0.5938
14796TIP3    H265804   4.701   4.489  10.965  3.1533 -2.1756 -1.9800
14797TIP3   OH265805   1.535   6.513   2.419 -0.0219  0.2112 -0.2955
14797TIP3    H165806   1.589   6.592   2.416 -0.5352  0.8153  2.8556
14797TIP3    H265807   1.453   6.542   2.460 -0.6601 -1.7313 -0.1230
14798TIP3   OH265808   0.461   3.630  13.350 -0.1254 -0.6057 -0.5984
14798TIP3    H165809   0.442   3.683  13.273 -0.0332 -1.2908 -1.1043
14798TIP3    H265810   0.398   3.558  13.346 -0.2666 -0.5250  0.0885
14799TIP3   OH265811   1.711   1.452   1.226 -0.3331  0.7120  0.3540
14799TIP3    H165812   1.644   1.518   1.246 -0.8601  0.3408 -0.1469
14799TIP3    H265813   1.794   1.496   1.246 -0.7700  0.5055  2.9856
14800TIP3   OH265814   6.296   0.132  14.874  0.5818  0.2096 -0.4680
14800TIP3    H165815   6.322   0.045  14.844  1.2950  0.3105 -0.1649
14800TIP3    H265816   6.365   0.190  14.843  0.5657  0.5294  0.0790
14801TIP3   OH265817   3.338   2.890   4.860 -0.5011 -0.2311 -0.0507
14801TIP3    H165818   3.335   2.858   4.950 -0.8949  2.0157  0.7983
14801TIP3    H265819   3.392   2.969   4.865  0.8338 -0.9127 -2.1166
14802TIP3   OH265820   1.682   2.180   5.308  0.7096 -0.0640 -0.2984
14802TIP3    H165821   1.613   2.239   5.335  0.2223 -0.3442 -0.9179
14802TIP3    H265822   1.693   2.195   5.214  1.6866  0.1803 -0.1611
14803TIP3   OH265823   3.430   6.428  14.741  0.1826  0.1215  0.2931
14803TIP3    H165824   3.461   6.447  14.652 -2.1034 -1.2583 -0.9074
14803TIP3    H265825   3.420   6.333  14.743 -0.1457  0.1666  1.9288
14804TIP3   OH265826   5.907   4.989   2.040  0.1310  0.2592 -0.1614
14804TIP3    H165827   5.892   4.955   2.128 -1.4420  0.9669 -0.1265
14804TIP3    H265828   5.910   5.084   2.051  5.5281  0.3813 -0.0885
14805TIP3   OH265829   4.575   6.111   5.923 -0.0317  0.0366 -0.4474
14805TIP3    H165830   4.521   6.051   5.872 -2.6465  2.3970 -0.6956
14805TIP3    H265831   4.606   6.175   5.859  0.6481  0.3470  0.1789
14806TIP3   OH265832   4.053   2.077  11.781 -0.0610  0.1893  0.1718
14806TIP3    H165833   3.965   2.061  11.746  0.3315 -2.6033  0.1747
14806TIP3    H265834   4.103   2.110  11.707 -0.6349 -0.1406 -0.3746
14807TIP3   OH265835   1.440   0.026  12.250 -0.0970 -0.0187 -0.6776
14807TIP3    H165836   1.347   0.050  12.239  0.1811  2.8199  1.9794
14807TIP3    H265837   1.441  -0.031  12.327  0.2942 -1.1887 -1.5159
14808TIP3   OH265838   5.877   5.890  14.789 -0.0206  0.1356 -0.1173
14808TIP3    H165839   5.833   5.809  14.762  1.6388 -1.4749  1.6359
14808TIP3    H265840   5.910   5.928  14.708  0.2186 -1.6286 -0.8888
14809TIP3   OH265841   2.402   0.042  15.068 -0.3403  0.5853 -0.0905
14809TIP3    H165842   2.409  -0.002  14.983 -1.0856  1.1226 -0.4412
14809TIP3    H265843   2.309   0.061  15.078 -0.3263  0.1392  1.0554
14810TIP3   OH265844   2.065   1.230   2.141 -0.4431  0.2880  0.2574
14810TIP3    H165845   2.106   1.293   2.082  0.7774 -0.5467  0.1661
14810TIP3    H265846   1.971   1.248   2.135 -0.4696 -0.3130 -2.6029
14811TIP3   OH265847   4.843   5.226  14.961 -0.0309  0.5042  0.0201
14811TIP3    H165848   4.817   5.296  15.021 -0.6586  0.2318  0.0728
14811TIP3    H265849   4.929   5.198  14.993  0.5278  1.6618 -0.3749
14812TIP3   OH265850   5.359   3.143   1.984  0.4502 -0.5404 -0.4341
14812TIP3    H165851   5.388   3.173   1.898 -0.8892 -0.2347 -0.8029
14812TIP3    H265852   5.431   3.166   2.043  0.6794  0.7938 -1.1924
14813TIP3   OH265853   3.371   1.620  15.232 -0.1898 -0.0396 -0.1423
14813TIP3    H165854   3.445   1.649  15.285 -0.5437  2.4305 -0.8596
14813TIP3    H265855   3.319   1.566  15.291  0.4427  1.0038  1.4402
14814TIP3   OH265856   1.702   3.976  11.144 -0.1155 -0.3459 -0.1620
14814TIP3    H165857   1.740   3.922  11.075  0.2249 -1.6294  0.9805
14814TIP3    H265858   1.686   4.061  11.103  3.0527 -0.0455 -0.9891
14815TIP3   OH265859   3.403   5.667  16.690 -0.2029 -0.2185  0.0186
14815TIP3    H165860   3.328   5.690  16.636  0.2001 -1.6516 -1.2266
14815TIP3    H265861   3.448   5.750  16.707 -0.9231  0.3846 -0.9487
14816TIP3   OH265862   4.408   2.697  13.009  0.1475 -0.6361  0.1172
14816TIP3    H165863   4.368   2.767  12.957 -0.4483 -0.9583  0.1372
14816TIP3    H265864   4.500   2.698  12.983  0.0797 -0.0527 -0.1166
14817TIP3   OH265865   2.208   5.377  11.455  0.3628  0.2787  0.5101
14817TIP3    H165866   2.126   5.332  11.473  0.4464  0.3185  1.0129
14817TIP3    H265867   2.188   5.436  11.383  0.6351 -1.6334 -1.2063
14818TIP3   OH265868   5.465   2.212  14.132  0.2569  0.2204 -0.7512
14818TIP3    H165869   5.511   2.248  14.056  0.0266  0.1317 -0.9338
14818TIP3    H265870   5.419   2.135  14.099 -0.6741  0.7543 -0.7584
14819TIP3   OH265871   5.833   6.564  16.132 -0.2863  0.1842 -0.3152
14819TIP3    H165872   5.822   6.659  16.142  1.1334  0.3707 -0.3350
14819TIP3    H265873   5.908   6.555  16.073 -0.1575 -0.9565  0.0063
14820TIP3   OH265874   1.097   1.207  11.033  0.2575 -0.0680  0.3134
14820TIP3    H165875   1.005   1.224  11.016 -0.2054  0.4825  2.8782
14820TIP3    H265876   1.144   1.272  10.981 -0.9160  0.9726  0.5207
14821TIP3   OH265877   2.304   4.316  13.752 -1.2077  0.1775 -0.6121
14821TIP3    H165878   2.282   4.330  13.660 -1.0633  2.2852 -0.3832
14821TIP3    H265879   2.220   4.295  13.793 -0.9280 -3.3037 -1.5481
14822TIP3   OH265880   1.717   4.011   4.242  0.3146  0.4420 -0.1429
14822TIP3    H165881   1.756   3.924   4.248  2.0529  1.2225  0.8182
14822TIP3    H265882   1.704   4.038   4.333 -2.2679  0.3596 -0.4276
14823TIP3   OH265883   5.444   1.352   5.277  0.2364  0.0863 -0.5963
14823TIP3    H165884   5.351   1.360   5.258 -0.4328  0.8065  2.5847
14823TIP3    H265885   5.457   1.258   5.294  0.4247 -0.2178 -2.1901
14824TIP3   OH265886   1.855   4.618  11.768  0.2537 -0.1311 -0.0463
14824TIP3    H165887   1.799   4.602  11.844  0.2283  1.2022  0.2389
14824TIP3    H265888   1.927   4.671  11.803  0.8318 -0.4669 -0.7320
14825TIP3   OH265889   5.441   4.656  14.261 -0.3213  0.5283  0.0486
14825TIP3    H165890   5.360   4.608  14.244 -0.2738  0.2922  0.4796
14825TIP3    H265891   5.419   4.715  14.333  0.4037 -0.9020  1.4977
14826TIP3   OH265892   5.591   0.777  11.888  0.4963  0.1981 -0.3099
14826TIP3    H165893   5.544   0.823  11.958  2.3002  2.5224 -0.5043
14826TIP3    H265894   5.675   0.753  11.927  0.1927 -1.6552 -0.6959
14827TIP3   OH265895   2.169   6.148   6.829  0.1983  0.4640 -0.0915
14827TIP3    H165896   2.213   6.064   6.840 -2.0946 -1.0004 -1.2390
14827TIP3    H265897   2.204   6.183   6.747  2.7384  1.7712  1.4396
14828TIP3   OH265898   6.107   1.798  11.418 -0.0570 -0.7470 -0.4096
14828TIP3    H165899   6.124   1.818  11.510  2.5002  1.4123 -1.2300
14828TIP3    H265900   6.155   1.716  11.403  0.2812 -0.6213 -0.0350
14829TIP3   OH265901   4.158   4.192   2.599  0.1240  0.4611  0.6318
14829TIP3    H165902   4.201   4.106   2.594  0.5230  0.7396 -1.7596
14829TIP3    H265903   4.222   4.248   2.643  0.5406 -0.0686  0.7146
14830TIP3   OH265904   6.660   0.422   6.043 -0.5549 -0.9115  0.9915
14830TIP3    H165905   6.639   0.469   5.963  0.1418 -0.4995  1.0481
14830TIP3    H265906   6.744   0.380   6.026  0.2804  0.2979  1.9665
14831TIP3   OH265907   0.208   2.458  13.285 -0.2058  0.2908  0.1528
14831TIP3    H165908   0.225   2.398  13.212 -0.5442 -0.7258  0.8881
14831TIP3    H265909   0.291   2.504  13.298  0.7320 -1.5328  0.9205
14832TIP3   OH265910   5.225   2.733   3.158  0.2562 -0.1498  0.6244
14832TIP3    H165911   5.291   2.760   3.222  0.9767 -0.4617  0.0231
14832TIP3    H265912   5.179   2.814   3.137 -0.5440 -0.1727  2.1376
14833TIP3   OH265913   3.856   5.575  15.131 -0.0889  0.2990  0.6159
14833TIP3    H165914   3.908   5.519  15.073 -0.7125  0.5853 -0.2451
14833TIP3    H265915   3.919   5.640  15.164  0.1689  0.5068 -0.2339
14834TIP3   OH265916   5.001   3.113  13.113  0.2950 -0.6582 -0.0670
14834TIP3    H165917   4.911   3.135  13.088 -0.2995 -1.2162  1.4434
14834TIP3    H265918   5.031   3.054  13.044  0.3010  1.2221 -1.7294
14835TIP3   OH265919   5.326   3.887  15.101 -0.2860  0.2797 -0.1798
14835TIP3    H165920   5.290   3.841  15.177 -0.3766 -2.1416 -1.5766
14835TIP3    H265921   5.253   3.891  15.039  0.4117 -0.0255 -1.0529
14836TIP3   OH265922   4.975   0.632   2.859 -0.5471  0.5250  0.5812
14836TIP3    H165923   5.047   0.591   2.811  2.3975  1.1539  4.0613
14836TIP3    H265924   4.915   0.559   2.879 -1.1967  0.0352 -2.6196
14837TIP3   OH265925   0.693   5.489  13.435  0.1986 -0.5445  0.4186
14837TIP3    H165926   0.606   5.450  13.422  0.7744 -1.2814 -1.6392
14837TIP3    H265927   0.699   5.555  13.366  0.7440  0.5232  1.4577
14838TIP3   OH265928   6.144   4.317   5.334 -0.1476 -0.2256  0.0641
14838TIP3    H165929   6.219   4.339   5.389 -0.8382 -0.6417  1.1987
14838TIP3    H265930   6.170   4.343   5.246  1.1483  0.0529  0.5176
14839TIP3   OH265931   1.046   4.822  15.886  0.1222  0.1467  0.2339
14839TIP3    H165932   1.066   4.913  15.911  0.3487 -0.0349  0.7372
14839TIP3    H265933   1.059   4.772  15.967  2.6161 -0.7269 -0.6212
14840TIP3   OH265934   2.830   1.894   2.235  0.8367 -1.0744 -0.2633
14840TIP3    H165935   2.852   1.870   2.325  1.1174 -0.0148 -0.0344
14840TIP3    H265936   2.857   1.986   2.227  0.0363 -0.8937 -1.1650
14841TIP3   OH265937   0.163   2.764   1.389 -0.3522  0.5343  0.0824
14841TIP3    H165938   0.192   2.827   1.324  0.8354 -0.7337 -0.6652
14841TIP3    H265939   0.234   2.761   1.453  0.1225 -0.8239 -0.4742
14842TIP3   OH265940   6.646   5.385   6.140  0.3681 -0.5340  0.3810
14842TIP3    H165941   6.694   5.322   6.087 -1.0347  0.3537 -2.1404
14842TIP3    H265942   6.706   5.459   6.149  1.0501 -1.1618  1.0786
14843TIP3   OH265943   1.465   6.775  15.790  0.1917 -0.2685  0.0562
14843TIP3    H165944   1.551   6.735  15.798  0.8457  1.0555 -0.1504
14843TIP3    H265945   1.453   6.823  15.872 -0.0250  0.1884 -0.2429
14844TIP3   OH265946   4.783   4.641  13.097 -0.4016  0.0606  0.0938
14844TIP3    H165947   4.824   4.554  13.103 -0.0581  0.2617  0.7468
14844TIP3    H265948   4.739   4.640  13.012  0.9199 -0.1870 -0.6241
14845TIP3   OH265949   0.212   1.891   3.892 -0.1008 -0.4215 -0.6066
14845TIP3    H165950   0.166   1.890   3.976 -0.8080  0.0871 -0.9727
14845TIP3    H265951   0.150   1.932   3.832  0.1139 -1.4298 -1.5398
14846TIP3   OH265952   3.602   5.552   3.679  0.2723  0.1688 -0.7159
14846TIP3    H165953   3.604   5.592   3.766 -0.8105  0.9636 -1.0349
14846TIP3    H265954   3.541   5.479   3.688  0.0147  0.3649 -0.8439
14847TIP3   OH265955   5.610   1.768   1.484 -0.5564  1.2754  0.1870
14847TIP3    H165956   5.556   1.696   1.451  0.6230  0.2693  0.4001
14847TIP3    H265957   5.561   1.804   1.558 -0.9907  0.4583  0.2970
14848TIP3   OH265958   4.386   6.190  12.702 -0.3187 -0.2865  0.3127
14848TIP3    H165959   4.389   6.210  12.608 -1.2354  2.1750  0.7290
14848TIP3    H265960   4.476   6.204  12.732  0.1380 -1.7647 -0.2704
14849TIP3   OH265961   5.455   4.400   0.574  0.0698  0.3846  0.4026
14849TIP3    H165962   5.369   4.373   0.544  0.5661  0.9055 -1.6940
14849TIP3    H265963   5.451   4.395   0.670 -2.2358  0.3227  0.3477
14850TIP3   OH265964   3.800   0.304   1.704 -0.4829  0.2034 -0.3183
14850TIP3    H165965   3.792   0.399   1.712  0.1687  0.2127  0.2466
14850TIP3    H265966   3.710   0.272   1.715 -0.4860  0.6396  1.1623
14851TIP3   OH265967   2.364   4.459   2.247 -1.0413 -0.0927 -0.2554
14851TIP3    H165968   2.291   4.403   2.224 -1.7018  0.6501 -0.0228
14851TIP3    H265969   2.411   4.472   2.165 -1.6545  0.1018 -0.5800
14852TIP3   OH265970   4.338   2.367  10.562 -0.1654 -0.1176  0.9240
14852TIP3    H165971   4.354   2.279  10.526 -3.6069 -0.8934  0.9727
14852TIP3    H265972   4.382   2.366  10.647  1.7410 -0.9478 -0.0164
14853TIP3   OH265973   5.244   3.203  12.699 -0.0877  0.0032  0.0586
14853TIP3    H165974   5.215   3.275  12.756 -2.7812 -0.0229 -1.1657
14853TIP3    H265975   5.171   3.141  12.699  0.4311 -0.7050 -2.2468
14854TIP3   OH265976   5.693   5.909  14.986 -0.0177 -0.5175 -0.6106
14854TIP3    H165977   5.769   5.901  14.927 -1.1400 -0.7883 -2.0679
14854TIP3    H265978   5.617   5.910  14.928 -1.0869  1.2898  0.7060
14855TIP3   OH265979   0.564   4.287  15.263  0.0349  0.3060  0.2985
14855TIP3    H165980   0.469   4.291  15.258 -0.3011 -3.9776 -0.5523
14855TIP3    H265981   0.594   4.313  15.176 -0.6901 -1.6716 -0.5931
14856TIP3   OH265982   0.216   5.039  11.852  0.2941  0.3519  0.1825
14856TIP3    H165983   0.185   5.124  11.819  1.2392  0.9061  0.6900
14856TIP3    H265984   0.299   5.059  11.894  0.2445 -0.7439  0.8237
14857TIP3   OH265985   0.886   1.415  11.097  0.0041 -0.0035 -0.0774
14857TIP3    H165986   0.863   1.469  11.021  1.1041  2.8018  1.4638
14857TIP3    H265987   0.973   1.445  11.122  0.0580 -1.5303  1.7749
14858TIP3   OH265988   5.754   6.065  13.356 -0.1078  0.4468  0.0717
14858TIP3    H165989   5.697   6.140  13.364 -2.0637 -1.0981  1.3899
14858TIP3    H265990   5.829   6.085  13.413 -0.5339  1.4167  0.3103
14859TIP3   OH265991   4.539   1.614   5.647 -0.5551 -0.0912  0.1636
14859TIP3    H165992   4.510   1.528   5.617 -0.3041 -0.3730  0.7135
14859TIP3    H265993   4.630   1.601   5.675 -0.6218  0.2726  0.5679
14860TIP3   OH265994   1.022   2.150   2.238 -0.2564  0.7840  0.6660
14860TIP3    H165995   1.075   2.105   2.304  0.5702  1.1287  0.2601
14860TIP3    H265996   0.938   2.103   2.238 -0.5400  1.2309  2.4503
14861TIP3   OH265997   4.528   0.534  12.816 -0.3201 -0.1370  0.0072
14861TIP3    H165998   4.461   0.581  12.865  0.0629 -0.5099  0.9087
14861TIP3    H265999   4.559   0.596  12.751 -1.5769  0.0251 -0.4669
14862TIP3   OH266000   1.432   4.028   2.806  0.6355  0.2376  0.5928
14862TIP3    H166001   1.399   3.981   2.729  2.5450 -1.1869  0.5637
14862TIP3    H266002   1.376   4.105   2.813 -0.5173 -0.3502 -1.3478
14863TIP3   OH266003   2.758   5.324  16.865 -0.2814  0.4065 -0.7191
14863TIP3    H166004   2.828   5.306  16.803 -0.8064 -0.2988 -1.1156
14863TIP3    H266005   2.707   5.394  16.824 -0.3201  0.3107 -0.8338
14864TIP3   OH266006   3.468   0.858  11.913  0.1178  0.1949 -0.2160
14864TIP3    H166007   3.525   0.873  11.988  0.1432 -1.4036  0.1243
14864TIP3    H266008   3.493   0.772  11.880  0.2004  0.9099 -2.1641
14865TIP3   OH266009   6.390   3.004  13.887 -0.4271 -0.1331 -0.1653
14865TIP3    H166010   6.368   3.013  13.980  2.6335  1.5967  0.5392
14865TIP3    H266011   6.309   2.976  13.846 -1.4647 -2.9124  3.2587
14866TIP3   OH266012   3.326   0.754   1.970  0.1537 -0.2225  0.0249
14866TIP3    H166013   3.241   0.775   2.010  1.4676  1.4522  2.2202
14866TIP3    H266014   3.332   0.813   1.895 -0.4969 -0.1345  0.0356
14867TIP3   OH266015   3.064   2.240   4.108  0.5535  0.0844  0.1527
14867TIP3    H166016   2.992   2.259   4.048  1.0906  1.0341 -0.2067
14867TIP3    H266017   3.135   2.297   4.080  0.6458  0.9742  2.0321
14868TIP3   OH266018   0.720   2.182  15.037 -0.6989 -0.6063 -0.2684
14868TIP3    H166019   0.700   2.275  15.028  1.5814 -0.0006  0.2275
14868TIP3    H266020   0.802   2.170  14.989  0.3659 -1.7975  1.6890
14869TIP3   OH266021   0.682   0.745  14.832  0.0037  0.1262  0.1771
14869TIP3    H166022   0.602   0.693  14.833 -2.3197  3.4064  0.2724
14869TIP3    H266023   0.670   0.810  14.901  1.8457  1.9476 -1.0848
14870TIP3   OH266024   4.964   6.492   2.009 -0.5028  0.3616  0.1420
14870TIP3    H166025   4.903   6.556   1.973  0.5544  1.5965  0.4415
14870TIP3    H266026   4.951   6.413   1.957 -1.1427  1.1352 -0.9049
14871TIP3   OH266027   1.938   5.031  15.293  0.6107 -0.0470  0.1475
14871TIP3    H166028   1.865   5.081  15.331 -0.1094 -0.4985 -0.5896
14871TIP3    H266029   1.951   4.958  15.353  0.1027 -0.2491  0.0161
14872TIP3   OH266030   2.945   3.174  13.886  0.1181  0.3674 -0.6299
14872TIP3    H166031   3.009   3.242  13.907  2.2018 -1.3691 -0.9198
14872TIP3    H266032   2.997   3.094  13.882 -1.9274 -0.9735 -2.0772
14873TIP3   OH266033   6.784   0.038  10.827 -0.3205 -0.1521 -0.5929
14873TIP3    H166034   6.851   0.060  10.892 -0.8718  0.7015 -0.3045
14873TIP3    H266035   6.756  -0.050  10.850 -0.2115 -0.0168  0.0669
14874TIP3   OH266036   5.449   3.617   4.624 -0.6636  0.3573  0.3219
14874TIP3    H166037   5.506   3.567   4.565  1.2416 -0.2213  2.5333
14874TIP3    H266038   5.376   3.557   4.643  0.4605 -0.7878  1.1843
14875TIP3   OH266039   1.165   4.540  16.329  0.4154  0.7148 -0.1844
14875TIP3    H166040   1.256   4.517  16.311  0.6288 -0.0706  1.6791
14875TIP3    H266041   1.170   4.620  16.380  0.0210  1.0103 -0.6010
14876TIP3   OH266042   1.261   3.277   4.176  0.4931 -0.3071  0.3807
14876TIP3    H166043   1.249   3.371   4.167  3.6927  0.1682 -0.3528
14876TIP3    H266044   1.182   3.238   4.138 -1.3163  2.0169  1.5375
14877TIP3   OH266045   2.551   2.412   3.217  0.3610  0.1551 -0.0015
14877TIP3    H166046   2.572   2.494   3.172 -0.0571  0.1545 -0.2013
14877TIP3    H266047   2.603   2.415   3.297 -0.0111  0.8416  0.2204
14878TIP3   OH266048   2.437   6.619   1.230 -0.4387 -0.4662  0.6193
14878TIP3    H166049   2.497   6.637   1.302 -1.1408  0.9478  0.8630
14878TIP3    H266050   2.394   6.702   1.212 -1.1859 -1.0867 -0.6133
14879TIP3   OH266051   3.188   6.365   5.226  0.2179  0.0216 -0.2593
14879TIP3    H166052   3.271   6.363   5.178 -1.4952  1.5721 -3.6380
14879TIP3    H266053   3.156   6.275   5.221  1.3945 -0.4779  0.6342
14880TIP3   OH266054   6.036   6.558  14.608 -0.2978  0.5860  0.0882
14880TIP3    H166055   5.974   6.556  14.681  0.3388  0.9413  0.6576
14880TIP3    H266056   6.097   6.628  14.631  0.1871  0.3841 -0.5607
14881TIP3   OH266057   3.901   0.810   3.190  0.0871 -0.0691 -0.5375
14881TIP3    H166058   3.941   0.853   3.265 -1.9553  0.8211  0.1138
14881TIP3    H266059   3.900   0.717   3.214 -2.3485  0.3858  1.5450
14882TIP3   OH266060   0.099   2.005  13.500 -0.2529 -0.3636 -0.0445
14882TIP3    H166061   0.104   2.006  13.596 -1.2730  1.4229  0.0303
14882TIP3    H266062   0.109   1.913  13.477  2.7980 -0.5635  1.5725
14883TIP3   OH266063   2.129   5.997  11.760 -0.0494  0.3951  0.0528
14883TIP3    H166064   2.087   5.915  11.733  0.1468  0.8259 -1.6648
14883TIP3    H266065   2.086   6.064  11.708  1.3660  1.0984 -0.2447
14884TIP3   OH266066   6.737   4.069   5.191  0.1055  0.6702  0.1833
14884TIP3    H166067   6.798   4.138   5.166  0.0485  0.5666 -0.2509
14884TIP3    H266068   6.755   3.998   5.130  1.4414 -0.4401  1.7814
14885TIP3   OH266069   4.380   3.070  15.414  0.1930 -0.3105 -0.3800
14885TIP3    H166070   4.429   3.145  15.380 -0.3432 -0.9646 -2.7849
14885TIP3    H266071   4.311   3.056  15.350  0.1206 -2.7138  0.1350
14886TIP3   OH266072   2.215   1.241   4.385 -0.5329  0.0433 -0.4833
14886TIP3    H166073   2.166   1.172   4.341  1.5827 -1.3795 -0.7641
14886TIP3    H266074   2.266   1.282   4.315  0.2762  0.0459  0.0936
14887TIP3   OH266075   5.852   2.733   5.695  0.7675 -0.5591 -0.5717
14887TIP3    H166076   5.783   2.747   5.630  0.7201  2.2242 -0.0337
14887TIP3    H266077   5.806   2.705   5.773  0.5097 -1.0202 -0.8862
14888TIP3   OH266078   5.664   5.892  11.492 -0.9600 -0.5080  0.3317
14888TIP3    H166079   5.706   5.893  11.577  3.1048  0.9785 -1.4373
14888TIP3    H266080   5.672   5.802  11.461 -0.2784 -0.5401  0.5992
14889TIP3   OH266081   1.299   4.449  13.125 -0.8077  0.1777 -0.1223
14889TIP3    H166082   1.215   4.477  13.088 -0.7261 -0.2908 -0.6746
14889TIP3    H266083   1.301   4.490  13.212 -1.4409  0.4925 -0.2446
14890TIP3   OH266084   3.759   3.387   2.867 -0.3231 -0.1697  0.3508
14890TIP3    H166085   3.851   3.361   2.855  0.1485  1.5023  0.0164
14890TIP3    H266086   3.764   3.479   2.890 -1.9396 -0.0397  0.2470
14891TIP3   OH266087   2.393   3.251  13.335  0.1082 -0.1842  0.1409
14891TIP3    H166088   2.435   3.335  13.356  0.1996 -0.8391  3.0630
14891TIP3    H266089   2.461   3.186  13.352 -0.8073 -1.0105  0.6995
14892TIP3   OH266090   3.725   5.883   3.916 -0.0360 -0.4622 -0.2638
14892TIP3    H166091   3.746   5.937   3.993 -0.6559 -0.4014 -0.1346
14892TIP3    H266092   3.640   5.914   3.887  0.2741 -0.3623 -1.0962
14893TIP3   OH266093   1.757   3.069   5.210  0.5738  0.4411  0.4360
14893TIP3    H166094   1.707   2.989   5.222 -0.8121  0.8718 -1.9062
14893TIP3    H266095   1.699   3.139   5.240  1.3058  0.6895  1.3311
14894TIP3   OH266096   6.659   1.179  15.449  0.5924  0.2738 -0.9354
14894TIP3    H166097   6.625   1.139  15.369  1.4207 -2.1603 -0.1488
14894TIP3    H266098   6.751   1.195  15.430  0.7602 -0.1880 -0.5174
14895TIP3   OH266099   5.868   6.171   0.568  0.0316  0.2359  0.7016
14895TIP3    H166100   5.959   6.142   0.576 -0.9142 -2.6094  2.6762
14895TIP3    H266101   5.836   6.175   0.658 -1.8806  0.9272  0.0413
14896TIP3   OH266102   2.917   4.414  15.585  0.3770  0.3279  0.4347
14896TIP3    H166103   2.859   4.373  15.649 -2.2795 -1.0091 -2.5202
14896TIP3    H266104   2.895   4.507  15.587 -0.4979  0.1175  0.7010
14897TIP3   OH266105   3.339   3.263   4.709 -0.0022  0.2504 -0.3296
14897TIP3    H166106   3.362   3.354   4.726  0.2385  0.5679 -2.1525
14897TIP3    H266107   3.408   3.231   4.651 -1.0812 -0.5233 -1.2264
14898TIP3   OH266108   4.268   2.811  13.586 -0.1802 -0.3643  0.9834
14898TIP3    H166109   4.199   2.872  13.612  0.2612 -0.3851  2.2762
14898TIP3    H266110   4.242   2.780  13.499 -0.7337  1.1854  0.5669
14899TIP3   OH266111   5.606   4.040  16.675 -0.6109  0.0097  0.0951
14899TIP3    H166112   5.643   3.956  16.702  0.3771 -0.3015 -1.9992
14899TIP3    H266113   5.608   4.037  16.579  0.6373  2.9038 -0.0646
14900TIP3   OH266114   6.477   5.607   2.979  0.8472  0.3441  0.2467
14900TIP3    H166115   6.540   5.630   3.047 -0.0866 -0.3441  1.3920
14900TIP3    H266116   6.391   5.621   3.020  0.2574  0.5867 -1.0313
14901TIP3   OH266117   0.118   2.780  12.982 -0.6037  0.1824 -0.0585
14901TIP3    H166118   0.096   2.784  13.075  3.0748 -0.6166  1.0274
14901TIP3    H266119   0.034   2.777  12.937 -2.5487 -1.5952  3.3344
14902TIP3   OH266120   3.746   6.120  15.179 -0.1428 -0.5779  0.4065
14902TIP3    H166121   3.706   6.033  15.175 -1.2395 -0.0300 -2.0290
14902TIP3    H266122   3.840   6.103  15.169 -0.4471 -1.4517 -1.3427
14903TIP3   OH266123   6.184   4.912  12.418  0.2546 -0.1449 -0.4797
14903TIP3    H166124   6.273   4.940  12.398  1.0135 -1.7966  0.3534
14903TIP3    H266125   6.141   4.991  12.451  1.5395  0.5909 -0.4714
14904TIP3   OH266126   5.623   6.185   1.873  0.5309 -0.3567 -0.3988
14904TIP3    H166127   5.588   6.217   1.790  0.0104  0.3824  0.0931
14904TIP3    H266128   5.617   6.260   1.932  0.3274 -1.0446  0.4727
14905TIP3   OH266129   4.283   6.371  14.188  0.5696 -0.0797  0.6089
14905TIP3    H166130   4.353   6.316  14.152  2.3117  2.7730 -0.7258
14905TIP3    H266131   4.270   6.338  14.277  2.9132 -1.3323  0.5684
14906TIP3   OH266132   1.915   3.835   0.110  0.6264  0.3213 -0.3070
14906TIP3    H166133   1.980   3.766   0.096  0.3736  0.2922 -1.4750
14906TIP3    H266134   1.949   3.910   0.061 -0.6922 -0.0146 -1.8241
14907TIP3   OH266135   3.880   2.308   0.517 -0.2253 -0.8449 -0.5304
14907TIP3    H166136   3.795   2.279   0.487 -1.5438  1.2770  0.8268
14907TIP3    H266137   3.874   2.306   0.613  0.9424  0.0658 -0.4032
14908TIP3   OH266138   3.982   2.744  14.975  0.3892 -0.4327  0.4125
14908TIP3    H166139   3.951   2.653  14.977  1.0297 -0.6466  0.9062
14908TIP3    H266140   3.916   2.790  14.923 -0.1990 -1.0827  0.5609
14909TIP3   OH266141   5.135   3.667   2.820 -0.0735  0.2503  0.5827
14909TIP3    H166142   5.111   3.748   2.864  0.3127  0.6558  0.0537
14909TIP3    H266143   5.119   3.685   2.727 -1.6011 -0.8311  0.5890
14910TIP3   OH266144   6.763   5.777  16.138 -0.2536  0.0379 -0.0757
14910TIP3    H166145   6.852   5.771  16.105  0.0515  1.6442  0.3362
14910TIP3    H266146   6.736   5.867  16.120 -1.3451 -0.0557  0.8868
14911TIP3   OH266147   3.197   6.721   6.365 -0.0132 -0.3151  0.2374
14911TIP3    H166148   3.207   6.653   6.299  0.8243 -2.0544  2.0384
14911TIP3    H266149   3.112   6.704   6.404  0.7860 -1.3062  1.6468
14912TIP3   OH266150   3.211   6.665  11.530 -0.6705 -0.0135  0.6181
14912TIP3    H166151   3.195   6.705  11.444 -0.7035 -0.3933  0.4446
14912TIP3    H266152   3.206   6.738  11.592  0.3266  0.4348  0.1909
14913TIP3   OH266153   4.292   2.631   3.599 -0.1778 -0.0123 -0.5639
14913TIP3    H166154   4.320   2.717   3.631  1.0751 -0.3008 -0.8400
14913TIP3    H266155   4.352   2.611   3.528 -1.6492 -0.2887 -1.7926
14914TIP3   OH266156   5.895   1.630  13.233 -0.2297 -0.2784 -0.0093
14914TIP3    H166157   5.989   1.642  13.249 -0.5602  1.4322  0.9272
14914TIP3    H266158   5.855   1.710  13.266 -2.0162 -0.8817 -0.5943
14915TIP3   OH266159   6.286   5.285  13.276 -0.5193 -0.1876  0.0314
14915TIP3    H166160   6.338   5.207  13.255 -2.4079 -1.2173 -1.0824
14915TIP3    H266161   6.263   5.322  13.191  1.1942  2.2440  0.5523
14916TIP3   OH266162   2.573   0.371   1.066  0.2881 -0.2676  0.1414
14916TIP3    H166163   2.576   0.465   1.086 -1.1642 -0.2718  0.5094
14916TIP3    H266164   2.627   0.361   0.987  0.2471  0.9141 -0.0518
14917TIP3   OH266165   4.484   3.447  13.093 -0.1303  0.2599 -0.8262
14917TIP3    H166166   4.516   3.505  13.023  0.7474 -0.2820 -0.8905
14917TIP3    H266167   4.412   3.496  13.133  0.2884  1.1968 -1.1761
14918TIP3   OH266168   0.511   4.147  12.291 -0.3127 -0.4588  0.7496
14918TIP3    H166169   0.484   4.195  12.213 -0.3007 -0.8893  0.4727
14918TIP3    H266170   0.536   4.214  12.354 -0.6605 -0.0994  0.5051
14919TIP3   OH266171   2.718   3.603  11.314 -0.0214 -0.1143  0.4812
14919TIP3    H166172   2.772   3.575  11.240 -0.4654 -0.5839  0.3349
14919TIP3    H266173   2.779   3.608  11.388  0.6251  1.3160 -0.1253
14920TIP3   OH266174   3.700   6.708   0.479 -0.9593 -0.1354 -0.4559
14920TIP3    H166175   3.747   6.717   0.563  1.1349  0.2447 -1.6025
14920TIP3    H266176   3.672   6.616   0.477 -0.5805 -0.2795  0.4219
14921TIP3   OH266177   2.886   2.561   2.842 -0.6586  0.6186  0.5190
14921TIP3    H166178   2.977   2.552   2.870 -0.7741  0.7295  0.9341
14921TIP3    H266179   2.862   2.650   2.866 -1.1773  0.2813  1.3194
14922TIP3   OH266180   3.771   0.491  15.433  0.7626 -0.1346 -0.4634
14922TIP3    H166181   3.753   0.478  15.526  0.2124 -0.0571 -0.5537
14922TIP3    H266182   3.746   0.409  15.391  0.9127 -0.1337 -0.5563
14923TIP3   OH266183   4.131   1.867  11.076 -0.0110  0.2770  0.1702
14923TIP3    H166184   4.040   1.896  11.085  0.0268  0.3537  0.3069
14923TIP3    H266185   4.158   1.846  11.165  0.0957  0.2235  0.1244
14924TIP3   OH266186   3.496   4.460  15.947  0.4245 -0.8219  0.4332
14924TIP3    H166187   3.501   4.531  16.010 -1.7239  0.8398 -1.1402
14924TIP3    H266188   3.581   4.416  15.953  1.5438  1.4078  1.9682
14925TIP3   OH266189   3.159   3.613   2.144 -0.1103 -0.6644 -0.0481
14925TIP3    H166190   3.245   3.649   2.121 -0.9312  1.1169 -0.5239
14925TIP3    H266191   3.132   3.662   2.221 -0.8320 -1.0043 -0.0774
14926TIP3   OH266192   2.484   5.400   3.984  0.5254  0.0987  0.3220
14926TIP3    H166193   2.510   5.375   4.072 -1.5303 -1.6761  0.5253
14926TIP3    H266194   2.546   5.468   3.958  3.0339 -1.4042  1.9710
14927TIP3   OH266195   5.613   5.053   2.165 -0.2739 -0.5856  0.2400
14927TIP3    H166196   5.571   4.967   2.163  0.1798 -0.8123  0.3494
14927TIP3    H266197   5.574   5.101   2.092 -0.8371 -0.7388  0.4380
14928TIP3   OH266198   0.327   1.697  16.646  0.5545 -0.1257  0.3679
14928TIP3    H166199   0.363   1.624  16.696  2.5262 -1.2353 -2.3841
14928TIP3    H266200   0.268   1.656  16.583  0.8162  0.7570 -0.4816
14929TIP3   OH266201   3.888   2.156   1.846  0.0259 -0.1193 -0.0060
14929TIP3    H166202   3.860   2.245   1.864  0.1009 -0.2037  0.5395
14929TIP3    H266203   3.829   2.125   1.777  1.5431  1.1798 -1.9889
14930TIP3   OH266204   2.171   0.224  16.569 -0.1650 -0.1182 -0.7759
14930TIP3    H166205   2.120   0.174  16.631 -0.3553  0.4837 -0.4354
14930TIP3    H266206   2.169   0.314  16.603 -1.7172  0.5771 -2.5407
14931TIP3   OH266207   1.342   1.050   2.241  0.5201 -0.5141  0.2901
14931TIP3    H166208   1.375   0.966   2.208 -1.8534 -0.5861 -2.2543
14931TIP3    H266209   1.272   1.074   2.181  1.4356  3.6341  0.5807
14932TIP3   OH266210   0.183   4.480  11.512  0.3204  0.0469  0.5035
14932TIP3    H166211   0.221   4.504  11.597  0.1132 -0.6806  0.8103
14932TIP3    H266212   0.141   4.395  11.528 -0.2324  0.1886 -0.1805
14933TIP3   OH266213   6.463   1.435   2.726 -0.2282 -0.4565  0.2682
14933TIP3    H166214   6.450   1.502   2.793 -0.2388 -0.4297  0.2394
14933TIP3    H266215   6.424   1.472   2.647 -0.0817 -0.4249  0.2103
14934TIP3   OH266216   1.002   3.683   0.046 -0.0768 -0.3374  0.2798
14934TIP3    H166217   0.925   3.731   0.078  0.7231  0.0789  1.6702
14934TIP3    H266218   1.065   3.752   0.024  0.8207 -0.6918  1.6117
14935TIP3   OH266219   2.412   3.333  15.894 -0.2339 -0.5604 -0.1214
14935TIP3    H166220   2.501   3.300  15.882 -0.0651 -0.0134 -0.4559
14935TIP3    H266221   2.394   3.381  15.813 -0.6378 -0.2309  0.1596
14936TIP3   OH266222   4.537   0.033  15.577 -0.1475  0.3671  0.3672
14936TIP3    H166223   4.583   0.037  15.661 -1.2318  0.0092  1.0032
14936TIP3    H266224   4.476  -0.040  15.587  0.8009 -0.7255 -1.3199
14937TIP3   OH266225   2.368   4.189   0.220 -0.9812  0.0156 -0.2719
14937TIP3    H166226   2.426   4.264   0.211  0.2345 -0.9853 -1.0592
14937TIP3    H266227   2.414   4.117   0.178 -0.9440 -1.8023  2.6126
14938TIP3   OH266228   5.984   0.866   0.597 -0.0019  0.0599  0.2841
14938TIP3    H166229   6.050   0.921   0.555  0.1686  0.6762  1.3239
14938TIP3    H266230   6.007   0.868   0.690 -1.9012  0.9355  0.7930
14939TIP3   OH266231   2.912   2.940   4.237  0.1289 -0.2786 -0.1000
14939TIP3    H166232   2.994   2.904   4.271 -1.2715 -2.5673  1.0759
14939TIP3    H266233   2.886   3.004   4.303  0.8081  0.2922 -0.3647
14940TIP3   OH266234   3.945   3.181   5.732 -1.1690  0.3210 -0.2226
14940TIP3    H166235   3.910   3.195   5.820 -0.6900 -0.3193  0.0761
14940TIP3    H266236   4.027   3.231   5.730 -0.9078 -0.0989 -0.1194
14941TIP3   OH266237   5.059   4.487  12.285 -0.1871  0.1814  0.3911
14941TIP3    H166238   5.055   4.505  12.191 -1.3392  0.7663  0.5409
14941TIP3    H266239   5.151   4.464  12.300  0.2277  0.9716 -0.7217
14942TIP3   OH266240   6.465   2.451   4.859 -0.6301  0.3304 -0.9450
14942TIP3    H166241   6.425   2.413   4.780 -1.6643 -2.4418  0.7374
14942TIP3    H266242   6.437   2.392   4.929  0.5397  2.4753  1.4567
14943TIP3   OH266243   0.270   1.344   0.814 -0.3238 -0.2592  0.5962
14943TIP3    H166244   0.266   1.439   0.803 -0.1975 -0.0618  2.0366
14943TIP3    H266245   0.362   1.321   0.798 -0.2792 -0.0854  0.6083
14944TIP3   OH266246   4.837   1.567   5.660 -0.3062  0.2478 -0.3529
14944TIP3    H166247   4.901   1.510   5.617  0.4711  0.1341  0.8833
14944TIP3    H266248   4.827   1.530   5.748  0.2865  2.0318  0.5278
14945TIP3   OH266249   6.127   4.129   3.008 -0.3761 -0.5951  0.0089
14945TIP3    H166250   6.165   4.217   3.011 -1.7730  0.0726 -1.1441
14945TIP3    H266251   6.192   4.074   3.053  0.8755  0.8781  0.0840
14946TIP3   OH266252   5.294   1.962  15.329  0.3075  0.4138  0.2889
14946TIP3    H166253   5.317   2.018  15.404 -0.0193 -0.0146  0.7185
14946TIP3    H266254   5.322   1.874  15.357 -1.3816 -0.0421  0.6185
14947TIP3   OH266255   6.021   6.578  16.847 -0.0813 -0.3161  0.1139
14947TIP3    H166256   6.019   6.508  16.782 -0.4610  0.6004 -0.8835
14947TIP3    H266257   6.111   6.610  16.846  0.0581 -0.6881  0.4707
14948TIP3   OH266258   3.642   2.765   0.998  0.4099  0.2601  0.5479
14948TIP3    H166259   3.727   2.800   0.971  0.6946 -0.4186  0.5394
14948TIP3    H266260   3.649   2.671   0.982 -1.0498  0.4116 -1.3580
14949TIP3   OH266261   3.828   6.382  13.638  0.2079 -0.2048 -0.1275
14949TIP3    H166262   3.760   6.414  13.698 -0.5187 -3.4513  0.9862
14949TIP3    H266263   3.906   6.374  13.692  1.2832  2.4119 -1.1413
14950TIP3   OH266264   0.400   0.896   5.251 -0.0235  0.0156  0.4609
14950TIP3    H166265   0.473   0.939   5.296  0.6027 -0.1436 -0.3596
14950TIP3    H266266   0.443   0.833   5.193 -0.8655 -0.7070  0.6065
14951TIP3   OH266267   1.639   0.874  11.991 -0.4775 -0.0487  0.5804
14951TIP3    H166268   1.681   0.883  11.905 -0.3251 -0.3690  0.6177
14951TIP3    H266269   1.584   0.796  11.982 -2.3366  1.2403  0.0204
14952TIP3   OH266270   1.877   6.294  12.629  0.1496 -0.3051  0.3846
14952TIP3    H166271   1.839   6.285  12.716 -0.3511  1.9879  0.4818
14952TIP3    H266272   1.972   6.293  12.644  0.0924  1.7146  1.2584
14953TIP3   OH266273   2.762   4.489  12.088 -0.5319 -0.3494  0.0098
14953TIP3    H166274   2.753   4.558  12.022 -0.2643 -2.4617 -2.4089
14953TIP3    H266275   2.682   4.495  12.140  0.2208  2.7744  1.0194
14954TIP3   OH266276   0.601   3.166  14.155 -0.2029 -0.2540  0.0124
14954TIP3    H166277   0.511   3.196  14.173  0.1019  0.5804  0.1756
14954TIP3    H266278   0.630   3.128  14.238 -0.5488 -0.9247 -0.1631
14955TIP3   OH266279   2.035   1.803   0.368  0.7709  0.3673 -0.2363
14955TIP3    H166280   1.951   1.826   0.407 -0.4876  0.9131 -2.9928
14955TIP3    H266281   2.098   1.809   0.440 -1.4511  0.3606  1.8331
14956TIP3   OH266282   2.313   5.366  14.607  0.6168 -0.4532  0.4361
14956TIP3    H166283   2.319   5.386  14.701  0.5637 -0.8178  0.5194
14956TIP3    H266284   2.300   5.451  14.565  1.2871 -0.2144  0.7034
14957TIP3   OH266285   6.426   6.404  13.278  0.4422  0.1983 -0.4124
14957TIP3    H166286   6.453   6.495  13.291  0.7021  0.1513 -0.6209
14957TIP3    H266287   6.344   6.410  13.230  0.0649  0.3421  0.2335
14958TIP3   OH266288   4.345   6.416   0.447  0.4563  0.5475  0.1570
14958TIP3    H166289   4.335   6.444   0.356  2.2577  1.9190  0.3229
14958TIP3    H266290   4.402   6.340   0.443  1.0601  0.9873  0.1468
14959TIP3   OH266291   1.225   5.151   5.994  0.1115 -0.4296 -0.4615
14959TIP3    H166292   1.221   5.204   6.073  2.8366 -0.1169 -0.4400
14959TIP3    H266293   1.267   5.207   5.929 -1.7909 -0.7774 -2.0976
14960TIP3   OH266294   0.240   3.925  10.562  0.1110 -0.0820 -0.1353
14960TIP3    H166295   0.321   3.874  10.564 -0.9039 -1.7702 -0.1566
14960TIP3    H266296   0.269   4.013  10.540  1.9714 -0.5680  0.1105
14961TIP3   OH266297   6.404   2.647   2.772 -0.2864  0.1477  0.0501
14961TIP3    H166298   6.350   2.711   2.727  0.7426  1.5651  0.7485
14961TIP3    H266299   6.345   2.605   2.836 -1.1376 -0.1413 -0.9080
14962TIP3   OH266300   0.040   1.432   0.315 -0.2116  0.1709  0.2809
14962TIP3    H166301   0.075   1.344   0.302 -1.0936 -0.2292  0.5588
14962TIP3    H266302   0.097   1.489   0.263 -1.3555 -0.9078 -2.3269
14963TIP3   OH266303   5.453   5.810   2.933  0.1337  0.0279 -0.1387
14963TIP3    H166304   5.403   5.796   3.013 -0.3541 -1.1717 -0.6408
14963TIP3    H266305   5.534   5.853   2.962 -0.1756 -0.1075  0.9433
14964TIP3   OH266306   6.551   3.429   3.565  0.0949  0.0899  0.4317
14964TIP3    H166307   6.619   3.446   3.500 -0.6935  0.2447 -0.3726
14964TIP3    H266308   6.598   3.401   3.643  1.0499 -0.3170 -0.2798
14965TIP3   OH266309   4.119   5.260  11.507  0.4765  0.0469  0.6482
14965TIP3    H166310   4.087   5.337  11.460 -2.2098 -1.4946 -0.2201
14965TIP3    H266311   4.141   5.197  11.439 -0.4011 -1.0811  1.3770
14966TIP3   OH266312   1.543   4.598   3.893 -0.0942  0.0789  0.1028
14966TIP3    H166313   1.560   4.691   3.878 -0.9524  0.3081  0.5367
14966TIP3    H266314   1.458   4.582   3.852 -1.1287  0.0618  2.1457
14967TIP3   OH266315   0.117   3.131  16.258 -0.0729  0.0487  0.1432
14967TIP3    H166316   0.202   3.155  16.221 -1.7374  1.1217 -3.3470
14967TIP3    H266317   0.098   3.045  16.222 -0.7347  0.0713  0.4129
14968TIP3   OH266318   3.163   2.543  15.330 -0.0588  0.1223 -0.0699
14968TIP3    H166319   3.137   2.635  15.336  0.1772  0.3331 -1.7852
14968TIP3    H266320   3.127   2.502  15.409 -2.3262  1.1787 -0.4828
14969TIP3   OH266321   2.354   5.206  13.881 -0.1666  0.2552  0.4074
14969TIP3    H166322   2.284   5.141  13.882  1.0708 -1.1344 -0.1102
14969TIP3    H266323   2.423   5.169  13.935  0.8174  0.8315 -0.4110
14970TIP3   OH266324   5.547   3.242  14.447 -0.3220  0.0887  0.4615
14970TIP3    H166325   5.590   3.275  14.525 -1.6149  2.0168  0.4492
14970TIP3    H266326   5.457   3.223  14.474 -0.5683  0.0125 -0.3535
14971TIP3   OH266327   5.365   4.721   4.861 -0.0187 -0.1721 -0.4520
14971TIP3    H166328   5.307   4.655   4.825 -2.4691  0.0197  2.7258
14971TIP3    H266329   5.423   4.673   4.921 -1.2424  0.3640  1.2216
14972TIP3   OH266330   0.242   0.673  15.521 -0.8121 -0.0535 -0.1791
14972TIP3    H166331   0.337   0.666  15.510 -0.1217  1.3427  3.5454
14972TIP3    H266332   0.220   0.759  15.486 -0.6833 -0.2761 -0.8168
14973TIP3   OH266333   3.740   4.214  12.163  0.4743 -0.0876  0.3754
14973TIP3    H166334   3.791   4.134  12.154 -0.8182 -0.7290 -2.2670
14973TIP3    H266335   3.780   4.276  12.102 -0.7264  0.0254 -0.3316
14974TIP3   OH266336   4.347   0.536   0.368  0.1797  0.5917  0.1122
14974TIP3    H166337   4.442   0.547   0.360 -0.0743  2.9455 -0.5358
14974TIP3    H266338   4.315   0.524   0.279 -0.4097  3.4914 -0.1690
14975TIP3   OH266339   0.686   5.160   0.545  0.1603 -0.3084 -0.2999
14975TIP3    H166340   0.743   5.126   0.614 -0.3938 -0.6924 -0.0243
14975TIP3    H266341   0.668   5.250   0.570  0.1954 -0.3583 -0.0956
14976TIP3   OH266342   4.085   6.340  13.812 -0.2526  0.1459  0.0516
14976TIP3    H166343   4.115   6.254  13.782  0.8517  0.7672 -0.7158
14976TIP3    H266344   4.133   6.355  13.893  1.9064  1.2685 -1.3270
14977TIP3   OH266345   1.933   1.587   5.256  0.1022  0.2335 -0.0133
14977TIP3    H166346   1.950   1.658   5.195 -0.3321  1.3853  1.1464
14977TIP3    H266347   1.940   1.507   5.204  0.3886  1.1359 -1.3946
14978TIP3   OH266348   2.508   5.804  10.521  0.2396  0.1580  0.3926
14978TIP3    H166349   2.559   5.881  10.542 -1.0439  0.7967  1.3131
14978TIP3    H266350   2.571   5.743  10.482  1.3749  1.4495  0.1391
14979TIP3   OH266351   2.102   0.560   3.714  0.2636 -0.2474  0.0458
14979TIP3    H166352   2.086   0.475   3.672  1.8738  0.5236 -2.3006
14979TIP3    H266353   2.034   0.617   3.678  0.6560  0.0271 -0.2640
14980TIP3   OH266354   5.820   6.198   0.839 -0.2762 -0.4030 -0.2583
14980TIP3    H166355   5.745   6.240   0.881  0.1353  1.5496 -1.3330
14980TIP3    H266356   5.888   6.198   0.906 -0.8792 -1.1480  0.3649
14981TIP3   OH266357   5.711   2.966   3.916  0.0019 -0.3970  0.1272
14981TIP3    H166358   5.721   2.871   3.922 -0.3225 -0.4526 -0.1079
14981TIP3    H266359   5.639   2.986   3.975  2.0076  0.1168  2.5316
14982TIP3   OH266360   1.868   5.032  15.030  0.2276 -0.4854  0.2765
14982TIP3    H166361   1.933   5.076  14.977 -0.3170  0.6889  0.5607
14982TIP3    H266362   1.899   5.042  15.120 -1.3093  1.8723  0.6227
14983TIP3   OH266363   0.212   5.705  10.715 -0.3457 -0.3147 -0.7732
14983TIP3    H166364   0.211   5.798  10.735 -0.2332 -0.1908 -1.3411
14983TIP3    H266365   0.288   5.693  10.658  1.0095 -1.1446  1.1171
14984TIP3   OH266366   5.853   3.014   3.197  0.2051  0.7363  0.0187
14984TIP3    H166367   5.929   2.956   3.192  1.9374  2.5127  2.9460
14984TIP3    H266368   5.852   3.060   3.114  1.2460 -0.5872 -0.7647
14985TIP3   OH266369   5.894   2.165  12.263 -0.4949 -0.5828 -0.0136
14985TIP3    H166370   5.812   2.208  12.240 -0.0227  1.3787  1.5893
14985TIP3    H266371   5.890   2.154  12.358  1.0511 -0.4776  0.0976
14986TIP3   OH266372   3.124   3.574   1.191  0.1349  0.7287 -0.0591
14986TIP3    H166373   3.125   3.578   1.287 -1.0529  1.4135 -0.0519
14986TIP3    H266374   3.211   3.542   1.167  0.1892 -0.2069  1.2750
14987TIP3   OH266375   3.482   0.148  16.113  0.0176  0.0623  0.7157
14987TIP3    H166376   3.404   0.093  16.118 -0.6840  0.8850 -0.6383
14987TIP3    H266377   3.449   0.236  16.133  0.6307  0.3859  0.3100
14988TIP3   OH266378   0.817   2.597   1.869 -0.4756 -0.8831 -0.5370
14988TIP3    H166379   0.787   2.664   1.931  2.0102 -1.3524  1.3093
14988TIP3    H266380   0.903   2.571   1.901 -0.7394 -3.9812 -2.0008
14989TIP3   OH266381   5.132   0.473   0.712 -0.2570 -0.2519 -0.4185
14989TIP3    H166382   5.047   0.505   0.681  0.1230  0.4560 -0.7388
14989TIP3    H266383   5.113   0.438   0.799 -1.1190 -1.2582 -0.9859
14990TIP3   OH266384   1.300   3.753   2.019  0.7280  0.6009 -0.5749
14990TIP3    H166385   1.311   3.714   1.933  1.6683  1.1052 -0.6970
14990TIP3    H266386   1.312   3.847   2.005  0.3279  0.7499  0.0152
14991TIP3   OH266387   6.238   2.571  13.393  0.2714  0.8145 -0.1830
14991TIP3    H166388   6.222   2.563  13.487  3.1932 -1.5719  0.2621
14991TIP3    H266389   6.323   2.614  13.386  1.3929 -1.4538 -1.5366
14992TIP3   OH266390   0.175   5.150  16.208 -1.0087 -0.1436 -0.2070
14992TIP3    H166391   0.178   5.186  16.297 -0.1387  0.0840 -0.3202
14992TIP3    H266392   0.264   5.119  16.192 -0.8890  0.7479 -1.3709
14993TIP3   OH266393   0.152   2.715   2.531 -0.0251 -0.5581 -0.1945
14993TIP3    H166394   0.064   2.707   2.566 -0.5994  1.2016 -1.1081
14993TIP3    H266395   0.159   2.645   2.465  0.1988 -2.2918  1.5737
14994TIP3   OH266396   6.390   6.161   3.138  0.2239 -0.4907  0.1950
14994TIP3    H166397   6.346   6.113   3.068  0.2511  0.2604 -0.3423
14994TIP3    H266398   6.340   6.242   3.148  1.2243  0.1955 -0.1558
14995TIP3   OH266399   2.720   0.287   0.837  0.0361  0.6095  0.0293
14995TIP3    H166400   2.775   0.283   0.759  0.2244  1.1835  0.1220
14995TIP3    H266401   2.705   0.196   0.862  0.2775  0.4343 -0.4637
14996TIP3   OH266402   6.511   2.185  14.779 -0.0041  0.2016  0.2451
14996TIP3    H166403   6.579   2.122  14.803 -0.7164 -0.3453  0.8658
14996TIP3    H266404   6.429   2.142  14.803 -0.9125 -0.7546 -3.8209
14997TIP3   OH266405   3.072   6.195   2.684  0.1679  0.7511 -0.4374
14997TIP3    H166406   2.999   6.137   2.660 -0.4182  1.9959 -1.8612
14997TIP3    H266407   3.135   6.183   2.613  1.9827 -1.1874  1.3553
14998TIP3   OH266408   0.905   6.338  16.188  0.1385 -0.3867 -0.1333
14998TIP3    H166409   0.821   6.373  16.157 -0.1042 -0.5584  0.3159
14998TIP3    H266410   0.940   6.406  16.245  0.6399 -0.0222 -0.8606
14999TIP3   OH266411   5.002   5.847   3.925  0.0017 -0.3890 -0.0627
14999TIP3    H166412   5.040   5.759   3.917 -1.3366 -1.0245  0.1213
14999TIP3    H266413   4.968   5.866   3.838 -0.3020 -0.3491  0.0629
15000TIP3   OH266414   2.575   0.410   0.223  0.0549 -0.1712  0.3314
15000TIP3    H166415   2.649   0.440   0.276 -1.1148  3.8387  0.0668
15000TIP3    H266416   2.508   0.388   0.287  0.2756 -0.1955  0.5579
15001TIP3   OH266417   5.285   0.435   0.012 -0.1394  0.0078  0.1540
15001TIP3    H166418   5.219   0.500   0.036  0.4269  1.4382 -1.9522
15001TIP3    H266419   5.368   0.481   0.025  0.2806 -0.4082 -0.9879
15002TIP3   OH266420   5.726   2.093  16.168 -0.6214  0.1320 -0.4469
15002TIP3    H166421   5.719   2.085  16.073 -0.7896 -0.0203 -0.4227
15002TIP3    H266422   5.785   2.021  16.194 -0.2429  0.4283 -0.4768
15003TIP3   OH266423   0.091   4.100   5.697 -0.2799  0.1806  0.3451
15003TIP3    H166424   0.052   4.082   5.783 -1.2643  1.2357  0.1499
15003TIP3    H266425   0.034   4.055   5.635 -0.2824  0.4322  0.1629
15004TIP3   OH266426   3.057   2.161   4.863 -0.3964 -0.4397  0.7440
15004TIP3    H166427   2.968   2.159   4.898 -0.4913 -0.4420  0.5064
15004TIP3    H266428   3.061   2.085   4.805 -0.3122 -0.3074  0.5775
15005TIP3   OH266429   1.695   0.125  12.500  0.1339 -0.5931 -0.1775
15005TIP3    H166430   1.725   0.199  12.553 -0.1063 -0.8417  0.3140
15005TIP3    H266431   1.672   0.057  12.564 -2.5493 -0.0450 -0.4322
15006TIP3   OH266432   4.563   4.340  11.232  0.3792  0.0776 -0.3518
15006TIP3    H166433   4.608   4.274  11.285  0.6328 -0.2486 -0.9666
15006TIP3    H266434   4.589   4.423  11.270 -1.5450 -0.1731  1.7746
15007TIP3   OH266435   2.588   6.391   0.276 -0.1194  0.6136  0.0784
15007TIP3    H166436   2.512   6.384   0.333  0.0245  0.8266  0.2966
15007TIP3    H266437   2.562   6.452   0.207 -0.9516 -1.0303 -1.1474
15008TIP3   OH266438   5.871   1.137  16.191 -0.2248 -0.2025  0.5175
15008TIP3    H166439   5.937   1.073  16.164 -0.5812 -0.7377  0.8790
15008TIP3    H266440   5.854   1.189  16.112  0.5560 -0.1217  0.3990
15009TIP3   OH266441   3.919   2.886  13.321  0.0656 -0.1354  0.6633
15009TIP3    H166442   3.831   2.922  13.312 -0.7810 -1.9541  1.2376
15009TIP3    H266443   3.949   2.916  13.407 -0.7410 -0.9644  1.2520
15010TIP3   OH266444   3.048   6.771   5.767  0.6508  0.6374  0.3562
15010TIP3    H166445   3.117   6.738   5.825  2.5984 -0.0170 -2.1219
15010TIP3    H266446   3.020   6.693   5.718 -1.3757  1.0457  0.8131
15011TIP3   OH266447   6.665   1.664   1.671 -0.1550  0.6389  0.0333
15011TIP3    H166448   6.641   1.757   1.665  0.1635  0.7840  0.8067
15011TIP3    H266449   6.724   1.660   1.746 -0.7254 -0.3038  0.4441
15012TIP3   OH266450   6.051   6.701  12.396 -0.3320  0.1288 -0.1112
15012TIP3    H166451   6.027   6.716  12.488 -1.6825 -0.4354 -0.3379
15012TIP3    H266452   6.068   6.789  12.361  0.0291  0.3617  0.6310
15013TIP3   OH266453   6.608   1.002  15.244 -0.4163 -0.2168  0.6808
15013TIP3    H166454   6.674   0.934  15.224 -0.2169 -0.1785  1.1979
15013TIP3    H266455   6.588   1.041  15.159  1.2919  0.7386  0.6733
15014TIP3   OH266456   4.624   5.060   5.266  0.2205 -0.2070 -0.5742
15014TIP3    H166457   4.650   5.097   5.350  1.5813  0.3255 -1.1941
15014TIP3    H266458   4.552   5.115   5.236 -0.4358 -0.5522  0.3441
15015TIP3   OH266459   0.537   6.218   4.006  0.0735 -0.2586  0.1190
15015TIP3    H166460   0.450   6.212   4.047 -0.5502 -1.9979 -1.3005
15015TIP3    H266461   0.570   6.128   4.007  0.9347  0.0135 -1.2467
15016TIP3   OH266462   1.322   2.451  14.543 -0.0915 -0.1214 -0.3012
15016TIP3    H166463   1.344   2.529  14.595  0.2700  0.8982 -1.9105
15016TIP3    H266464   1.406   2.420  14.509 -0.0281 -2.1203  1.4286
15017TIP3   OH266465   4.835   6.259   4.532 -0.2892  0.5804 -0.7001
15017TIP3    H166466   4.886   6.190   4.489 -1.2297 -1.2637  1.0032
15017TIP3    H266467   4.766   6.280   4.470 -0.0176 -0.0462 -1.2264
15018TIP3   OH266468   5.399   3.566   3.688 -0.1383 -0.5124  0.2657
15018TIP3    H166469   5.372   3.525   3.606  1.2824 -0.1901 -0.4082
15018TIP3    H266470   5.323   3.615   3.717 -1.4360 -2.4630  0.3789
15019TIP3   OH266471   5.530   4.283  12.616 -0.6081  0.3023 -0.4557
15019TIP3    H166472   5.510   4.197  12.652  0.9267  0.6614  1.3836
15019TIP3    H266473   5.451   4.334  12.630 -0.4267  0.1124  1.5210
15020TIP3   OH266474   0.891   6.207   2.246  0.1544  0.3783 -0.1292
15020TIP3    H166475   0.955   6.153   2.293  0.5235 -0.5085 -1.5722
15020TIP3    H266476   0.806   6.183   2.284  0.5496  0.5976  0.9105
15021TIP3   OH266477   1.181   0.064   3.770  0.3274  0.6701 -0.4799
15021TIP3    H166478   1.142  -0.008   3.720 -2.1927  1.4607  0.2066
15021TIP3    H266479   1.169   0.140   3.713  2.8019  0.6630 -1.1182
15022TIP3   OH266480   0.129   2.070   3.183  0.2920  0.0137 -0.2029
15022TIP3    H166481   0.082   2.002   3.135  1.2879 -1.4902  0.8739
15022TIP3    H266482   0.069   2.097   3.252 -0.9844  1.8933 -1.9148
15023TIP3   OH266483   5.034   6.518   0.059 -0.6533  0.0128  0.1829
15023TIP3    H166484   5.029   6.422   0.056  1.0366 -0.1394  1.0630
15023TIP3    H266485   5.045   6.544  -0.032  2.1650 -0.9309  0.1419
15024TIP3   OH266486   4.422   3.923  12.667  0.0751  0.2202  0.4783
15024TIP3    H166487   4.503   3.893  12.625 -0.7498 -0.7781 -0.4250
15024TIP3    H266488   4.388   3.990  12.608  0.5446  1.1026  1.1788
15025TIP3   OH266489   1.936   0.242   6.288 -0.3527  0.1013  0.1516
15025TIP3    H166490   1.859   0.192   6.263  1.7114 -2.2957 -1.8880
15025TIP3    H266491   1.996   0.178   6.325  0.5769  1.9765  2.1590
15026TIP3   OH266492   4.945   5.070  13.794 -0.3970  0.1081 -0.0570
15026TIP3    H166493   4.903   5.005  13.738 -2.0122  1.4695 -0.4818
15026TIP3    H266494   5.018   5.022  13.834 -0.8838 -1.6634 -1.1543
15027TIP3   OH266495   2.706   2.959   1.223  0.2933 -0.2423 -0.0336
15027TIP3    H166496   2.782   2.999   1.180  1.5869 -0.9252  1.5026
15027TIP3    H266497   2.666   3.030   1.272  0.6958 -0.1203  0.1299
15028TIP3   OH266498   4.254   4.806  15.864  0.5522  0.7201  0.0792
15028TIP3    H166499   4.292   4.794  15.951 -0.7800  0.2447  0.6270
15028TIP3    H266500   4.180   4.745  15.862  1.6218 -0.6557 -2.0627
15029TIP3   OH266501   5.241   2.086   3.348 -0.0236  0.2439  0.1303
15029TIP3    H166502   5.203   2.062   3.264  2.6646  1.5440 -1.5974
15029TIP3    H266503   5.218   2.178   3.360  0.7859  0.4610  0.0865
15030TIP3   OH266504   5.507   4.333   4.046 -0.9782  0.0979  0.1176
15030TIP3    H166505   5.466   4.398   3.989  0.4413  0.9511  0.0193
15030TIP3    H266506   5.599   4.334   4.021 -0.7244 -1.1405  0.9073
15031TIP3   OH266507   4.465   4.367  13.002  0.8388  0.1500  0.0033
15031TIP3    H166508   4.553   4.334  13.016  1.4579  1.9895  0.8783
15031TIP3    H266509   4.436   4.395  13.090 -0.1289  0.6682 -0.4613
15032TIP3   OH266510   1.828   1.091   2.884  0.1451  0.1457  0.2834
15032TIP3    H166511   1.920   1.109   2.866  0.5659 -0.8446  1.2911
15032TIP3    H266512   1.798   1.042   2.807 -0.0800  2.0556 -0.8932
15033TIP3   OH266513   4.048   4.885  13.597 -0.1016  0.2097 -0.0640
15033TIP3    H166514   4.011   4.833  13.525 -0.8479  2.4621 -1.4056
15033TIP3    H266515   4.124   4.928  13.559 -0.4127  1.3085  0.5196
15034TIP3   OH266516   2.834   4.538   5.661  0.2423  0.0037 -0.0665
15034TIP3    H166517   2.916   4.560   5.705  0.0513 -1.3071  0.9903
15034TIP3    H266518   2.767   4.546   5.729 -0.5057  0.9399 -0.8881
15035TIP3   OH266519   4.822   1.708  15.706  0.3496  0.0559 -0.2051
15035TIP3    H166520   4.913   1.700  15.678  1.3112 -1.4081  2.9135
15035TIP3    H266521   4.819   1.664  15.791 -3.5654 -1.1415 -0.7635
15036TIP3   OH266522   1.603   0.560   0.503 -0.4168  0.3768 -0.1126
15036TIP3    H166523   1.682   0.578   0.555 -0.8899  0.0471  0.7420
15036TIP3    H266524   1.600   0.464   0.497 -0.5707  0.4014 -0.4338
15037TIP3   OH266525   0.837   4.252  12.511  0.3486  0.3841  0.2898
15037TIP3    H166526   0.871   4.214  12.430  1.3985  0.7536  0.5404
15037TIP3    H266527   0.756   4.295  12.485  0.9991  1.0509 -0.7013
15038TIP3   OH266528   3.295   1.534   3.148 -0.5395  0.5019  0.0073
15038TIP3    H166529   3.317   1.452   3.105 -3.2584 -0.2732 -0.1151
15038TIP3    H266530   3.357   1.541   3.220 -0.1118 -1.5636 -0.0970
15039TIP3   OH266531   4.073   5.150  15.575 -0.0705 -0.4737  0.3523
15039TIP3    H166532   4.129   5.226  15.559  0.5699  0.1851  4.5272
15039TIP3    H266533   4.126   5.075  15.550  0.8367  0.2933 -0.0845
15040TIP3   OH266534   6.393   0.381   4.784 -0.3913  0.0725  0.3418
15040TIP3    H166535   6.394   0.473   4.758 -0.3075  0.7021  2.3818
15040TIP3    H266536   6.484   0.352   4.774 -0.0067  0.8067  1.5545
15041TIP3   OH266537   5.602   0.971   1.939  0.0413 -0.6303 -0.0806
15041TIP3    H166538   5.560   1.014   2.012  1.9083 -0.2850  0.8565
15041TIP3    H266539   5.564   1.012   1.861 -1.1054 -0.1611  0.7076
15042TIP3   OH266540   0.491   3.192   0.835 -0.0084 -0.6649 -0.0694
15042TIP3    H166541   0.541   3.267   0.804  0.2955 -0.7280  0.2639
15042TIP3    H266542   0.408   3.197   0.787 -0.1172  0.0579  0.1890
15043TIP3   OH266543   1.214   2.220  13.301 -0.1637  0.0222 -0.3922
15043TIP3    H166544   1.262   2.144  13.333 -1.3576 -0.7102 -0.2884
15043TIP3    H266545   1.266   2.252  13.227  1.0486 -0.0744  0.4049
15044TIP3   OH266546   1.597   0.479   4.537 -0.6307  0.1588 -0.0577
15044TIP3    H166547   1.612   0.567   4.502 -2.8519  0.9350  0.7607
15044TIP3    H266548   1.580   0.493   4.630  2.3249 -1.5725  0.8898
15045TIP3   OH266549   3.414   0.659  15.407 -0.3263 -0.7652 -0.3743
15045TIP3    H166550   3.339   0.716  15.393 -0.9327 -1.7197 -1.1840
15045TIP3    H266551   3.487   0.718  15.424 -0.7829  0.2995 -1.8763
15046TIP3   OH266552   1.191   5.101   0.046  0.2481  0.2440 -0.1237
15046TIP3    H166553   1.155   5.162  -0.019 -1.6488  0.5750  1.1495
15046TIP3    H266554   1.189   5.150   0.128  3.4911  0.1716  0.1099
15047TIP3   OH266555   0.787   1.725  14.227  0.2670 -0.3494  0.7426
15047TIP3    H166556   0.866   1.776  14.208  0.8058 -0.9196  1.4062
15047TIP3    H266557   0.724   1.789  14.259 -0.6605  0.6583 -2.7041
15048TIP3   OH266558   0.860   0.520  15.812  0.1177  0.5082 -0.1536
15048TIP3    H166559   0.816   0.539  15.895 -1.2103  2.3518 -1.2109
15048TIP3    H266560   0.886   0.606  15.778  2.3566 -0.3507 -0.7787
15049TIP3   OH266561   4.027   5.878   6.620 -0.0816  0.3731  0.2172
15049TIP3    H166562   3.971   5.932   6.564  0.4545  0.2103 -0.4772
15049TIP3    H266563   3.976   5.869   6.701 -1.2473 -0.1029 -0.5319
15050TIP3   OH266564   1.364   2.061  16.311  0.9008 -0.0010  0.0811
15050TIP3    H166565   1.341   2.039  16.220 -1.7799  0.5801  0.5146
15050TIP3    H266566   1.378   1.976  16.353  0.8952 -0.3396 -0.5861
15051TIP3   OH266567   4.406   4.143   5.956  0.1773 -0.6912  0.2422
15051TIP3    H166568   4.318   4.161   5.921  0.5772  1.8536  0.3099
15051TIP3    H266569   4.393   4.126   6.049 -0.2940 -0.9734  0.1263
15052TIP3   OH266570   0.453   1.735  13.954  0.3656  0.1075  0.3139
15052TIP3    H166571   0.480   1.643  13.949  0.0850  0.0616 -0.5471
15052TIP3    H266572   0.431   1.749  14.046  0.9930 -0.5204  0.5705
15053TIP3   OH266573   1.098   0.825   2.273 -0.3885  0.2421 -0.4051
15053TIP3    H166574   1.082   0.810   2.366  3.2866 -1.7176  0.1010
15053TIP3    H266575   1.086   0.919   2.262 -2.3454  0.3236  1.6626
15054TIP3   OH266576   1.617   1.892  15.071  1.1599  0.2894  0.3802
15054TIP3    H166577   1.611   1.894  14.975 -0.6109  4.7008  0.3518
15054TIP3    H266578   1.539   1.844  15.099  0.5287  0.8396 -0.4029
15055TIP3   OH266579   0.998   1.435  14.663 -0.0724  0.3026  1.0834
15055TIP3    H166580   1.043   1.495  14.604 -0.8444 -1.1136 -1.0731
15055TIP3    H266581   0.918   1.482  14.689 -1.4401 -0.2262 -1.8010
15056TIP3   OH266582   0.811   0.240  12.755  0.1004 -0.1710 -0.1125
15056TIP3    H166583   0.810   0.329  12.721  0.1901 -0.6708 -1.4590
15056TIP3    H266584   0.889   0.235  12.810 -1.2326  1.3182  2.1010
15057TIP3   OH266585   0.818   2.967  16.484 -0.6535 -0.2973  0.2645
15057TIP3    H166586   0.812   2.947  16.390  0.7010  0.3445  0.0090
15057TIP3    H266587   0.743   2.923  16.523  1.0904 -4.3312 -0.4711
15058TIP3   OH266588   6.255   0.562   1.512  0.4175  0.3351  0.5819
15058TIP3    H166589   6.254   0.654   1.487  0.9204  0.2881  0.3769
15058TIP3    H266590   6.343   0.532   1.490  0.0965 -0.3215  0.1582
15059TIP3   OH266591   0.949   2.354   1.245 -0.1357  0.0466  0.0488
15059TIP3    H166592   0.902   2.322   1.322 -0.2136 -0.0255 -0.0284
15059TIP3    H266593   0.925   2.446   1.238 -0.2943  0.0007 -0.0118
15060TIP3   OH266594   4.834   3.089   0.045 -0.0556 -0.0608 -0.0405
15060TIP3    H166595   4.769   3.159   0.037  1.0089  0.8667 -0.9234
15060TIP3    H266596   4.805   3.023  -0.018 -1.3566 -0.6829  1.1714
15061TIP3   OH266597   0.278   1.215   0.287  0.1580  0.0539 -0.2684
15061TIP3    H166598   0.264   1.134   0.336  3.2023 -1.7183 -2.0472
15061TIP3    H266599   0.351   1.258   0.332  0.0582  0.6714 -0.6807
15062TIP3   OH266600   3.532   2.264   6.088 -0.4651  0.2086  0.3128
15062TIP3    H166601   3.502   2.257   6.178 -0.3762 -0.8389  0.2629
15062TIP3    H266602   3.490   2.191   6.042 -0.2892  0.5627 -0.4366
15063TIP3   OH266603   3.170   4.541   0.235  0.3157 -0.1069  0.1538
15063TIP3    H166604   3.197   4.550   0.326 -1.0014 -0.8636  0.6449
15063TIP3    H266605   3.233   4.481   0.197 -0.6613 -1.9741  1.3220
15064TIP3   OH266606   4.812   4.864  11.300 -0.1981  0.4839 -0.3522
15064TIP3    H166607   4.774   4.790  11.254 -1.2349  1.4758 -1.1428
15064TIP3    H266608   4.737   4.915  11.331  0.4104  2.2551 -1.5723
15065TIP3   OH266609   2.926   1.209  12.706  0.3257  0.1971 -0.0430
15065TIP3    H166610   2.983   1.285  12.693  1.7841 -0.9584 -0.6889
15065TIP3    H266611   2.918   1.202  12.801  0.9542  0.6144  0.0510
15066TIP3   OH266612   0.130   4.844   4.727  0.2332  0.0127 -0.0042
15066TIP3    H166613   0.041   4.864   4.754  0.8202  2.2039  0.4523
15066TIP3    H266614   0.186   4.888   4.792  1.6452 -0.0281 -1.1376
15067TIP3   OH266615   2.387   4.913   6.236 -0.1947 -0.9791 -0.2359
15067TIP3    H166616   2.466   4.911   6.289 -1.0084 -0.0798  1.0477
15067TIP3    H266617   2.337   4.987   6.269 -0.9236 -0.6211 -2.0016
15068TIP3   OH266618   4.295   0.210   6.530  0.7949  0.2070  0.1860
15068TIP3    H166619   4.364   0.145   6.511  0.0761 -1.4973  2.8158
15068TIP3    H266620   4.324   0.252   6.611  0.2278  1.7546 -0.3857
15069TIP3   OH266621   3.254   1.644  14.025  0.1704  0.1493  0.4141
15069TIP3    H166622   3.348   1.655  14.041  0.3704 -1.2204  0.2772
15069TIP3    H266623   3.241   1.550  14.025 -1.1628  0.3218  0.1035
15070TIP3   OH266624   4.792   2.215   4.653  0.2155 -0.4438 -0.0685
15070TIP3    H166625   4.743   2.147   4.606 -0.1110 -0.9284  0.9492
15070TIP3    H266626   4.761   2.210   4.743  0.1813  1.0812  0.0346
15071TIP3   OH266627   4.081   4.170  14.174  0.0805 -0.6410  0.4229
15071TIP3    H166628   4.164   4.174  14.221 -0.5015 -1.8417  1.5803
15071TIP3    H266629   4.099   4.114  14.098  1.2844  2.0579 -1.4988
15072TIP3   OH266630   4.785   5.791   6.113 -0.3683  0.3230  0.5680
15072TIP3    H166631   4.737   5.847   6.173 -0.8534 -0.0224  0.5098
15072TIP3    H266632   4.762   5.702   6.139  0.2758  0.1505  0.5652
15073TIP3   OH266633   1.357   3.166   3.326  0.0268 -0.1116 -0.3641
15073TIP3    H166634   1.356   3.080   3.284  1.2089 -0.1068 -0.4430
15073TIP3    H266635   1.412   3.220   3.268  1.2144  0.0497  0.8657
15074TIP3   OH266636   5.917   0.353  14.631  0.1211 -0.6166 -0.7709
15074TIP3    H166637   5.944   0.268  14.666  1.9507  0.2570  0.0925
15074TIP3    H266638   5.946   0.351  14.540  0.9416 -0.6159 -0.5205
15075TIP3   OH266639   5.669   4.195  11.043  0.2253  0.0613  0.2148
15075TIP3    H166640   5.758   4.164  11.026  1.1691  1.4399  2.2543
15075TIP3    H266641   5.640   4.143  11.118 -0.2745  0.3477  0.2220
15076TIP3   OH266642   4.846   2.960   0.556 -0.2154  0.0411  0.2475
15076TIP3    H166643   4.823   2.897   0.623 -0.6505 -0.1436 -0.0682
15076TIP3    H266644   4.816   3.044   0.591 -1.4007 -0.1927 -0.1495
15077TIP3   OH266645   0.213   4.678   2.850  0.6535  0.1846  0.2532
15077TIP3    H166646   0.144   4.696   2.786 -1.8529 -1.9748  2.0935
15077TIP3    H266647   0.235   4.763   2.886 -0.7500  1.0171 -0.7326
15078TIP3   OH266648   5.670   5.726  12.458  0.2983 -0.9380  0.5818
15078TIP3    H166649   5.725   5.763  12.390  0.6833 -1.8462  0.3786
15078TIP3    H266650   5.729   5.715  12.533 -0.2622  0.6267  1.2962
15079TIP3   OH266651   0.976   3.720   0.781 -0.2929 -0.1144  0.2045
15079TIP3    H166652   0.958   3.792   0.719 -0.2032 -0.6925 -0.5128
15079TIP3    H266653   0.894   3.711   0.830 -1.3400 -1.3502 -1.6240
15080TIP3   OH266654   6.573   2.061   5.978 -0.0687  0.4885  0.2111
15080TIP3    H166655   6.506   2.098   5.920 -0.8400 -1.5468 -0.2649
15080TIP3    H266656   6.591   1.974   5.942  2.0984  0.5690  0.9404
15081TIP3   OH266657   1.450   3.573   4.158 -0.0529 -0.1133 -0.1620
15081TIP3    H166658   1.446   3.615   4.244 -0.7891  0.7152 -0.5877
15081TIP3    H266659   1.360   3.577   4.126  0.7258  2.5156 -2.3400
15082TIP3   OH266660   0.369   4.746  13.984  0.6391 -0.0434 -0.1470
15082TIP3    H166661   0.346   4.812  14.050  1.5100  1.7976 -1.6083
15082TIP3    H266662   0.310   4.765  13.911 -0.3494 -2.0907  0.0477
15083TIP3   OH266663   2.688   5.578  11.456  0.2839 -0.4318 -0.3571
15083TIP3    H166664   2.620   5.548  11.396 -0.8009 -0.2902  0.7826
15083TIP3    H266665   2.650   5.655  11.499  1.0004 -0.6023  0.6025
15084TIP3   OH266666   6.446   2.030   2.654  0.2848  0.0937  0.0810
15084TIP3    H166667   6.507   2.001   2.722  1.0695 -1.7031 -1.2858
15084TIP3    H266668   6.393   1.952   2.635 -1.0719  1.0551 -0.1818
15085TIP3   OH266669   2.343   3.207   2.540 -0.0016  0.0462 -0.2448
15085TIP3    H166670   2.351   3.120   2.579  0.5585  0.7241  1.2159
15085TIP3    H266671   2.254   3.209   2.503  0.3358 -1.4757 -1.2221
15086TIP3   OH266672   4.456   1.109   0.730 -0.0570  0.5483  0.3787
15086TIP3    H166673   4.413   1.025   0.745  2.4900 -0.7164  1.1313
15086TIP3    H266674   4.437   1.160   0.809  1.1938 -0.6457  1.4988
15087TIP3   OH266675   3.957   6.473   2.312  0.3394 -0.0007  0.2866
15087TIP3    H166676   3.901   6.429   2.248  0.1113 -0.0070  0.4919
15087TIP3    H266677   3.920   6.451   2.397 -0.0858  0.9969  0.3755
15088TIP3   OH266678   4.294   1.995   1.474  0.3439  0.8470  0.2358
15088TIP3    H166679   4.258   1.907   1.484  0.4079  0.2663 -3.3280
15088TIP3    H266680   4.231   2.052   1.518 -1.7684 -0.6664 -0.6561
15089TIP3   OH266681   5.099   2.152  11.588 -0.3347 -0.0104  0.0561
15089TIP3    H166682   5.182   2.196  11.607  0.3420 -1.6117  1.0372
15089TIP3    H266683   5.052   2.213  11.531  1.0723  1.3882  0.3150
15090TIP3   OH266684   0.638   2.294   1.026 -0.2787 -0.0824 -0.3773
15090TIP3    H166685   0.674   2.254   1.106 -0.4602  3.0410  1.4341
15090TIP3    H266686   0.713   2.336   0.984 -0.6335  0.6192 -0.3242
15091TIP3   OH266687   1.463   1.205  14.465  0.1035  0.2877 -0.0091
15091TIP3    H166688   1.472   1.220  14.371 -0.8105 -0.0310 -0.1523
15091TIP3    H266689   1.394   1.264  14.493 -0.1139 -0.1251  0.3313
15092TIP3   OH266690   1.557   4.039   1.293  0.2282  0.7874 -0.2593
15092TIP3    H166691   1.652   4.054   1.284  0.5124 -0.7864 -0.0619
15092TIP3    H266692   1.519   4.081   1.216  1.2526  0.0253 -1.2184
15093TIP3   OH266693   1.875   5.783  15.426  0.3324 -0.0815 -0.1506
15093TIP3    H166694   1.792   5.751  15.392 -0.4402  0.6496  0.9449
15093TIP3    H266695   1.852   5.863  15.474  1.5244 -0.3777  0.9842
15094TIP3   OH266696   3.053   1.062   5.585 -0.3165 -0.2157 -0.3454
15094TIP3    H166697   3.021   0.973   5.571  1.0323 -0.7148 -0.4173
15094TIP3    H266698   3.098   1.084   5.503  0.6320 -0.0352  0.2183
15095TIP3   OH266699   1.655   0.045  13.508  0.1677 -0.0338 -0.3436
15095TIP3    H166700   1.689   0.113  13.567  1.5158  0.0917 -1.2157
15095TIP3    H266701   1.722  -0.024  13.510 -1.4542 -1.6962  1.0210
15096TIP3   OH266702   2.476   2.881   3.087  0.4818 -0.5447  0.4317
15096TIP3    H166703   2.545   2.823   3.120 -0.2049 -1.6437  0.0018
15096TIP3    H266704   2.520   2.933   3.019  1.1449 -0.4529  0.9191
15097TIP3   OH266705   6.025   0.911  16.137 -0.2337  0.6310  0.6893
15097TIP3    H166706   6.094   0.942  16.196  0.7476  1.0246 -0.6188
15097TIP3    H266707   6.069   0.896  16.054 -1.0020 -2.6264  0.7298
15098TIP3   OH266708   4.814   0.157  16.315  0.4379 -0.5262 -0.2605
15098TIP3    H166709   4.831   0.126  16.404 -0.1546  0.4933  0.2253
15098TIP3    H266710   4.747   0.097  16.282  1.8949 -1.9863 -0.6803
15099TIP3   OH266711   2.985   1.262  14.227  0.4938  0.3874  0.6879
15099TIP3    H166712   2.903   1.216  14.248  0.3502  1.0404  1.5945
15099TIP3    H266713   2.971   1.352  14.255  1.5283  0.5094  0.8787
15100TIP3   OH266714   1.279   3.452  16.302  0.0993  0.0747  0.5683
15100TIP3    H166715   1.322   3.436  16.386  0.1017  0.2630  0.6038
15100TIP3    H266716   1.351   3.471  16.241  0.2620 -1.8727  0.0875
15101TIP3   OH266717   2.734   5.457  16.560 -0.2855 -0.4363  0.6731
15101TIP3    H166718   2.815   5.489  16.599  0.0582  0.2273 -0.5450
15101TIP3    H266719   2.707   5.526  16.498  1.2563 -2.9025 -3.1373
15102TIP3   OH266720   3.066   0.502  16.482 -0.2576 -0.9067 -0.4495
15102TIP3    H166721   3.153   0.534  16.505  1.3701 -3.6960 -2.2130
15102TIP3    H266722   3.060   0.415  16.522 -1.8940 -1.1304 -1.0873
15103TIP3   OH266723   5.360   5.291   2.022 -0.3672  0.1252  0.2804
15103TIP3    H166724   5.274   5.252   2.039 -1.0642  1.0453 -0.9634
15103TIP3    H266725   5.397   5.238   1.952  0.2102 -0.4189  0.9771
15104TIP3   OH266726   0.674   1.641  17.138  0.2164 -0.2062  0.1919
15104TIP3    H166727   0.686   1.723  17.186 -0.7735  0.6580 -0.9964
15104TIP3    H266728   0.653   1.668  17.049  1.2416 -1.7740 -0.5700
15105TIP3   OH266729   5.584   3.417  15.571 -0.3221  0.4192 -0.0910
15105TIP3    H166730   5.554   3.360  15.642 -3.4917  1.8430 -0.0959
15105TIP3    H266731   5.553   3.375  15.491  0.4581  0.4084 -0.3979
15106TIP3   OH266732   1.909   2.613  11.794 -0.6334 -0.2941  0.3699
15106TIP3    H166733   1.943   2.552  11.728 -2.8124 -0.1385 -0.9867
15106TIP3    H266734   1.901   2.560  11.873  0.4512 -0.9265  0.0801
15107TIP3   OH266735   1.441   4.676  12.098 -0.3726 -0.0389  0.2748
15107TIP3    H166736   1.470   4.747  12.041  0.1953 -1.6145 -1.5106
15107TIP3    H266737   1.474   4.700  12.184  1.1878  1.1189 -0.5782
15108TIP3   OH266738   1.447   1.242   3.278  0.1521  0.5050 -0.7559
15108TIP3    H166739   1.520   1.299   3.302  1.1873 -0.7017 -0.9271
15108TIP3    H266740   1.485   1.178   3.217 -0.5631 -1.3444  0.6474
15109TIP3   OH266741   0.894   2.385   0.940 -0.0303 -0.0371  0.5051
15109TIP3    H166742   0.938   2.319   0.993  1.8857 -1.0371 -2.1394
15109TIP3    H266743   0.948   2.463   0.947 -1.2327  0.7052  2.0630
15110TIP3   OH266744   5.441   1.716   0.147 -0.4278  0.0455  0.3068
15110TIP3    H166745   5.504   1.724   0.218  0.2516 -0.1690 -0.2637
15110TIP3    H266746   5.380   1.648   0.176  1.1900 -1.7538 -0.2784
15111TIP3   OH266747   3.004   1.401   1.765 -0.1727 -0.0555  0.0216
15111TIP3    H166748   3.069   1.463   1.734 -0.3947  0.1869  0.0346
15111TIP3    H266749   2.940   1.454   1.812  1.2436 -0.6371  2.7680
15112TIP3   OH266750   1.939   3.505   3.988 -0.2278  0.0223  0.5093
15112TIP3    H166751   1.846   3.485   4.004 -0.1668 -0.3439  0.4179
15112TIP3    H266752   1.940   3.598   3.964 -0.5319  0.1151  0.8471
15113TIP3   OH266753   0.835   5.287   3.050 -0.4415  0.0956  0.3556
15113TIP3    H166754   0.917   5.248   3.019 -0.2212 -0.4350  1.5688
15113TIP3    H266755   0.823   5.364   2.994  1.9499  1.3553  1.4360
15114TIP3   OH266756   0.042   6.137   0.463  0.1995 -0.2572  0.2569
15114TIP3    H166757   0.050   6.230   0.446  0.3710 -0.3501 -0.1792
15114TIP3    H266758   0.078   6.095   0.385 -1.8141 -0.6896 -0.5109
15115TIP3   OH266759   3.478   2.033   3.312 -0.0788 -0.0827 -0.1327
15115TIP3    H166760   3.396   2.071   3.282 -1.3371 -1.6383  1.1340
15115TIP3    H266761   3.457   1.942   3.331  1.5650 -0.1718  1.6163
15116TIP3   OH266762   2.495   2.705  14.219  0.3134  0.0351 -0.0001
15116TIP3    H166763   2.464   2.767  14.285 -1.8640  1.8216 -2.4934
15116TIP3    H266764   2.429   2.636  14.217 -1.1274  1.3866 -2.0547
15117TIP3   OH266765   3.482   4.265   0.665  0.4326 -0.4977 -0.5580
15117TIP3    H166766   3.436   4.248   0.582 -0.6685 -0.1925 -0.0204
15117TIP3    H266767   3.440   4.206   0.728 -0.2234  0.8270  0.2704
15118TIP3   OH266768   4.181   1.316  12.755  0.4389 -0.1119 -0.6447
15118TIP3    H166769   4.218   1.268  12.829  0.3898  0.3587 -0.3059
15118TIP3    H266770   4.170   1.251  12.687  1.2833 -0.3858 -0.5259
15119TIP3   OH266771   1.587   5.804  16.380 -0.3927 -0.1465 -0.5204
15119TIP3    H166772   1.659   5.846  16.428  0.3268  0.3767 -1.9897
15119TIP3    H266773   1.579   5.856  16.300 -3.2229  0.5377  0.1158
15120TIP3   OH266774   3.338   4.244   2.181  0.3859  0.0297 -0.4772
15120TIP3    H166775   3.409   4.296   2.218 -0.3129  1.5161 -1.1241
15120TIP3    H266776   3.378   4.195   2.109  1.4293 -1.7497  1.2118
15121TIP3   OH266777   4.577   3.885   6.671  0.5492 -0.5497 -0.2906
15121TIP3    H166778   4.625   3.923   6.745 -0.8794  0.4689  0.1634
15121TIP3    H266779   4.580   3.953   6.604 -0.6771 -0.2408 -0.0586
15122TIP3   OH266780   0.841   0.411  15.542 -0.3521 -0.6338 -0.0366
15122TIP3    H166781   0.853   0.448  15.454 -2.2396 -0.0687 -0.1023
15122TIP3    H266782   0.866   0.481  15.601 -0.4377 -0.5243 -0.1300
15123TIP3   OH266783   4.028   5.598   5.710  0.1419 -0.2172 -0.1610
15123TIP3    H166784   3.994   5.589   5.799  0.3903 -1.0131 -0.1419
15123TIP3    H266785   4.092   5.527   5.701 -0.2643 -0.4804 -1.1525
15124TIP3   OH266786   0.981   3.323   4.199  0.9324 -0.4785  0.0739
15124TIP3    H166787   0.969   3.237   4.239  0.4059 -0.2452  0.4197
15124TIP3    H266788   0.959   3.385   4.268 -1.1097 -0.0715 -0.8531
15125TIP3   OH266789   4.314   4.172  12.837 -0.5905  0.2917  0.0272
15125TIP3    H166790   4.314   4.250  12.892 -1.2117  1.3986 -1.4631
15125TIP3    H266791   4.360   4.200  12.757  0.1400 -1.2033 -0.1077
15126TIP3   OH266792   0.147   5.516   0.847 -0.6274 -0.4332 -0.1820
15126TIP3    H166793   0.196   5.513   0.764 -1.6844 -0.6369 -0.8117
15126TIP3    H266794   0.101   5.432   0.850 -0.3940 -0.5415  0.7543
15127TIP3   OH266795   6.507   2.885   4.007  0.2554  0.6966  0.6436
15127TIP3    H166796   6.484   2.876   3.915  0.7386  0.1696  0.5720
15127TIP3    H266797   6.554   2.969   4.012 -0.7224  1.2635  0.6105
15128TIP3   OH266798   1.802   5.844  13.227 -0.2295 -0.6078  0.1400
15128TIP3    H166799   1.874   5.905  13.217 -0.1799 -0.3304  1.8322
15128TIP3    H266800   1.755   5.875  13.305 -1.9674 -0.9874 -0.6971
15129TIP3   OH266801   0.928   0.423   4.483  0.1252  0.0103 -0.3635
15129TIP3    H166802   0.926   0.327   4.480 -2.5438  0.0028 -0.9108
15129TIP3    H266803   0.938   0.449   4.392 -1.7249  0.1913 -0.5499
15130TIP3   OH266804   5.877   5.421  13.863 -0.1417 -0.2914  0.0300
15130TIP3    H166805   5.809   5.487  13.878 -0.5370 -0.2257 -1.8334
15130TIP3    H266806   5.943   5.466  13.811  0.6335 -0.7695  0.5809
15131TIP3   OH266807   4.886   5.470  15.133 -0.0161 -0.2238  0.2966
15131TIP3    H166808   4.892   5.565  15.138  0.1622 -0.1235 -1.4781
15131TIP3    H266809   4.850   5.444  15.218 -3.3477  1.7124 -0.3358
15132TIP3   OH266810   3.038   2.553  12.076  0.3500 -0.1379  0.5685
15132TIP3    H166811   3.070   2.600  12.153 -1.1317  3.7449 -0.9388
15132TIP3    H266812   2.942   2.558  12.083  0.1754 -0.8655 -0.9022
15133TIP3   OH266813   2.110   5.008   3.822 -0.1531  0.7592 -0.5412
15133TIP3    H166814   2.083   4.986   3.733 -0.4953 -1.3936  0.0312
15133TIP3    H266815   2.030   5.033   3.867 -0.2992 -0.0089 -0.3593
15134TIP3   OH266816   0.316   1.027  16.311  0.0168  0.0554  0.4839
15134TIP3    H166817   0.372   0.970  16.364  0.4915  0.9917  1.0069
15134TIP3    H266818   0.309   1.108  16.362 -1.0234  0.3088 -0.0307
15135TIP3   OH266819   1.759   4.198  15.451  0.0191  0.3635  1.5052
15135TIP3    H166820   1.666   4.216  15.469 -0.5821  1.2070 -1.7469
15135TIP3    H266821   1.798   4.285  15.439  0.1101  0.0315 -1.4403
15136TIP3   OH266822   6.356   1.329   5.698  0.1192 -0.4739 -0.2653
15136TIP3    H166823   6.335   1.237   5.710  1.5760 -0.8626 -0.5259
15136TIP3    H266824   6.426   1.347   5.762  1.3246 -0.1192 -1.6343
15137TIP3   OH266825   3.527   2.878  14.228 -0.0840  0.2321 -0.5130
15137TIP3    H166826   3.518   2.941  14.157  1.1046  2.0410  0.8663
15137TIP3    H266827   3.440   2.873  14.267 -0.4529  0.1347 -1.3373
15138TIP3   OH266828   2.367   5.053   3.908 -0.4462  0.0035 -0.6106
15138TIP3    H166829   2.395   5.117   3.842  0.3933 -2.4336 -2.8155
15138TIP3    H266830   2.275   5.037   3.887 -0.7793  0.7500  0.2195
15139TIP3   OH266831   6.510   4.534   2.077  0.0504 -0.0205  0.7300
15139TIP3    H166832   6.520   4.527   1.983  1.7335 -1.6786  0.9690
15139TIP3    H266833   6.441   4.600   2.090 -0.8465 -0.4158 -1.6386
15140TIP3   OH266834   3.977   2.526  17.032  0.1237 -1.2066 -0.1111
15140TIP3    H166835   3.892   2.556  16.999 -0.0571 -0.2036  1.2027
15140TIP3    H266836   4.036   2.537  16.958  0.0513  2.4421  0.2123
15141TIP3   OH266837   4.040   5.357  13.969 -0.4577  0.1878 -0.4493
15141TIP3    H166838   4.060   5.391  13.882 -0.8216  0.7076 -0.3294
15141TIP3    H266839   4.109   5.392  14.025  0.6066 -1.2873 -0.7695
15142TIP3   OH266840   2.569   5.010  15.382  0.4399 -0.3175 -0.0296
15142TIP3    H166841   2.622   4.996  15.303 -1.4059  1.5825 -1.7095
15142TIP3    H266842   2.554   5.104  15.384  2.4115  0.1070  4.0173
15143TIP3   OH266843   6.071   3.515   2.057 -0.8483  0.0428  0.0123
15143TIP3    H166844   5.992   3.492   2.008 -0.4623 -1.1972 -0.0421
15143TIP3    H266845   6.058   3.475   2.143 -0.5478  0.3726  0.2143
15144TIP3   OH266846   2.855   4.606  14.016  0.3259 -0.5048  0.0488
15144TIP3    H166847   2.915   4.676  13.992  0.7792 -0.2781  1.7274
15144TIP3    H266848   2.790   4.604  13.945 -0.4934  2.5020  0.5873
15145TIP3   OH266849   5.994   0.689  10.722 -0.1715  0.4217  0.2341
15145TIP3    H166850   6.030   0.777  10.733 -0.9409  0.7034  0.5301
15145TIP3    H266851   5.906   0.694  10.759 -0.5199 -0.2591 -0.4781
15146TIP3   OH266852   0.244   2.634   5.818  0.1154  0.0144 -0.4274
15146TIP3    H166853   0.287   2.713   5.852  0.4801 -0.0050 -0.8375
15146TIP3    H266854   0.168   2.622   5.875 -0.5988  1.3324 -1.0687
15147TIP3   OH266855   6.474   1.815  16.887 -0.0489  0.6468 -0.0870
15147TIP3    H166856   6.438   1.903  16.893  0.2425  0.6810  1.6950
15147TIP3    H266857   6.556   1.819  16.936 -0.4917 -0.8345  0.8404
15148TIP3   OH266858   3.480   4.039   1.288 -0.1608  0.0494 -0.8476
15148TIP3    H166859   3.467   3.961   1.234  0.8352 -2.2895  1.9733
15148TIP3    H266860   3.575   4.052   1.288 -0.3103  1.2314 -1.1978
15149TIP3   OH266861   2.152   3.434  16.754 -0.1030  0.2689  0.3371
15149TIP3    H166862   2.148   3.529  16.764 -0.7372  0.3909 -0.8620
15149TIP3    H266863   2.160   3.420  16.660 -0.7597 -0.8777  0.4236
15150TIP3   OH266864   4.789   5.462   5.821  0.3446  0.0965  0.3210
15150TIP3    H166865   4.821   5.552   5.820 -0.4082  0.3728 -0.5262
15150TIP3    H266866   4.694   5.471   5.817  0.2563 -0.7291  0.5570
15151TIP3   OH266867   2.318   0.201  12.130 -0.7783 -0.5294  0.6860
15151TIP3    H166868   2.277   0.119  12.155 -2.0826  0.0159  0.4028
15151TIP3    H266869   2.411   0.181  12.124 -1.1854 -2.2052 -0.3260
15152TIP3   OH266870   2.444   1.129  15.435  0.5253 -0.4842  0.1428
15152TIP3    H166871   2.487   1.196  15.489 -0.5822  0.5000 -0.1590
15152TIP3    H266872   2.362   1.111  15.480 -0.3923  0.3073 -1.1504
15153TIP3   OH266873   6.686   5.737   5.374  0.0258 -0.0134  0.1158
15153TIP3    H166874   6.642   5.669   5.322  1.4785 -2.3517  1.7288
15153TIP3    H266875   6.645   5.730   5.461 -0.9516  2.4078 -0.0843
15154TIP3   OH266876   5.062   3.032   1.538  0.4153 -0.4017  0.2585
15154TIP3    H166877   5.139   2.977   1.522  1.2448  0.2757  1.6778
15154TIP3    H266878   5.038   3.014   1.629 -1.7233 -1.3054 -0.4337
15155TIP3   OH266879   3.081   0.255  16.617 -0.0506 -0.4131  0.4872
15155TIP3    H166880   3.090   0.271  16.711  1.4153  0.6293  0.2016
15155TIP3    H266881   3.000   0.206  16.609 -1.1691  1.0653  2.1168
15156TIP3   OH266882   1.434   6.506   3.604 -0.6658 -0.2868  0.2539
15156TIP3    H166883   1.366   6.510   3.536 -0.7368 -1.9620  0.1859
15156TIP3    H266884   1.508   6.554   3.567 -0.9660 -0.5441 -0.7144
15157TIP3   OH266885   5.118   6.569   6.675 -0.2507  0.1623  0.0476
15157TIP3    H166886   5.098   6.476   6.689 -0.3100 -0.2581 -2.3487
15157TIP3    H266887   5.183   6.590   6.741 -1.4909 -1.0910  1.7574
15158TIP3   OH266888   0.325   1.979   0.912 -0.3079  0.1632 -0.4877
15158TIP3    H166889   0.234   1.977   0.883 -0.6383  2.3378  0.1547
15158TIP3    H266890   0.365   2.050   0.861 -0.3921  2.7002  2.6167
15159TIP3   OH266891   2.077   1.265   2.674  0.1395  0.0426 -0.0515
15159TIP3    H166892   1.985   1.250   2.654  0.2025  1.7126 -1.9666
15159TIP3    H266893   2.112   1.179   2.694 -1.5735 -0.7949 -0.4916
15160TIP3   OH266894   5.074   5.953   3.158  0.2715  0.0457  0.4873
15160TIP3    H166895   4.983   5.926   3.170  0.7151 -0.8993  2.0291
15160TIP3    H266896   5.071   6.049   3.155 -0.7063  0.0655  1.4557
15161TIP3   OH266897   0.561   6.183  16.979 -0.4038 -0.4472  0.2810
15161TIP3    H166898   0.547   6.170  16.885 -1.0546  0.7313  0.2007
15161TIP3    H266899   0.637   6.240  16.984 -0.4270 -0.4342  0.4697
15162TIP3   OH266900   4.483   0.135   5.312  1.0851  0.6403  0.0283
15162TIP3    H166901   4.388   0.125   5.301  1.0071  1.1690  0.2147
15162TIP3    H266902   4.515   0.045   5.320  0.6432  0.4396 -0.3801
15163TIP3   OH266903   1.599   1.445   4.501 -0.0325  0.0252 -0.0879
15163TIP3    H166904   1.618   1.454   4.594 -0.5134  0.9027 -0.0637
15163TIP3    H266905   1.682   1.420   4.461  0.5735  1.2641  0.3521
15164TIP3   OH266906   1.278   2.819   6.282  0.3093  0.5575  0.0354
15164TIP3    H166907   1.210   2.881   6.256  0.9527  0.9462 -0.7767
15164TIP3    H266908   1.350   2.837   6.222  0.9895 -0.0991  0.6458
15165TIP3   OH266909   6.448   6.691  11.359  0.3894  0.2753  0.2923
15165TIP3    H166910   6.522   6.747  11.378  0.7797  0.0750 -0.5722
15165TIP3    H266911   6.459   6.615  11.416 -0.3622  1.2327  1.7592
15166TIP3   OH266912   3.875   0.861   4.852  0.3743  0.1729 -0.0348
15166TIP3    H166913   3.871   0.811   4.771  4.1810  0.6225 -0.6972
15166TIP3    H266914   3.924   0.805   4.913 -0.4381  0.7648  1.2073
15167TIP3   OH266915   2.993   2.745  11.263 -0.0199 -0.2064 -0.1930
15167TIP3    H166916   2.897   2.741  11.262  0.0102 -2.1920 -0.8631
15167TIP3    H266917   3.014   2.837  11.274 -2.0087  0.2461  0.1271
15168TIP3   OH266918   3.525   5.473   0.037  0.9997  0.0482  0.4288
15168TIP3    H166919   3.455   5.416   0.070  0.9859  0.6113  1.3896
15168TIP3    H266920   3.489   5.561   0.044  1.6885  0.3150  0.6053
15169TIP3   OH266921   2.061   1.407   3.832 -0.3524  0.5614  0.6893
15169TIP3    H166922   2.136   1.423   3.890 -1.3498  1.2187  1.8372
15169TIP3    H266923   2.101   1.392   3.746  1.1122  0.5856  1.3288
15170TIP3   OH266924   2.068   4.000   2.331 -0.1643  0.0522 -0.2956
15170TIP3    H166925   2.148   3.955   2.304  0.6512  0.3725  1.4512
15170TIP3    H266926   2.038   3.951   2.408 -0.0175  1.6505  0.8258
15171TIP3   OH266927   5.297   0.887   3.047  0.3394 -0.1702  0.5433
15171TIP3    H166928   5.282   0.932   3.131  0.5752  0.2141  0.3852
15171TIP3    H266929   5.290   0.956   2.982 -1.8959 -0.8136  0.0335
15172TIP3   OH266930   3.692   5.166   4.108 -0.9078  0.3751  0.1340
15172TIP3    H166931   3.616   5.122   4.071 -1.9120 -0.0435  2.4921
15172TIP3    H266932   3.759   5.098   4.115 -0.6338  0.5036 -0.9775
15173TIP3   OH266933   6.505   6.579   3.555 -0.1502 -0.4167 -0.2198
15173TIP3    H166934   6.486   6.653   3.613  1.3125  1.2136 -1.6935
15173TIP3    H266935   6.502   6.616   3.467  1.9168 -1.7837 -0.9412
15174TIP3   OH266936   1.644   0.607  14.058 -0.3933  0.2251 -0.1664
15174TIP3    H166937   1.642   0.518  14.092  1.2016  0.6934  1.2830
15174TIP3    H266938   1.572   0.652  14.103 -0.0352  0.1375  0.4951
15175TIP3   OH266939   5.151   3.729  14.372  0.3088 -0.0888  0.1945
15175TIP3    H166940   5.224   3.790  14.359  0.2432  0.0037  0.2577
15175TIP3    H266941   5.184   3.667  14.437 -0.0508  0.6008  1.0565
15176TIP3   OH266942   3.588   2.747  16.506 -0.7171 -0.8574  0.6030
15176TIP3    H166943   3.514   2.738  16.566 -0.0346  0.2864  1.6668
15176TIP3    H266944   3.549   2.780  16.425 -1.3718 -0.1630  1.1844
15177TIP3   OH266945   5.454   2.031   5.447  0.3258 -0.3183  0.2160
15177TIP3    H166946   5.467   2.056   5.356  0.1726  1.3667  0.6256
15177TIP3    H266947   5.509   2.091   5.497  1.7032 -2.2678  1.1889
15178TIP3   OH266948   3.369   2.473   2.995  0.3625  0.0943  0.6847
15178TIP3    H166949   3.425   2.402   2.965  0.3597  0.2298  0.3562
15178TIP3    H266950   3.395   2.488   3.086 -0.5895 -1.2810  1.2175
15179TIP3   OH266951   6.638   0.572   3.327  0.3291  0.4923 -0.5172
15179TIP3    H166952   6.642   0.621   3.409 -0.4318 -1.9303  1.0531
15179TIP3    H266953   6.550   0.534   3.326  1.6362 -2.8891 -0.3271
15180TIP3   OH266954   3.700   4.758   3.214  1.1623 -0.1852 -0.1240
15180TIP3    H166955   3.706   4.662   3.212 -1.0217 -0.4206  1.3230
15180TIP3    H266956   3.610   4.777   3.188  1.9646  1.5986 -1.7990
15181TIP3   OH266957   6.742   3.591  15.754  0.1274 -0.2471  0.0980
15181TIP3    H166958   6.769   3.681  15.771 -0.3749 -0.1093  0.1784
15181TIP3    H266959   6.819   3.550  15.713  0.7117 -0.0689  0.9862
15182TIP3   OH266960   3.315   3.333  12.554 -0.1868  0.5444 -0.0550
15182TIP3    H166961   3.276   3.418  12.571 -0.3581  0.0148  2.6717
15182TIP3    H266962   3.349   3.304  12.639  1.9854 -1.0916 -1.3494
15183TIP3   OH266963   2.762   5.888  14.647 -0.2667 -0.1075 -0.9697
15183TIP3    H166964   2.797   5.886  14.558  1.9784  1.3981 -0.2006
15183TIP3    H266965   2.756   5.981  14.668 -1.2934 -0.4368  0.2876
15184TIP3   OH266966   0.103   2.394  12.718 -0.0492  0.6893 -0.6741
15184TIP3    H166967   0.097   2.314  12.770  2.2784  0.0919 -1.2335
15184TIP3    H266968   0.106   2.364  12.627 -1.1998  1.5593 -1.0253
15185TIP3   OH266969   5.836   2.694  16.244  0.6194  0.2456  0.4132
15185TIP3    H166970   5.820   2.621  16.303 -1.4097 -0.6334 -1.1277
15185TIP3    H266971   5.927   2.683  16.217 -0.1112 -2.8995 -1.2276
15186TIP3   OH266972   4.458   5.571   0.978  0.4033  0.1217 -0.7148
15186TIP3    H166973   4.446   5.567   0.883 -0.1091  0.3505 -0.6626
15186TIP3    H266974   4.397   5.639   1.007  0.0765 -0.4129 -0.1416
15187TIP3   OH266975   2.884   0.235   3.941  0.2146  0.3639  0.0103
15187TIP3    H166976   2.822   0.232   4.014 -1.6773  0.9218 -1.4889
15187TIP3    H266977   2.961   0.279   3.977  0.1266 -1.0980  2.1737
15188TIP3   OH266978   2.990   6.460   5.997 -0.1332  0.0530  0.2817
15188TIP3    H166979   3.014   6.486   5.909 -2.1680 -1.3648 -0.7918
15188TIP3    H266980   2.968   6.542   6.041 -0.4800  0.6752 -0.9950
15189TIP3   OH266981   6.566   4.552  14.195  0.1346 -0.1118 -0.1457
15189TIP3    H166982   6.607   4.623  14.144  0.1254 -0.1499 -0.2056
15189TIP3    H266983   6.473   4.561  14.176  0.3223 -1.6105 -2.0520
15190TIP3   OH266984   4.728   4.309  17.159 -0.3401 -0.8367  0.1645
15190TIP3    H166985   4.733   4.241  17.092 -1.8297  1.1781 -2.2005
15190TIP3    H266986   4.636   4.311  17.184 -0.2525  0.0341  0.4460
15191TIP3   OH266987   5.405   5.024  11.147  0.4208  0.2852  0.2056
15191TIP3    H166988   5.389   4.930  11.150 -0.1816  0.3810  0.0396
15191TIP3    H266989   5.465   5.037  11.074  1.6640 -0.1290  1.1108
15192TIP3   OH266990   3.297   2.368  14.391 -0.2242  0.2430 -0.1193
15192TIP3    H166991   3.276   2.276  14.407  1.6172 -0.8405 -2.9981
15192TIP3    H266992   3.369   2.387  14.451  0.6981 -0.8943 -0.8007
15193TIP3   OH266993   0.836   1.486   0.644  0.1421  0.1893  0.2463
15193TIP3    H166994   0.847   1.517   0.734  1.2790 -1.3161  0.6805
15193TIP3    H266995   0.807   1.563   0.595 -0.6888  0.9994  1.9221
15194TIP3   OH266996   5.323   1.816  11.649 -0.0736 -0.5818  0.2366
15194TIP3    H166997   5.248   1.817  11.589 -0.5119 -0.3055  0.7808
15194TIP3    H266998   5.314   1.735  11.698  0.5007 -0.9976 -0.3262
15195TIP3   OH266999   3.766   6.768  11.133 -0.3216  0.4198  0.2381
15195TIP3    H167000   3.675   6.790  11.150  0.5666  4.1382  1.1246
15195TIP3    H267001   3.800   6.843  11.083  1.6314 -2.1470 -2.6794
15196TIP3   OH267002   3.429   3.086  15.808  0.3799  0.5024  0.0130
15196TIP3    H167003   3.500   3.064  15.749 -0.4164 -1.7860 -0.1746
15196TIP3    H267004   3.459   3.057  15.894 -0.0778  0.0798  0.0335
15197TIP3   OH267005   1.553   2.181  13.620  0.1109  0.5416 -0.2350
15197TIP3    H167006   1.617   2.124  13.663 -0.1106  0.3581 -0.1475
15197TIP3    H267007   1.591   2.199  13.534  0.2505  0.3852 -0.2060
15198TIP3   OH267008   5.376   1.192   2.449  0.6380 -0.6080 -0.2988
15198TIP3    H167009   5.389   1.098   2.441 -2.8996 -1.5039  2.4722
15198TIP3    H267010   5.418   1.215   2.532 -0.1601 -0.1114 -0.0301
15199TIP3   OH267011   2.671   2.766   0.699  0.1140 -0.3374 -0.2518
15199TIP3    H167012   2.712   2.800   0.619  1.4654  0.5946  0.7956
15199TIP3    H267013   2.577   2.782   0.687  0.6373  4.1711  0.2608
15200TIP3   OH267014   2.667   0.348  12.839  0.0125 -0.2319 -0.4164
15200TIP3    H167015   2.585   0.323  12.797  1.7235 -3.2993 -2.3120
15200TIP3    H267016   2.678   0.441  12.819 -1.3848 -0.5481 -3.0543
15201TIP3   OH267017   5.684   4.056   3.153  0.5144  0.2447 -0.6599
15201TIP3    H167018   5.762   4.002   3.144  0.8179  0.5406  0.1481
15201TIP3    H267019   5.668   4.060   3.248 -0.3277  0.3981 -0.7995
15202TIP3   OH267020   2.926   3.312  15.261  0.3668 -0.1763  0.2041
15202TIP3    H167021   2.940   3.386  15.321  0.1770 -0.2786  0.3746
15202TIP3    H267022   2.846   3.270  15.293  0.9414 -0.9729  0.6335
15203TIP3   OH267023   4.459   5.943   2.655 -0.3776 -0.0858 -0.3456
15203TIP3    H167024   4.496   6.007   2.716  1.8061  0.6164 -2.2862
15203TIP3    H267025   4.535   5.901   2.615 -1.7608 -2.6656 -0.4712
15204TIP3   OH267026   3.688   5.529   6.093  0.9796 -0.2193  0.1696
15204TIP3    H167027   3.741   5.464   6.139  0.5784 -2.2689 -2.0934
15204TIP3    H267028   3.653   5.584   6.163  1.3730 -2.4004  2.2110
15205TIP3   OH267029   0.707   6.413  14.126  0.1781  0.2940 -0.0070
15205TIP3    H167030   0.665   6.337  14.085 -0.0508  0.5255 -0.2036
15205TIP3    H267031   0.742   6.379  14.208 -2.6431  0.6124  1.4759
15206TIP3   OH267032   0.809   4.477  14.482  0.0575 -0.1260 -0.5530
15206TIP3    H167033   0.851   4.434  14.556  0.9702  2.7874  0.7606
15206TIP3    H267034   0.864   4.455  14.407 -0.2890 -2.2685 -0.2476
15207TIP3   OH267035   5.814   2.981  15.167  0.1596 -0.0710  0.3276
15207TIP3    H167036   5.801   2.993  15.262  0.3428 -1.2857  0.5241
15207TIP3    H267037   5.898   2.936  15.160  0.2738  0.2572 -0.4408
15208TIP3   OH267038   1.534   5.487  17.139 -0.0684 -0.1166  0.4854
15208TIP3    H167039   1.461   5.443  17.182 -0.4390  0.1097  0.1020
15208TIP3    H267040   1.513   5.580  17.144  0.5911  0.0088  1.0780
15209TIP3   OH267041   1.646   4.023  12.373 -0.2218 -0.0811 -0.2645
15209TIP3    H167042   1.733   3.986  12.387 -0.3567 -0.3933 -0.2505
15209TIP3    H267043   1.641   4.038  12.278 -1.0521 -2.3383 -0.6326
15210TIP3   OH267044   0.088   3.282  16.845  0.1919  0.2154 -0.3431
15210TIP3    H167045   0.077   3.338  16.922 -1.5892  0.7876 -0.9701
15210TIP3    H267046   0.120   3.341  16.777  0.5646 -0.0231 -0.3727
15211TIP3   OH267047   1.895   6.071  16.641 -0.1792  0.0784 -0.2142
15211TIP3    H167048   1.841   6.096  16.716  1.7316  2.6311  0.4588
15211TIP3    H267049   1.984   6.062  16.677  0.2601 -1.9621 -1.6285
15212TIP3   OH267050   3.127   2.716  11.497  0.0902  0.5910  0.1428
15212TIP3    H167051   3.075   2.698  11.419 -0.5693  0.9168  0.4982
15212TIP3    H267052   3.195   2.777  11.467  1.0540 -0.7931 -0.6025
15213TIP3   OH267053   2.089   0.840   5.725 -0.3834  0.6787  0.0208
15213TIP3    H167054   2.084   0.786   5.804  1.9266  0.3156 -0.0147
15213TIP3    H267055   2.059   0.782   5.655  2.5900 -0.8988 -0.1026
15214TIP3   OH267056   5.492   0.512  14.203 -0.2879  0.0781 -0.0653
15214TIP3    H167057   5.437   0.522  14.281 -0.9862  0.8839 -0.6407
15214TIP3    H267058   5.501   0.601  14.168  2.1354  0.1343  0.4937
15215TIP3   OH267059   6.325   0.186  16.933  0.1412  0.2169  0.6373
15215TIP3    H167060   6.393   0.181  17.001 -0.7867  2.5427  1.8533
15215TIP3    H267061   6.354   0.256  16.875 -0.4397  0.1380  0.2489
15216TIP3   OH267062   3.513   3.760  16.870 -0.2001 -0.3452  0.6879
15216TIP3    H167063   3.473   3.695  16.928 -0.9504  0.4662  1.1147
15216TIP3    H267064   3.448   3.830  16.865  1.5521  1.5094  2.2085
15217TIP3   OH267065   1.043   3.776  15.619 -0.3733 -0.7341  0.2226
15217TIP3    H167066   1.074   3.812  15.702  0.2674  0.2042 -0.3996
15217TIP3    H267067   1.058   3.682  15.627 -0.0538 -0.6217  1.0622
15218TIP3   OH267068   0.544   3.397   4.751 -0.0718 -0.4790 -0.6127
15218TIP3    H167069   0.488   3.399   4.674  0.8076 -1.1523 -1.2935
15218TIP3    H267070   0.498   3.450   4.816 -1.6215 -1.2464 -1.0434
15219TIP3   OH267071   4.137   1.779  15.323 -0.1865 -0.1294 -0.4348
15219TIP3    H167072   4.214   1.757  15.375 -2.5893 -0.5645  3.3627
15219TIP3    H267073   4.138   1.716  15.251  2.5861 -0.5367 -0.1601
15220TIP3   OH267074   3.053   5.861  10.657 -0.1076 -0.3360 -0.2356
15220TIP3    H167075   3.016   5.788  10.706 -0.4177 -0.9302 -1.3254
15220TIP3    H267076   3.093   5.821  10.580  0.7673  0.5329 -0.2476
15221TIP3   OH267077   6.417   3.675   3.595 -0.4949 -0.3313  0.2706
15221TIP3    H167078   6.465   3.595   3.619 -1.4813 -0.2575  2.7850
15221TIP3    H267079   6.360   3.648   3.523  0.7770 -1.2995 -0.4161
15222TIP3   OH267080   1.683   4.388   0.719 -0.8027 -0.0725 -0.2215
15222TIP3    H167081   1.772   4.421   0.718 -0.2727 -1.4155  0.5157
15222TIP3    H267082   1.644   4.424   0.799 -0.4097 -0.7088  0.2717
15223TIP3   OH267083   1.016   5.915   4.654  0.3643  0.5847 -0.0268
15223TIP3    H167084   1.112   5.911   4.656  0.4767  0.1179 -2.4884
15223TIP3    H267085   0.997   5.986   4.593 -0.7525 -0.9860 -1.6270
15224TIP3   OH267086   0.875   4.549  16.726 -0.3612  0.0731  0.4160
15224TIP3    H167087   0.901   4.511  16.642  0.0306 -0.0145  0.5753
15224TIP3    H267088   0.854   4.640  16.706 -1.8715 -0.3465 -0.0867
15225TIP3   OH267089   4.286   4.816   6.666 -0.3066  0.0309 -0.2101
15225TIP3    H167090   4.250   4.762   6.736  0.6773  2.2972  2.1824
15225TIP3    H267091   4.380   4.797   6.666  0.0173  1.5192  0.5183
15226TIP3   OH267092   5.355   4.527  12.647 -0.7487 -0.0932  0.2212
15226TIP3    H167093   5.268   4.560  12.670  0.0645  2.8853 -0.5023
15226TIP3    H267094   5.413   4.566  12.712  0.6229  2.4056 -2.2772
15227TIP3   OH267095   4.791   1.091  14.944 -0.3076 -0.5715 -0.2451
15227TIP3    H167096   4.778   1.175  14.987 -1.7488  0.1181 -1.9024
15227TIP3    H267097   4.869   1.103  14.890 -0.8074 -0.0859 -0.8816
15228TIP3   OH267098   3.671   0.358  11.921  0.1721 -0.9674 -0.3971
15228TIP3    H167099   3.595   0.351  11.862 -0.2337 -0.4458  0.0481
15228TIP3    H267100   3.673   0.275  11.967 -0.8340 -0.5738  0.4059
15229TIP3   OH267101   5.600   0.273  12.166 -0.3527  0.5686  0.7039
15229TIP3    H167102   5.562   0.227  12.240  1.4233  0.0640  1.3492
15229TIP3    H267103   5.694   0.272  12.182  0.1107  0.3018 -1.6416
15230TIP3   OH267104   4.595   3.927  11.924 -0.2234  0.3548 -0.4382
15230TIP3    H167105   4.658   3.905  11.855  0.6804 -0.6058  0.6552
15230TIP3    H267106   4.524   3.864  11.912 -0.6380  0.9504 -1.2043
15231TIP3   OH267107   3.130   0.216   3.171  0.6125  0.1690  0.0299
15231TIP3    H167108   3.219   0.184   3.164  0.4340 -0.2245 -0.5062
15231TIP3    H267109   3.119   0.237   3.263  1.3055  0.3662  0.0739
15232TIP3   OH267110   4.698   3.426   5.533 -0.1619  0.3357 -0.4970
15232TIP3    H167111   4.718   3.463   5.620  0.1425 -1.0608  0.0534
15232TIP3    H267112   4.641   3.491   5.492  0.0719  1.2440  0.5663
15233TIP3   OH267113   3.023   2.100   4.361 -0.2261  0.5249  0.0530
15233TIP3    H167114   3.009   2.146   4.278  2.5135  2.6841  0.6472
15233TIP3    H267115   2.934   2.089   4.396 -1.8433 -2.9308 -4.1952
15234TIP3   OH267116   0.917   1.544   6.009 -0.0382 -0.4649  0.3311
15234TIP3    H167117   0.843   1.488   6.030  0.4562 -1.7053 -1.0934
15234TIP3    H267118   0.880   1.614   5.954 -0.2893 -0.6164  0.3090
15235TIP3   OH267119   1.339   2.599   6.432 -0.3743 -0.2810 -0.5529
15235TIP3    H167120   1.258   2.550   6.424 -0.6287 -0.1130  0.7381
15235TIP3    H267121   1.323   2.681   6.385 -1.0855 -0.0946  0.0011
15236TIP3   OH267122   3.825   2.939  12.197  0.3679  0.0609  0.4049
15236TIP3    H167123   3.820   2.871  12.264  2.4360 -0.5568  0.0188
15236TIP3    H267124   3.759   2.914  12.133  0.1368 -0.8056  0.9541
15237TIP3   OH267125   1.897   2.842   1.581  0.1528  0.2902 -0.7946
15237TIP3    H167126   1.854   2.758   1.596  0.6050  0.1003 -0.5395
15237TIP3    H267127   1.832   2.907   1.606 -0.1384  0.0114 -0.8255
15238TIP3   OH267128   0.564   6.239   5.565 -0.4667  0.0006 -0.4999
15238TIP3    H167129   0.621   6.199   5.631 -1.0913 -0.2454 -0.1002
15238TIP3    H267130   0.624   6.279   5.502  0.1670 -1.0004 -0.5510
15239TIP3   OH267131   5.987   1.108  15.445 -0.3837  0.5332  0.3509
15239TIP3    H167132   6.013   1.031  15.495 -0.7386  1.2678  1.7168
15239TIP3    H267133   6.070   1.145  15.413 -0.0645  0.6533  1.3058
15240TIP3   OH267134   3.313   3.900  11.873 -0.2888 -0.4305  0.4126
15240TIP3    H167135   3.390   3.851  11.844 -0.1862  0.7915 -1.6532
15240TIP3    H267136   3.345   3.990  11.884 -1.1853 -0.1281  0.6302
15241TIP3   OH267137   6.557   3.130   3.438  0.3363  0.1766  0.1618
15241TIP3    H167138   6.651   3.151   3.438  0.0573  1.4863 -0.1533
15241TIP3    H267139   6.554   3.038   3.411  1.4869  0.4079 -0.8687
15242TIP3   OH267140   6.080   6.506   3.532 -0.2074  0.1104 -1.5432
15242TIP3    H167141   6.063   6.507   3.627  0.5352 -1.8820 -1.3512
15242TIP3    H267142   6.154   6.565   3.521 -0.0463  0.0492 -0.8245
15243TIP3   OH267143   4.399   3.523  16.846  0.1875 -0.1352 -0.3898
15243TIP3    H167144   4.456   3.587  16.889  0.7206 -1.9852  1.8326
15243TIP3    H267145   4.314   3.567  16.840  0.6629  0.9780  0.5978
15244TIP3   OH267146   3.496   6.412   0.283 -0.0447 -0.0380  0.3727
15244TIP3    H167147   3.448   6.392   0.364  0.9656  0.9778  1.2671
15244TIP3    H267148   3.452   6.361   0.216 -1.3646 -0.3754  1.4384
15245TIP3   OH267149   6.642   0.386   3.579 -0.3678  0.1475  0.2883
15245TIP3    H167150   6.554   0.348   3.585 -1.6837  3.0336  2.4376
15245TIP3    H267151   6.661   0.415   3.669  2.1502  0.9497 -0.4237
15246TIP3   OH267152   4.272   5.157   0.378 -0.1883  0.7400 -0.1778
15246TIP3    H167153   4.362   5.178   0.352  1.0097 -2.3453  1.0348
15246TIP3    H267154   4.270   5.171   0.473 -0.4592 -0.7555  0.0552
15247TIP3   OH267155   1.036   5.756  16.568  0.2596 -0.2014 -0.6555
15247TIP3    H167156   0.985   5.837  16.567  1.6235  0.7122  0.2319
15247TIP3    H267157   1.117   5.779  16.522  1.3414 -0.5653  1.0148
15248TIP3   OH267158   3.405   2.459  11.275  0.7546  0.9486 -0.0387
15248TIP3    H167159   3.329   2.509  11.245  0.3686  0.5130  0.1934
15248TIP3    H267160   3.419   2.488  11.365  0.1337  0.1838  0.3109
15249TIP3   OH267161   1.077   1.528  16.773  0.4711  0.1208  0.1255
15249TIP3    H167162   1.077   1.608  16.720  1.3306 -1.3754 -2.3544
15249TIP3    H267163   0.991   1.490  16.758  0.5943 -0.1429  0.0853
15250TIP3   OH267164   1.478   1.595   4.779 -0.6101 -0.0375  0.3266
15250TIP3    H167165   1.425   1.619   4.703 -0.8024  0.1301  0.5123
15250TIP3    H267166   1.435   1.637   4.853  0.5356  1.2244  0.3093
15251TIP3   OH267167   3.798   4.382  14.615 -0.1461  0.1073  0.3412
15251TIP3    H167168   3.741   4.438  14.668  0.2500  0.5774  0.2765
15251TIP3    H267169   3.790   4.295  14.655  1.4113  0.7522  2.2486
15252TIP3   OH267170   1.164   5.388  16.311  0.0813 -0.2960  0.1980
15252TIP3    H167171   1.246   5.414  16.353 -0.1555 -1.3273  1.3428
15252TIP3    H267172   1.137   5.308  16.357 -0.3893 -1.2821 -1.6757
15253TIP3   OH267173   4.114   2.716  10.647 -0.4766 -0.5560  0.3376
15253TIP3    H167174   4.115   2.636  10.594 -0.7867 -0.5610  0.3395
15253TIP3    H267175   4.155   2.782  10.591  0.3413 -0.8540  0.5585
15254TIP3   OH267176   5.485   3.302  16.431  0.4231 -0.1994  0.2168
15254TIP3    H167177   5.498   3.321  16.338  0.2417 -0.8198  0.0595
15254TIP3    H267178   5.532   3.371  16.477  0.8565 -0.1218 -0.3405
15255TIP3   OH267179   2.121   6.204  11.550 -0.0741  0.3429 -0.4437
15255TIP3    H167180   2.101   6.248  11.467 -0.0605 -0.8111 -1.0941
15255TIP3    H267181   2.173   6.127  11.523  0.8543  0.5283  0.7372
15256TIP3   OH267182   2.025   6.252  15.571 -0.2184  0.1563  0.0575
15256TIP3    H167183   2.042   6.293  15.656  0.1531 -0.5009  0.3095
15256TIP3    H267184   2.096   6.283  15.515  0.2549 -0.3944  0.3413
15257TIP3   OH267185   5.026   6.607   6.095  0.0936 -0.0162 -0.0301
15257TIP3    H167186   5.061   6.693   6.074 -2.2335  1.0060 -0.1337
15257TIP3    H267187   4.996   6.571   6.011 -1.0184  0.1066  0.2937
15258TIP3   OH267188   2.412   2.222   2.681 -0.0559 -0.1742 -0.0558
15258TIP3    H167189   2.343   2.156   2.680  0.7525 -1.0553 -1.5595
15258TIP3    H267190   2.375   2.296   2.730 -1.5224 -1.1568  0.3691
15259TIP3   OH267191   0.028   1.017  14.882 -0.1783 -0.5535  0.3562
15259TIP3    H167192  -0.053   1.063  14.904  0.3164 -0.0060  1.1162
15259TIP3    H267193   0.091   1.087  14.863  0.0921 -0.9734 -0.3295
15260TIP3   OH267194   4.716   4.891   4.879  0.1849 -0.0085  0.2718
15260TIP3    H167195   4.719   4.981   4.913 -0.9323  0.5317 -0.9901
15260TIP3    H267196   4.796   4.882   4.828  0.9131 -0.1673  1.4151
15261TIP3   OH267197   0.670   5.248   3.995 -0.4313  0.1430  0.4614
15261TIP3    H167198   0.673   5.187   4.069  0.0243 -0.7771 -0.3120
15261TIP3    H267199   0.758   5.284   3.990 -0.3026 -0.2378 -0.0040
15262TIP3   OH267200   6.417   5.403  16.169 -0.2380 -0.1163  0.2130
15262TIP3    H167201   6.369   5.475  16.128 -0.7640 -0.7636 -0.3574
15262TIP3    H267202   6.508   5.432  16.172 -0.3403  0.3190 -0.6031
15263TIP3   OH267203   4.106   6.723   0.431 -0.2112 -0.0213 -0.4691
15263TIP3    H167204   4.083   6.788   0.498 -2.2801  0.3934 -1.5142
15263TIP3    H267205   4.150   6.653   0.480  1.0581  1.6023  0.8505
15264TIP3   OH267206   2.989   5.877  15.422 -0.0992 -0.5435  0.5557
15264TIP3    H167207   3.009   5.855  15.331 -1.3853 -0.1198  0.1391
15264TIP3    H267208   2.908   5.829  15.441  0.8596 -1.7061  1.9392
15265TIP3   OH267209   1.769   0.089  16.623 -0.2036 -0.2223  0.3768
15265TIP3    H167210   1.701   0.119  16.563  0.7906  0.4369 -0.4547
15265TIP3    H267211   1.758  -0.006  16.625 -0.5250 -0.2158 -0.5319
15266TIP3   OH267212   0.980   5.708  13.617  0.3674  0.4785 -0.1623
15266TIP3    H167213   0.956   5.616  13.627  0.6425  0.2690 -1.2893
15266TIP3    H267214   1.049   5.708  13.550 -1.6386  1.7799 -2.3698
15267TIP3   OH267215   1.496   5.804   2.735 -0.0506  0.7140  0.0614
15267TIP3    H167216   1.404   5.786   2.715 -0.3499  0.3775  1.6233
15267TIP3    H267217   1.517   5.745   2.807  1.0442  1.6145  0.5153
15268TIP3   OH267218   6.315   2.811  14.344 -0.1369 -0.1336  0.7094
15268TIP3    H167219   6.342   2.900  14.370 -0.0262  0.3991 -1.1034
15268TIP3    H267220   6.397   2.764  14.330 -0.1330  0.3179 -0.9776
15269TIP3   OH267221   6.456   4.982   4.143 -0.1339  0.4304 -0.0477
15269TIP3    H167222   6.497   4.897   4.157 -0.0623  0.2168 -1.4081
15269TIP3    H267223   6.483   5.008   4.054  0.9433  2.4945  0.8144
15270TIP3   OH267224   4.282   0.179   0.839  0.2923  0.0897  0.6506
15270TIP3    H167225   4.242   0.097   0.869 -0.6922  0.7221  1.1131
15270TIP3    H267226   4.308   0.224   0.919  1.3640 -0.0066  0.3797
15271TIP3   OH267227   5.812   3.030   4.445 -0.2351 -0.1062 -0.2205
15271TIP3    H167228   5.787   3.012   4.354 -2.0498  0.7339  0.0553
15271TIP3    H267229   5.745   2.986   4.497 -0.2871  0.9533  0.6378
15272TIP3   OH267230   2.545   6.104  14.162 -0.2982  0.3092 -0.1320
15272TIP3    H167231   2.496   6.041  14.109 -0.2046  0.4639 -0.4080
15272TIP3    H267232   2.547   6.066  14.249 -1.5578  0.6703  0.0604
15273TIP3   OH267233   1.166   4.091   0.596  0.6690 -0.1143  0.8109
15273TIP3    H167234   1.164   4.120   0.687  0.5300  1.0260  0.4690
15273TIP3    H267235   1.095   4.028   0.589  0.9552 -0.5374  1.5890
15274TIP3   OH267236   3.842   2.820  12.443  0.0014 -0.7100 -0.2386
15274TIP3    H167237   3.867   2.776  12.524 -0.5957  1.2902  1.1076
15274TIP3    H267238   3.773   2.881  12.469 -2.3472 -2.0483 -2.8049
15275TIP3   OH267239   4.272   0.207  15.245 -0.0510 -0.7039 -0.4454
15275TIP3    H167240   4.362   0.175  15.244 -0.2709 -1.3401 -1.6650
15275TIP3    H267241   4.231   0.161  15.318  0.8304  0.2894  0.7201
15276TIP3   OH267242   3.929   1.693  15.475  0.4478 -0.4848  0.1965
15276TIP3    H167243   3.874   1.637  15.420  0.6311 -1.2601  0.7961
15276TIP3    H267244   4.005   1.713  15.420  0.0534 -0.2481 -0.2693
15277TIP3   OH267245   2.320   2.681   4.425  1.0024 -0.4574 -0.3849
15277TIP3    H167246   2.409   2.664   4.394  1.9877  0.6230  1.6078
15277TIP3    H267247   2.309   2.776   4.415  0.0494 -0.5918 -0.6670
15278TIP3   OH267248   1.044   1.552  13.578 -0.0995 -0.0221  0.7002
15278TIP3    H167249   1.126   1.560  13.626  0.5303 -0.4738 -0.2722
15278TIP3    H267250   1.063   1.491  13.507 -1.2834 -0.1445  0.4638
15279TIP3   OH267251   2.902   2.273   3.248  0.0703  0.1714  0.5268
15279TIP3    H167252   2.843   2.324   3.303 -1.3893 -1.0877  0.2111
15279TIP3    H267253   2.976   2.253   3.305 -0.3476  0.8012  1.3190
15280TIP3   OH267254   1.241   1.711   3.844 -0.1248  0.0938 -0.2713
15280TIP3    H167255   1.194   1.696   3.762 -0.1055 -0.9425 -0.0953
15280TIP3    H267256   1.171   1.726   3.908 -0.2121 -1.0866 -0.0819
15281TIP3   OH267257   4.626   5.126  14.576  0.0511 -0.5409  0.0758
15281TIP3    H167258   4.550   5.143  14.520  0.8316  1.6002 -0.4605
15281TIP3    H267259   4.700   5.123  14.515  0.4239 -2.9523  0.5466
15282TIP3   OH267260   6.233   6.737   0.378 -0.4325  0.4761 -0.5004
15282TIP3    H167261   6.274   6.664   0.331  1.9065  1.4234 -0.0914
15282TIP3    H267262   6.179   6.696   0.445  2.3490 -1.0136  1.0291
15283TIP3   OH267263   1.407   4.718   4.187  0.2506  0.0147 -0.1547
15283TIP3    H167264   1.371   4.649   4.243 -0.0758  0.2798 -0.0287
15283TIP3    H267265   1.368   4.702   4.101 -3.8415  2.8085  0.8465
15284TIP3   OH267266   1.526   2.199   4.492 -0.3892  0.0057 -0.7527
15284TIP3    H167267   1.434   2.202   4.464 -1.1408  0.2938  1.5288
15284TIP3    H267268   1.527   2.135   4.562  1.1281  0.1564 -0.6140
15285TIP3   OH267269   1.120   5.265  12.468 -0.0793 -0.2651  0.3787
15285TIP3    H167270   1.141   5.310  12.387 -0.5914  0.3238  0.5611
15285TIP3    H267271   1.037   5.305  12.497 -0.3913 -1.1223  0.6966
15286TIP3   OH267272   5.149   6.764   3.686 -0.3104  0.1373 -0.1231
15286TIP3    H167273   5.222   6.819   3.656  1.2769 -1.3297  0.8902
15286TIP3    H267274   5.179   6.727   3.769 -1.3740 -2.1442 -0.6841
15287TIP3   OH267275   4.213   1.191  13.668 -0.0627 -0.2736  0.3363
15287TIP3    H167276   4.257   1.218  13.748 -1.2397 -0.0750  0.9442
15287TIP3    H267277   4.162   1.268  13.641 -0.2608 -0.5816 -0.1881
15288TIP3   OH267278   4.089   2.180  16.192 -0.0713  0.3778 -0.2384
15288TIP3    H167279   4.084   2.274  16.207 -1.0129  0.0264  1.9616
15288TIP3    H267280   4.173   2.153  16.229  0.7636  0.4748 -1.9488
15289TIP3   OH267281   6.572   1.937   1.731  0.4268 -0.2268  0.1954
15289TIP3    H167282   6.490   1.975   1.762 -0.2560 -0.3386 -1.3596
15289TIP3    H267283   6.639   1.971   1.790 -0.4986  1.3203  0.4035
15290TIP3   OH267284   3.245   0.122   2.633  0.2265  0.0329 -1.0150
15290TIP3    H167285   3.249   0.031   2.661  3.0583 -0.3142 -2.2682
15290TIP3    H267286   3.159   0.153   2.664  0.4293 -2.1284  2.1199
15291TIP3   OH267287   3.491   2.870  13.430  1.0998  0.1877  0.3748
15291TIP3    H167288   3.564   2.920  13.467 -0.3602  1.8854  1.0443
15291TIP3    H267289   3.455   2.822  13.505  0.4349  0.7359  0.4073
15292TIP3   OH267290   1.319   5.416  11.669 -0.2830 -0.3394 -0.3225
15292TIP3    H167291   1.409   5.444  11.657 -0.2205  1.0962  2.6473
15292TIP3    H267292   1.270   5.464  11.603  0.7989  1.1521 -0.0770
15293TIP3   OH267293   6.452   1.161   1.331 -0.1207  0.0649  0.2775
15293TIP3    H167294   6.527   1.186   1.385  1.7110  0.3992 -2.2281
15293TIP3    H267295   6.440   1.068   1.349  0.4849  0.1420  1.1748
15294TIP3   OH267296   5.780   3.009   6.256 -0.1139  0.4827 -0.3513
15294TIP3    H167297   5.751   3.045   6.339 -0.8620  0.7027 -0.6913
15294TIP3    H267298   5.710   3.032   6.194 -0.5275 -1.3292 -0.6307
15295TIP3   OH267299   1.114   4.089  11.527  0.1549 -0.2989 -0.3258
15295TIP3    H167300   1.115   4.094  11.623  0.8369 -0.0309 -0.3437
15295TIP3    H267301   1.202   4.115  11.501  0.1861 -1.0475 -0.9947
15296TIP3   OH267302   3.437   5.810   4.343  0.7102  0.0427 -0.0775
15296TIP3    H167303   3.416   5.887   4.289  2.6830  0.2519 -0.6374
15296TIP3    H267304   3.418   5.837   4.432 -2.5377 -0.2696 -0.5506
15297TIP3   OH267305   3.380   2.190  13.235 -0.6046 -0.0691  0.3902
15297TIP3    H167306   3.368   2.108  13.188 -0.3473  0.1881 -0.1222
15297TIP3    H267307   3.422   2.249  13.173  1.4019 -0.2742  1.4783
15298TIP3   OH267308   2.860   0.903   4.370 -0.0195 -0.3909  0.3466
15298TIP3    H167309   2.775   0.859   4.368  0.6853 -1.7744 -0.6704
15298TIP3    H267310   2.914   0.854   4.308  1.3677  0.7969  0.5629
15299TIP3   OH267311   4.370   3.068  14.100 -0.3667  0.7644 -0.4829
15299TIP3    H167312   4.437   3.001  14.110 -0.7243  0.1897 -1.7927
15299TIP3    H267313   4.417   3.150  14.114  0.3849  0.3253 -0.3398
15300TIP3   OH267314   0.830   6.002  16.503 -0.0411 -0.2182  0.2301
15300TIP3    H167315   0.872   6.083  16.534  0.5046  0.6675 -2.5960
15300TIP3    H267316   0.772   6.030  16.433 -0.7610 -2.1705 -0.0078
15301TIP3   OH267317   4.409   2.413  14.515 -0.1169  0.8198  0.0816
15301TIP3    H167318   4.390   2.351  14.445 -1.2083  0.6267  0.5282
15301TIP3    H267319   4.361   2.492  14.492 -0.0016  0.9588  0.3143
15302TIP3   OH267320   6.722   1.715   0.400 -0.5452  0.5829 -0.2209
15302TIP3    H167321   6.770   1.654   0.456  0.9626  2.3515  0.5329
15302TIP3    H267322   6.777   1.723   0.322 -0.8785  0.7493 -0.4384
15303TIP3   OH267323   3.166   0.098  13.304 -0.4396 -0.6484  0.1879
15303TIP3    H167324   3.077   0.078  13.332 -0.3307 -1.4351  0.0098
15303TIP3    H267325   3.170   0.065  13.214  0.3345 -1.5909  0.5427
15304TIP3   OH267326   0.959   1.904   3.272  0.5999  0.3171 -0.4841
15304TIP3    H167327   0.982   1.937   3.184 -0.1712 -1.3681 -1.3691
15304TIP3    H267328   1.023   1.835   3.289  1.1566  1.0772  0.5983
15305TIP3   OH267329   0.932   6.355   0.254  0.1120  0.1618 -0.3994
15305TIP3    H167330   0.899   6.356   0.344 -0.6437  0.4288 -0.6673
15305TIP3    H267331   0.983   6.274   0.248 -0.8306 -0.4774 -0.0690
15306TIP3   OH267332   1.838   0.123  16.104  0.2035  0.2634  0.2320
15306TIP3    H167333   1.843   0.188  16.174  1.9580 -0.7661  1.1227
15306TIP3    H267334   1.835   0.039  16.149 -0.5829 -0.3561 -0.9240
15307TIP3   OH267335   3.451   0.055  13.876  0.9337  0.0633  0.0276
15307TIP3    H167336   3.367   0.009  13.875  0.8570 -0.0615  2.9450
15307TIP3    H267337   3.510  -0.001  13.825 -0.7633  0.3605 -2.4214
15308TIP3   OH267338   5.013   4.500   5.458  0.2762 -0.3629 -0.0663
15308TIP3    H167339   4.989   4.588   5.487 -0.5116 -0.4846 -0.3268
15308TIP3    H267340   4.952   4.442   5.503  0.9230 -0.7987  0.2572
15309TIP3   OH267341   2.479   3.348  12.401 -0.1518  0.1756  0.1791
15309TIP3    H167342   2.453   3.318  12.314  0.4194  1.7905 -0.5911
15309TIP3    H267343   2.564   3.308  12.416 -0.0663  0.2188 -0.1804
15310TIP3   OH267344   0.023   3.090   3.412  0.3363 -0.1022  0.0011
15310TIP3    H167345   0.017   3.006   3.367 -1.9215  1.2459 -2.4624
15310TIP3    H267346   0.117   3.111   3.410  0.7884 -1.9642 -0.4166
15311TIP3   OH267347   3.000   4.749   1.524  0.2019 -0.2239 -0.0461
15311TIP3    H167348   2.997   4.738   1.619  3.0757  1.1276  0.3022
15311TIP3    H267349   3.057   4.678   1.494  0.1469 -0.0332 -0.6070
15312TIP3   OH267350   0.239   5.429  15.926 -0.5063  0.2402 -0.1924
15312TIP3    H167351   0.322   5.381  15.917 -0.3242  0.4908  0.1344
15312TIP3    H267352   0.227   5.440  16.020 -0.8089  0.3855 -0.2461
15313TIP3   OH267353   2.040   0.497  12.466  0.5146  0.1472  0.0785
15313TIP3    H167354   2.123   0.534  12.496  1.1032  0.0580 -1.3418
15313TIP3    H267355   2.021   0.545  12.385 -1.4986  1.0657  1.0329
15314TIP3   OH267356   5.337   1.326   5.882  0.1780  0.1898  0.0754
15314TIP3    H167357   5.348   1.381   5.960 -1.2694 -0.4607  0.7774
15314TIP3    H267358   5.340   1.387   5.809 -2.0044  1.3602  0.8713
15315TIP3   OH267359   5.709   4.088   0.463  0.1312  0.0477 -0.3681
15315TIP3    H167360   5.622   4.057   0.440 -0.4552 -0.0080  1.6530
15315TIP3    H267361   5.714   4.076   0.558  2.5375 -0.3986 -0.4863
15316TIP3   OH267362   0.791   2.598   5.161  0.5027 -0.3330  0.3363
15316TIP3    H167363   0.747   2.526   5.207  0.7538  0.1222  1.2960
15316TIP3    H267364   0.872   2.613   5.210  0.5726  0.4424 -0.0001
15317TIP3   OH267365   3.595   6.445  13.831 -0.3488  0.2632 -0.2005
15317TIP3    H167366   3.523   6.477  13.776 -1.2983 -0.9365  0.2801
15317TIP3    H267367   3.565   6.461  13.921  0.0020 -0.2028 -0.0004
15318TIP3   OH267368   5.399   6.287   1.491 -0.1614 -0.4752  0.2336
15318TIP3    H167369   5.357   6.284   1.405  0.1005  0.7448  0.0398
15318TIP3    H267370   5.460   6.213   1.491  0.8810  0.3218 -1.2131
15319TIP3   OH267371   1.996   5.321   2.546  0.1017 -0.9347  0.1723
15319TIP3    H167372   1.934   5.393   2.539 -0.2296 -1.2562 -0.2324
15319TIP3    H267373   2.082   5.363   2.542 -0.0880 -0.5421  0.1744
15320TIP3   OH267374   2.164   2.552  15.592  0.4344 -0.2035  0.4951
15320TIP3    H167375   2.134   2.548  15.501 -0.2734 -0.2851  0.7213
15320TIP3    H267376   2.125   2.632  15.626 -1.4057 -1.4271  1.4221
15321TIP3   OH267377   1.889   0.689  11.941 -1.0263  0.2709 -0.0306
15321TIP3    H167378   1.883   0.781  11.914 -3.1800 -0.4381 -2.4147
15321TIP3    H267379   1.959   0.653  11.887  1.1150  0.7910  2.2134
15322TIP3   OH267380   6.649   0.468   5.022  0.4191  0.8440 -0.2174
15322TIP3    H167381   6.683   0.379   5.027 -0.4211  0.4963 -0.4333
15322TIP3    H267382   6.635   0.483   4.929 -1.2602  0.4637 -0.0600
15323TIP3   OH267383   3.448   6.439  15.429  0.4806 -0.0436 -0.4134
15323TIP3    H167384   3.517   6.435  15.363  0.5472  1.6298 -0.5013
15323TIP3    H267385   3.472   6.514  15.484 -0.2449 -0.6322  0.7560
15324TIP3   OH267386   4.410   0.952   5.162 -0.4103  0.1217  0.2321
15324TIP3    H167387   4.434   1.044   5.175 -0.2762  0.0111  0.7680
15324TIP3    H267388   4.448   0.930   5.077 -1.7049  0.9835 -0.6134
15325TIP3   OH267389   1.249   5.978   0.801 -0.2899  0.2056  0.0302
15325TIP3    H167390   1.204   6.010   0.723 -2.5268 -2.3834  0.1102
15325TIP3    H267391   1.248   6.052   0.862 -1.3104  1.3123 -1.2702
15326TIP3   OH267392   1.968   2.774   5.907  0.1924 -0.2403 -0.5044
15326TIP3    H167393   1.994   2.731   5.826  0.8597  0.7579 -0.8527
15326TIP3    H267394   2.037   2.752   5.969  1.2696  1.3478 -1.0604
15327TIP3   OH267395   2.963   6.139  13.124 -0.5079 -0.5353 -0.1402
15327TIP3    H167396   2.984   6.229  13.099 -0.5669 -0.2865  0.6573
15327TIP3    H267397   2.956   6.092  13.041  0.8369 -0.1082 -0.5278
15328TIP3   OH267398   1.771   1.667  15.267  0.2053  0.8286 -0.6309
15328TIP3    H167399   1.729   1.704  15.345 -1.8544  0.4112 -1.4621
15328TIP3    H267400   1.826   1.737  15.234  0.1751  1.4295  0.5251
15329TIP3   OH267401   0.319   3.361   0.585 -0.3014  0.0851 -0.8292
15329TIP3    H167402   0.412   3.337   0.586 -0.7519 -1.7960  0.7128
15329TIP3    H267403   0.275   3.288   0.629 -2.1575  2.3573  1.3501
15330TIP3   OH267404   0.664   5.243   3.313 -0.1429  0.1885  0.2676
15330TIP3    H167405   0.706   5.240   3.227  0.0532 -1.5362  0.4036
15330TIP3    H267406   0.678   5.156   3.350 -2.2798  0.1288  1.0700
15331TIP3   OH267407   1.409   2.753   3.530  0.1795  0.1661 -0.0346
15331TIP3    H167408   1.322   2.782   3.558  0.2750  1.4736 -0.9897
15331TIP3    H267409   1.413   2.777   3.437  1.9799  1.1956  0.2698
15332TIP3   OH267410   0.943   6.351  12.985 -0.7248  0.5159 -0.3151
15332TIP3    H167411   0.977   6.281  13.040 -0.7504  1.0679  0.4216
15332TIP3    H267412   1.008   6.420  12.991 -1.0366  0.8283 -0.4702
15333TIP3   OH267413   1.940   3.641  12.552 -0.3245  0.5462 -0.2856
15333TIP3    H167414   1.959   3.547  12.544 -1.7340  0.2137 -0.0674
15333TIP3    H267415   1.942   3.658  12.646  1.0289  1.0099 -0.3739
15334TIP3   OH267416   5.874   5.890   0.451 -0.7839 -0.0234 -0.2320
15334TIP3    H167417   5.848   5.970   0.405  0.0841  0.0238 -0.6494
15334TIP3    H267418   5.857   5.910   0.544 -1.7792  0.1695 -0.4451
15335TIP3   OH267419   5.948   3.118  17.200 -0.3853  0.5068 -0.3030
15335TIP3    H167420   5.924   3.096  17.110  0.4529  0.1555 -0.4503
15335TIP3    H267421   5.968   3.212  17.197 -1.2213  0.6970 -0.2807
15336TIP3   OH267422   3.316   5.424  12.313 -0.2259  0.3924  0.4049
15336TIP3    H167423   3.317   5.332  12.286 -1.3218  1.0123 -2.0413
15336TIP3    H267424   3.394   5.434  12.367 -0.9851 -2.3362  2.2154
15337TIP3   OH267425   4.656   4.898   1.946 -0.3769  0.1936  0.4247
15337TIP3    H167426   4.717   4.958   1.989 -0.6119  1.2172 -0.6126
15337TIP3    H267427   4.573   4.947   1.942  0.2254  1.2693 -3.3964
15338TIP3   OH267428   5.312   6.242  15.745 -0.3669 -0.3854 -0.0361
15338TIP3    H167429   5.299   6.228  15.838  0.4350  2.2853  0.5753
15338TIP3    H267430   5.406   6.229  15.732 -0.5391 -1.1510 -0.5698
15339TIP3   OH267431   4.768   3.544   1.935 -0.4273  0.1613 -0.1781
15339TIP3    H167432   4.690   3.574   1.888 -0.4685  0.5593  0.1347
15339TIP3    H267433   4.798   3.622   1.983 -0.2440 -0.1718  0.2507
15340TIP3   OH267434   1.158   5.988  12.089  0.7789  0.1282 -0.3623
15340TIP3    H167435   1.168   5.978  12.183  1.4890  2.3405 -0.1273
15340TIP3    H267436   1.245   6.011  12.058  0.2846  0.7571 -1.3381
15341TIP3   OH267437   0.508   5.144   4.380 -0.3401 -0.0827  0.2232
15341TIP3    H167438   0.416   5.167   4.393 -0.8071 -2.1149  0.9637
15341TIP3    H267439   0.509   5.048   4.387  1.9370 -0.0581  0.9378
15342TIP3   OH267440   2.006   1.452   5.875  0.0826 -0.4943 -0.3449
15342TIP3    H167441   2.054   1.377   5.911  1.9705  1.9367  2.7025
15342TIP3    H267442   1.917   1.443   5.909  0.3559 -1.1872  0.2201
15343TIP3   OH267443   6.397   0.803  15.314  0.2250  0.2184  0.0385
15343TIP3    H167444   6.423   0.882  15.267  0.6215  1.1311  1.7163
15343TIP3    H267445   6.458   0.797  15.387 -2.0572  0.4735  2.0892
15344TIP3   OH267446   4.228   2.945   4.490 -1.0037 -0.5738 -0.6573
15344TIP3    H167447   4.217   2.990   4.574  1.5095 -1.2844  0.1456
15344TIP3    H267448   4.194   3.007   4.425 -1.6486  0.6143  0.7520
15345TIP3   OH267449   2.887   2.254   2.381  0.0378 -0.2311 -0.2181
15345TIP3    H167450   2.945   2.180   2.365 -2.4459 -2.9122  2.0892
15345TIP3    H267451   2.906   2.281   2.471 -0.4840  0.6145 -0.3438
15346TIP3   OH267452   1.777   5.307   5.191  0.3603  0.2499  0.0104
15346TIP3    H167453   1.719   5.232   5.205  0.6007  0.4550  2.4662
15346TIP3    H267454   1.724   5.371   5.144 -1.9283  0.8929  3.1667
15347TIP3   OH267455   0.087   6.229  12.135  0.1686 -0.2720 -0.4413
15347TIP3    H167456   0.021   6.297  12.119  0.4914  0.3364  0.6861
15347TIP3    H267457   0.076   6.167  12.062 -1.1036  0.2271 -0.7022
15348TIP3   OH267458   1.219   4.107  13.169  0.1395  0.0502  0.1234
15348TIP3    H167459   1.228   4.196  13.136  0.6424 -0.2865 -0.6775
15348TIP3    H267460   1.265   4.053  13.105  0.6360 -0.6818  1.0720
15349TIP3   OH267461   1.649   5.925  11.521 -0.1108 -0.0306  0.2234
15349TIP3    H167462   1.719   5.874  11.482 -0.0276 -0.2623  0.6694
15349TIP3    H267463   1.682   6.015  11.522 -0.2842  0.0545 -0.6221
15350TIP3   OH267464   0.069   4.111  15.444  0.2467  0.3597 -0.6640
15350TIP3    H167465   0.003   4.168  15.403 -0.9886 -0.2410  0.4270
15350TIP3    H267466   0.096   4.158  15.523  0.5648  0.2531 -0.7080
15351TIP3   OH267467   0.019   2.666  10.456 -1.0821  0.5409 -0.0109
15351TIP3    H167468  -0.050   2.732  10.452 -0.9311  0.6887 -0.1804
15351TIP3    H267469  -0.027   2.585  10.478 -1.2155  0.7829  0.6426
15352TIP3   OH267470   0.896   3.006  12.345 -0.0406  0.4945  0.0129
15352TIP3    H167471   0.968   3.006  12.408  0.4504  2.4116 -0.4924
15352TIP3    H267472   0.826   3.054  12.388  0.0641  1.2443 -0.6298
15353TIP3   OH267473   4.977   2.373  12.607 -0.6590  0.0077  1.1077
15353TIP3    H167474   4.906   2.431  12.581  0.8137  0.7147 -1.8630
15353TIP3    H267475   4.987   2.313  12.533  2.1627  0.3385  1.1131
15354TIP3   OH267476   1.088   1.433   6.574 -0.0195 -0.0462  0.2813
15354TIP3    H167477   1.171   1.391   6.548 -0.4045 -0.6633  0.0108
15354TIP3    H267478   1.114   1.518   6.609  0.7737 -0.4158  0.6296
15355TIP3   OH267479   6.605   4.677  16.403  0.3815  0.1596  0.1215
15355TIP3    H167480   6.598   4.737  16.329  1.3532  1.1614  0.8004
15355TIP3    H267481   6.681   4.622  16.382 -1.2943 -1.8126 -1.1277
15356TIP3   OH267482   4.991   3.863  15.977 -0.4229 -0.2405 -0.0228
15356TIP3    H167483   5.071   3.912  15.959 -0.1247 -0.5839  0.3577
15356TIP3    H267484   4.923   3.910  15.929 -0.0668  0.2979 -0.0075
15357TIP3   OH267485   0.902   1.077  13.996  0.0095  0.2441  0.1006
15357TIP3    H167486   0.871   1.151  14.049 -0.4852 -1.2614  2.0184
15357TIP3    H267487   0.957   1.026  14.056 -0.4814 -1.4738 -0.8528
15358TIP3   OH267488   0.857   3.006  15.632 -0.0892  0.1088  0.8925
15358TIP3    H167489   0.834   3.092  15.667 -3.4453 -0.0635 -0.4446
15358TIP3    H267490   0.854   3.017  15.537  0.7785 -1.1801  0.6952
15359TIP3   OH267491   0.616   1.259   4.719 -0.0853  0.0246 -0.3004
15359TIP3    H167492   0.632   1.256   4.625 -0.0147  2.0517 -0.3832
15359TIP3    H267493   0.522   1.246   4.727 -0.2546  0.9038 -0.7421
15360TIP3   OH267494   2.461   4.247   5.310 -0.3209 -0.0009 -0.0671
15360TIP3    H167495   2.482   4.185   5.239 -2.5187 -1.2748  0.3114
15360TIP3    H267496   2.465   4.194   5.390  0.2938  0.9885  0.5830
15361TIP3   OH267497   2.926   5.376   0.195 -0.2352 -0.3412 -0.6070
15361TIP3    H167498   2.837   5.342   0.184  0.7833 -3.5939  0.1236
15361TIP3    H267499   2.963   5.375   0.107  0.1604 -2.5731 -0.4762
15362TIP3   OH267500   2.418   1.235   3.230  0.1091  0.3861 -0.8047
15362TIP3    H167501   2.482   1.273   3.291 -0.3499 -0.5422  0.2970
15362TIP3    H267502   2.408   1.301   3.161  1.2416  1.1225 -0.2910
15363TIP3   OH267503   4.164   5.933   3.516 -0.1321 -0.1972  0.2075
15363TIP3    H167504   4.087   5.890   3.480 -0.7712  0.1640  1.0723
15363TIP3    H267505   4.137   6.025   3.525  0.3332 -0.1038  0.6878
15364TIP3   OH267506   1.374   0.137   4.428 -0.5689  0.0555 -0.7530
15364TIP3    H167507   1.304   0.076   4.407  0.3855 -1.1678 -0.4840
15364TIP3    H267508   1.329   0.218   4.453 -1.8665 -0.6559 -0.7235
15365TIP3   OH267509   1.581   2.540   1.038  0.7763  0.6712  0.0433
15365TIP3    H167510   1.568   2.594   0.960  1.8706  1.7834  0.6067
15365TIP3    H267511   1.634   2.466   1.006  1.2858  1.1587 -0.2555
15366TIP3   OH267512   1.430   2.310   5.247 -0.0034 -0.0170 -0.4638
15366TIP3    H167513   1.407   2.275   5.333 -0.4292 -0.0147 -0.5751
15366TIP3    H267514   1.352   2.295   5.193 -0.4607  1.6908 -0.3392
15367TIP3   OH267515   3.557   2.265  16.652  0.0656  0.4824 -0.0947
15367TIP3    H167516   3.540   2.176  16.683  2.5516 -0.7909 -2.0766
15367TIP3    H267517   3.475   2.291  16.610 -1.0653 -0.4011  1.4726
15368TIP3   OH267518   6.053   6.171   0.994  0.4508  0.4958  0.2626
15368TIP3    H167519   6.118   6.186   1.062  1.2409  0.2224 -0.4245
15368TIP3    H267520   6.006   6.092   1.023 -0.8071  1.7054  1.6659
15369TIP3   OH267521   0.448   4.746  13.583 -0.3616 -0.1161  0.8458
15369TIP3    H167522   0.426   4.834  13.612 -1.1685  0.2535 -0.7803
15369TIP3    H267523   0.399   4.688  13.642 -0.0523  0.4997  1.7371
15370TIP3   OH267524   2.005   5.366  14.048  0.1054  0.1352 -0.4419
15370TIP3    H167525   2.009   5.397  13.958 -1.2237 -0.5765 -0.7695
15370TIP3    H267526   2.033   5.441  14.101  0.9135  0.5530 -1.4267
15371TIP3   OH267527   0.230   4.113  12.126 -0.0370  0.5464  0.1535
15371TIP3    H167528   0.186   4.124  12.042 -1.7455  0.6434  1.0199
15371TIP3    H267529   0.270   4.198  12.144 -0.1853  0.7077 -0.2821
15372TIP3   OH267530   3.951   6.408   0.974  0.4187 -0.1130  0.0341
15372TIP3    H167531   3.915   6.402   1.063 -0.8358 -0.2830 -0.4701
15372TIP3    H267532   3.930   6.496   0.945  0.0275 -0.3555 -0.4272
15373TIP3   OH267533   2.297   3.115  16.690  0.0210 -0.3476 -0.3912
15373TIP3    H167534   2.325   3.029  16.722 -0.7115 -0.2626  0.5166
15373TIP3    H267535   2.324   3.176  16.758 -1.9352 -0.2132  0.3318
15374TIP3   OH267536   2.377   6.467  12.668  0.5149  0.3386 -0.3279
15374TIP3    H167537   2.362   6.554  12.705  0.7679 -0.1288  0.9387
15374TIP3    H267538   2.333   6.407  12.729 -0.2782 -0.3904 -1.5627
15375TIP3   OH267539   5.885   3.787  16.326 -0.0526  0.4810  0.1367
15375TIP3    H167540   5.967   3.824  16.293 -0.1813  0.8246  0.1969
15375TIP3    H267541   5.840   3.755  16.248 -0.1866  0.9528  0.0128
15376TIP3   OH267542   5.456   5.887  12.063 -0.7335  0.3313  0.1202
15376TIP3    H167543   5.395   5.865  12.133  0.1452 -0.6746  0.5967
15376TIP3    H267544   5.422   5.840  11.986 -0.2436 -0.7339  0.5340
15377TIP3   OH267545   1.864   2.987   6.047  0.3979 -0.3457  0.0300
15377TIP3    H167546   1.796   3.020   5.988  0.9655 -0.1612 -0.5207
15377TIP3    H267547   1.888   2.902   6.010 -2.6508 -2.6025  2.6428
15378TIP3   OH267548   5.292   3.407  15.592  0.6465 -0.2128 -0.5275
15378TIP3    H167549   5.222   3.399  15.527 -0.6744 -0.6487  0.8950
15378TIP3    H267550   5.288   3.326  15.642  1.1057  0.4423  0.6065
15379TIP3   OH267551   4.618   0.150  14.293 -0.2547  0.2106  0.1975
15379TIP3    H167552   4.540   0.191  14.331 -0.3881  2.2461 -2.0299
15379TIP3    H267553   4.583   0.080  14.238 -0.2186 -1.1677  1.8676
15380TIP3   OH267554   5.612   4.514   3.064 -0.1136 -0.1004 -0.4110
15380TIP3    H167555   5.573   4.428   3.051 -3.0082  1.1408 -0.6791
15380TIP3    H267556   5.540   4.576   3.052  1.3887  2.2900  1.6505
15381TIP3   OH267557   5.104   2.519   0.579  0.2037 -0.6169  0.4591
15381TIP3    H167558   5.075   2.599   0.534 -1.9337 -0.9596  1.1113
15381TIP3    H267559   5.198   2.513   0.560 -0.1238  0.5700 -1.8670
15382TIP3   OH267560   1.732   3.699   2.549  0.1144  0.0915 -0.4525
15382TIP3    H167561   1.803   3.763   2.562  0.5469 -0.1237 -1.6841
15382TIP3    H267562   1.747   3.663   2.462 -1.5810  0.1129 -0.7916
15383TIP3   OH267563   0.291   2.543   4.432 -0.6622 -0.2167 -0.5095
15383TIP3    H167564   0.215   2.496   4.401 -0.3308 -0.3682 -1.1027
15383TIP3    H267565   0.274   2.558   4.525 -0.3753 -2.3036 -0.0812
15384TIP3   OH267566   1.043   6.112  14.332  0.2294  0.7516 -0.2402
15384TIP3    H167567   0.957   6.073  14.345  0.5131  0.1726 -0.0924
15384TIP3    H267568   1.075   6.131  14.420 -0.4257  2.4993 -0.3276
15385TIP3   OH267569   5.361   0.623  15.665  0.1890 -0.2664  0.0198
15385TIP3    H167570   5.361   0.654  15.756  2.1845 -2.0388  0.6891
15385TIP3    H267571   5.306   0.545  15.665  1.8148 -1.4745  0.2325
15386TIP3   OH267572   3.468   5.765   3.025 -0.3866  0.4508  0.3070
15386TIP3    H167573   3.409   5.700   3.063  0.0097  0.9958  1.9201
15386TIP3    H267574   3.528   5.715   2.970 -1.3174 -0.2992 -0.0450
15387TIP3   OH267575   5.098   3.455   2.986 -0.2178  0.5963  0.4394
15387TIP3    H167576   5.172   3.405   2.953 -1.0104 -0.1034 -0.3142
15387TIP3    H267577   5.078   3.518   2.917 -1.3870 -0.3532 -0.1204
15388TIP3   OH267578   2.780   6.139   4.621 -0.0210 -0.5228  0.2518
15388TIP3    H167579   2.744   6.117   4.535 -1.7910  2.8889 -0.0804
15388TIP3    H267580   2.704   6.148   4.678  0.8428  0.3937  1.3171
15389TIP3   OH267581   4.978   2.306  11.407  0.2010  0.6149 -0.4334
15389TIP3    H167582   5.004   2.327  11.317  2.0722  1.2603  0.2149
15389TIP3    H267583   4.913   2.373  11.429 -0.5133  0.2653 -1.3844
15390TIP3   OH267584   3.016   0.330   1.917 -0.4235 -0.1314 -0.3680
15390TIP3    H167585   3.100   0.372   1.939  0.0972 -0.9430 -0.7730
15390TIP3    H267586   2.963   0.401   1.881  0.4114  0.2158 -0.9503
15391TIP3   OH267587   0.879   0.216  14.097 -0.1476 -0.2160  0.6059
15391TIP3    H167588   0.954   0.274  14.088  0.5786 -1.3645 -1.3818
15391TIP3    H267589   0.804   0.275  14.108  0.8876  0.9789  1.5271
15392TIP3   OH267590   2.635   2.869  15.437  0.2344  0.0125 -0.1486
15392TIP3    H167591   2.700   2.840  15.502 -0.3309  1.2434  1.0287
15392TIP3    H267592   2.606   2.789  15.394  1.9970 -0.6397 -0.2033
15393TIP3   OH267593   1.213   0.554   3.132 -0.0993 -0.2228 -0.0670
15393TIP3    H167594   1.243   0.465   3.148 -2.4138 -0.7454  1.8850
15393TIP3    H267595   1.280   0.610   3.172 -0.0001 -1.1882  1.1302
15394TIP3   OH267596   3.962   0.635  14.771 -0.2453 -0.0478  0.2417
15394TIP3    H167597   3.963   0.540  14.782  0.0900 -0.0546  0.1493
15394TIP3    H267598   3.969   0.669  14.860 -0.2468 -0.1088  0.2655
15395TIP3   OH267599   4.619   2.798  12.808 -0.0630 -0.0992  0.1230
15395TIP3    H167600   4.590   2.776  12.720 -0.5205 -2.1142  0.7173
15395TIP3    H267601   4.714   2.785  12.807  0.2046  1.6920 -0.5264
15396TIP3   OH267602   6.677   6.348   6.483  0.2621 -0.5423 -0.1231
15396TIP3    H167603   6.638   6.434   6.467  0.4364 -0.5193 -0.4386
15396TIP3    H267604   6.607   6.296   6.522  0.6009  0.2315  1.6570
15397TIP3   OH267605   2.013   1.466  16.195 -0.1298 -0.3233  0.2706
15397TIP3    H167606   2.086   1.409  16.171  0.3464  0.0841  0.7235
15397TIP3    H267607   2.020   1.475  16.290 -1.4647 -1.2158  0.4798
15398TIP3   OH267608   6.010   4.610  14.771 -0.3748  0.2308 -0.1764
15398TIP3    H167609   6.054   4.525  14.767  1.2249  1.0583 -0.8030
15398TIP3    H267610   5.959   4.614  14.689 -1.8111 -0.7798  0.6140
15399TIP3   OH267611   3.193   2.442   4.727 -0.2427 -0.1965 -0.4307
15399TIP3    H167612   3.118   2.397   4.688 -0.8028 -0.3813  0.8184
15399TIP3    H267613   3.214   2.391   4.805 -0.1033  0.9934  0.3435
15400TIP3   OH267614   0.644   2.074  13.738  0.2619 -0.4264 -0.0779
15400TIP3    H167615   0.637   2.019  13.660  0.1225 -0.5263  0.0042
15400TIP3    H267616   0.717   2.133  13.720  0.4947 -0.7247 -0.1104
15401TIP3   OH267617   3.948   1.319  11.722 -0.1716 -0.0744  0.1658
15401TIP3    H167618   3.896   1.267  11.783 -1.7391 -0.4163 -1.3782
15401TIP3    H267619   3.912   1.298  11.635  1.0827  1.3923 -0.7706
15402TIP3   OH267620   6.197   0.514   3.844  0.2556 -0.5673 -0.5462
15402TIP3    H167621   6.155   0.454   3.782 -1.5075 -0.8563  0.8219
15402TIP3    H267622   6.125   0.546   3.898  1.5666  0.5602  0.6097
15403TIP3   OH267623   2.345   5.032   5.441 -0.3839  0.0382  0.3073
15403TIP3    H167624   2.379   5.121   5.454  2.1906 -0.8904  0.4305
15403TIP3    H267625   2.270   5.044   5.383  0.5861  2.1947 -0.6407
15404TIP3   OH267626   4.560   1.073   6.848 -0.0087  0.6866  0.8149
15404TIP3    H167627   4.512   0.991   6.836  0.6263  0.4574 -0.3059
15404TIP3    H267628   4.637   1.048   6.900 -1.4162  1.1929  3.2846
15405TIP3   OH267629   5.534   5.310   1.168  0.6835  0.4767  0.0394
15405TIP3    H167630   5.562   5.247   1.102  0.3609 -0.1662  0.5070
15405TIP3    H267631   5.452   5.346   1.134 -0.7307 -1.5374  1.1146
15406TIP3   OH267632   0.861   2.062  11.758  0.1915  0.5022 -0.0870
15406TIP3    H167633   0.889   2.076  11.848  0.0914 -1.8807  0.3740
15406TIP3    H267634   0.942   2.059  11.707  0.3092  0.6777  0.0892
15407TIP3   OH267635   6.426   0.165   2.795 -0.0071 -0.6552 -0.4012
15407TIP3    H167636   6.433   0.170   2.700 -1.0095 -0.6429 -0.4814
15407TIP3    H267637   6.515   0.143   2.824 -0.0913 -2.6294 -1.4681
15408TIP3   OH267638   2.441   6.599   4.597 -0.2064  0.4587 -0.0372
15408TIP3    H167639   2.412   6.631   4.682 -0.1192  1.4262 -0.3532
15408TIP3    H267640   2.510   6.536   4.617  0.4481  1.3421  0.6030
15409TIP3   OH267641   1.329   3.728  11.475 -0.6347 -0.3511 -0.5677
15409TIP3    H167642   1.385   3.779  11.418 -1.1712 -0.3226 -1.0744
15409TIP3    H267643   1.357   3.751  11.564  1.0332 -1.3180 -0.8061
15410TIP3   OH267644   2.366   0.559  11.826  0.3371 -0.0617  0.3256
15410TIP3    H167645   2.441   0.515  11.865  0.9770  1.0983  0.4542
15410TIP3    H267646   2.392   0.577  11.735 -0.6573 -1.6227 -0.3071
15411TIP3   OH267647   0.494   3.122   1.133  0.3808  0.1975 -0.2072
15411TIP3    H167648   0.468   3.197   1.080  1.4530 -2.0171 -4.2587
15411TIP3    H267649   0.411   3.077   1.153 -0.0520  1.0883  0.0464
15412TIP3   OH267650   2.611   5.696  12.526 -0.0298 -0.1846 -0.1562
15412TIP3    H167651   2.634   5.634  12.595 -1.2217 -0.5182 -0.0529
15412TIP3    H267652   2.521   5.721  12.544  0.5105  1.8267 -0.0335
15413TIP3   OH267653   6.115   4.912  14.426 -0.4227  0.0131 -0.7495
15413TIP3    H167654   6.171   4.920  14.503  1.7193 -0.5264 -2.1241
15413TIP3    H267655   6.060   4.835  14.444  1.0039 -0.9451 -0.2747
15414TIP3   OH267656   4.909   2.061   6.092 -0.1356  0.1466 -0.3548
15414TIP3    H167657   4.987   2.106   6.122 -1.0839  1.9877 -0.4891
15414TIP3    H267658   4.866   2.031   6.172 -1.1648  2.4661  0.0441
15415TIP3   OH267659   6.682   4.677  14.847 -0.3680 -0.0971  0.2188
15415TIP3    H167660   6.591   4.653  14.866 -0.9150  1.0292 -0.8281
15415TIP3    H267661   6.676   4.767  14.814  1.0317 -0.3292 -0.7253
15416TIP3   OH267662   2.187   2.778  17.222  0.2557 -0.0117  0.2232
15416TIP3    H167663   2.276   2.747  17.240  0.6444  0.9059 -0.0519
15416TIP3    H267664   2.200   2.854  17.165 -0.6029  1.1830  1.5615
15417TIP3   OH267665   1.594   2.601  16.497 -0.0465 -0.1226  0.0670
15417TIP3    H167666   1.588   2.564  16.409 -0.2964 -0.7547  0.3409
15417TIP3    H267667   1.685   2.586  16.523  0.4415  1.4174 -0.6487
15418TIP3   OH267668   0.682   2.452   2.686  0.3616 -0.4349 -0.4717
15418TIP3    H167669   0.677   2.385   2.755 -1.2858 -1.3404 -1.4070
15418TIP3    H267670   0.705   2.403   2.607  1.5100  0.4887 -0.7437
15419TIP3   OH267671   1.403   1.633   0.450 -0.2864  0.0180  0.0084
15419TIP3    H167672   1.375   1.694   0.518  0.9239  1.2288 -0.5445
15419TIP3    H267673   1.347   1.556   0.462 -2.6417  1.6450  0.0176
15420TIP3   OH267674   4.016   3.942   0.105  0.0463 -0.4583  0.4053
15420TIP3    H167675   4.102   3.907   0.127  0.0036 -0.1964  1.0166
15420TIP3    H267676   3.962   3.925   0.182  0.5005  2.4973  1.5283
15421TIP3   OH267677   4.073   2.798   1.447  0.4517  0.0206  0.5780
15421TIP3    H167678   4.022   2.779   1.526 -1.2837  1.0139 -0.2464
15421TIP3    H267679   4.033   2.877   1.411  2.6844  0.9296 -0.0781
15422TIP3   OH267680   2.245   5.358  15.343 -0.0515 -0.0293 -0.4342
15422TIP3    H167681   2.237   5.360  15.438 -1.3003 -1.0583 -0.4859
15422TIP3    H267682   2.262   5.449  15.318  2.1908 -0.0372  0.8851
15423TIP3   OH267683   4.116   3.146  13.451 -0.1958  0.0274 -0.8579
15423TIP3    H167684   4.187   3.171  13.392 -0.6806 -0.2451 -1.5684
15423TIP3    H267685   4.045   3.207  13.430 -0.2699  0.1249 -0.3420
15424TIP3   OH267686   5.761   2.617  11.459 -0.2447 -0.1975  0.1889
15424TIP3    H167687   5.683   2.562  11.460 -0.3371 -0.2185 -2.5865
15424TIP3    H267688   5.817   2.579  11.392  0.9581  1.4195  0.2104
15425TIP3   OH267689   3.651   2.419  14.376  0.7838 -0.2720  0.0394
15425TIP3    H167690   3.618   2.343  14.328  0.4856 -1.0800  1.4349
15425TIP3    H267691   3.641   2.394  14.468 -0.3291  1.8793  0.5622
15426TIP3   OH267692   4.059   0.988  13.817 -0.3127 -0.2073 -0.5110
15426TIP3    H167693   4.109   1.061  13.782  1.0526 -0.0617  1.5940
15426TIP3    H267694   3.973   0.995  13.773  0.0918  2.0460 -1.0785
15427TIP3   OH267695   5.618   6.036  16.760 -0.0033 -0.4237  0.2960
15427TIP3    H167696   5.703   6.005  16.729  1.1310  1.2634  1.5606
15427TIP3    H267697   5.636   6.076  16.845 -2.2985 -1.1409  1.2050
15428TIP3   OH267698   1.063   6.575  14.988  0.2990 -0.4019  0.0430
15428TIP3    H167699   1.123   6.605  14.920 -0.5699 -1.1978 -1.1030
15428TIP3    H267700   1.092   6.486  15.008 -1.4767 -1.4521 -1.7521
15429TIP3   OH267701   2.873   2.875   3.974  0.0782 -0.8421 -0.4025
15429TIP3    H167702   2.900   2.903   4.062  0.2798  1.8651 -1.2279
15429TIP3    H267703   2.863   2.780   3.981 -2.4414 -0.5023  3.2296
15430TIP3   OH267704   6.117   0.416  13.808 -0.2484  0.1230 -0.0355
15430TIP3    H167705   6.152   0.334  13.772 -1.9616 -1.0173  0.7670
15430TIP3    H267706   6.190   0.478  13.803  1.4727 -1.7686  0.4037
15431TIP3   OH267707   4.356   4.989  11.354  0.1629  0.0790 -0.4489
15431TIP3    H167708   4.418   5.017  11.421  0.3063 -1.4978  0.1088
15431TIP3    H267709   4.281   4.954  11.404  1.1782 -3.1610 -0.9962
15432TIP3   OH267710   6.422   2.235  16.263 -0.4205  0.0936 -0.0565
15432TIP3    H167711   6.513   2.246  16.235 -0.4669  0.6291 -0.0169
15432TIP3    H267712   6.415   2.286  16.344 -0.9121  0.5844 -0.3940
15433TIP3   OH267713   0.855   0.630  12.024  0.1662  0.0191 -0.5168
15433TIP3    H167714   0.799   0.587  11.960 -0.8603  0.4019  0.0962
15433TIP3    H267715   0.794   0.669  12.087  1.0465  2.0425 -0.8388
15434TIP3   OH267716   1.559   2.310  14.562  0.4696  0.2769  0.2407
15434TIP3    H167717   1.582   2.228  14.605  0.7574 -0.4026 -1.1508
15434TIP3    H267718   1.610   2.377  14.608 -1.2945  0.0251  2.7334
15435TIP3   OH267719   5.649   4.457  16.016  0.2789  0.1313  0.2370
15435TIP3    H167720   5.704   4.381  16.037 -1.3524 -1.1488  0.1131
15435TIP3    H267721   5.623   4.442  15.925  0.0603  0.9422  0.1602
15436TIP3   OH267722   0.616   3.880  15.556  0.2223 -0.3742 -0.0062
15436TIP3    H167723   0.542   3.819  15.568 -0.0500  0.0682  0.5809
15436TIP3    H267724   0.574   3.964  15.538  0.5677  0.1031  1.3720
15437TIP3   OH267725   1.837   1.643  12.981  0.2326  0.3358  0.2499
15437TIP3    H167726   1.799   1.701  12.915 -0.8265  0.4457  0.9414
15437TIP3    H267727   1.921   1.617  12.944  0.0950  1.1857 -0.6989
15438TIP3   OH267728   3.991   0.590   0.003 -0.4401  0.1799  0.2918
15438TIP3    H167729   3.997   0.608  -0.090  1.1540  1.5225  0.6067
15438TIP3    H267730   4.039   0.507   0.014 -0.7597 -0.0579 -0.0975
15439TIP3   OH267731   0.567   3.146   3.250 -0.2296 -0.4097  0.6231
15439TIP3    H167732   0.640   3.132   3.311  0.1592 -0.4375  0.1543
15439TIP3    H267733   0.608   3.181   3.171 -0.5388 -1.7875 -0.1683
15440TIP3   OH267734   3.681   4.156  15.487  0.5056  0.0326 -0.0042
15440TIP3    H167735   3.588   4.174  15.505  0.1753  0.2292 -1.6791
15440TIP3    H267736   3.726   4.179  15.568 -0.6058  2.7086 -0.0277
15441TIP3   OH267737   1.057   3.963  14.638 -0.6728 -0.1261 -0.3645
15441TIP3    H167738   1.102   3.997  14.560  0.8735  1.1528  1.0158
15441TIP3    H267739   1.117   3.897  14.673 -0.7286  0.2368  0.4394
15442TIP3   OH267740   1.218   1.619   2.736  0.7119 -0.3946  0.9515
15442TIP3    H167741   1.134   1.584   2.767  1.1438 -0.5480  2.0004
15442TIP3    H267742   1.271   1.627   2.816  1.9217 -0.9108  0.2194
15443TIP3   OH267743   6.770   0.393  13.574  0.1841  0.4112 -0.1075
15443TIP3    H167744   6.804   0.309  13.601  1.4315  0.6722 -0.8169
15443TIP3    H267745   6.812   0.456  13.633  0.3647  0.6648 -0.5040
15444TIP3   OH267746   1.754   0.035   0.916 -0.9942  0.3162  0.3855
15444TIP3    H167747   1.788   0.011   1.002 -0.4613  0.1389  0.1318
15444TIP3    H267748   1.761   0.131   0.914 -0.0336  0.2524  0.1540
15445TIP3   OH267749   5.500   2.153  12.937 -0.0936  0.0006 -0.1307
15445TIP3    H167750   5.527   2.120  12.851 -0.1936  0.6228 -0.4019
15445TIP3    H267751   5.573   2.208  12.966  0.7025 -1.5479  0.9544
15446TIP3   OH267752   0.796   5.828  14.023 -0.2039 -0.4816 -0.0271
15446TIP3    H167753   0.774   5.803  13.933  0.1385  0.2119 -0.3094
15446TIP3    H267754   0.718   5.873  14.055 -0.1738 -0.3615 -0.1209
15447TIP3   OH267755   3.247   3.755   2.820 -0.0647  0.0396 -0.0943
15447TIP3    H167756   3.334   3.717   2.807  0.4187  1.2742 -0.7538
15447TIP3    H267757   3.186   3.682   2.809  0.9337 -1.2527  2.2603
15448TIP3   OH267758   4.842   6.740   4.761 -0.1337 -0.0045 -0.2626
15448TIP3    H167759   4.811   6.792   4.687 -1.1551 -0.8866 -0.4845
15448TIP3    H267760   4.797   6.656   4.751 -0.6436  0.0092  1.6196
15449TIP3   OH267761   3.754   6.453  15.997 -0.3967 -0.2522  1.0265
15449TIP3    H167762   3.826   6.511  15.971  1.4216 -2.3875  1.0394
15449TIP3    H267763   3.744   6.393  15.923 -0.5712 -1.4217  1.9673
15450TIP3   OH267764   2.311   0.808  13.448 -0.4818  0.0938 -0.1840
15450TIP3    H167765   2.341   0.875  13.386  0.6524 -0.0530  0.1807
15450TIP3    H267766   2.322   0.726  13.400 -2.6904  0.1735 -0.9559
15451TIP3   OH267767   6.285   1.289   0.621  0.0157  0.4875  0.2044
15451TIP3    H167768   6.322   1.317   0.537 -1.2653 -0.5730 -0.7559
15451TIP3    H267769   6.361   1.258   0.670  0.7002  0.3848 -0.8592
15452TIP3   OH267770   6.610   1.305  14.635  0.0369  0.7168 -0.7239
15452TIP3    H167771   6.702   1.329  14.627  0.9141 -2.2278 -0.7469
15452TIP3    H267772   6.583   1.285  14.545  0.1276 -0.6799 -0.4684
15453TIP3   OH267773   6.443   4.598  13.072 -0.2716 -0.1041 -0.1194
15453TIP3    H167774   6.538   4.586  13.070  0.5463  3.9890  2.3459
15453TIP3    H267775   6.419   4.610  12.980  1.5752 -1.1747 -0.7882
15454TIP3   OH267776   5.819   4.512  16.953 -0.3762 -0.0471 -0.3787
15454TIP3    H167777   5.826   4.606  16.936 -0.6305 -0.0428 -0.4665
15454TIP3    H267778   5.748   4.505  17.018 -1.0205 -0.2564 -1.0908
15455TIP3   OH267779   3.353   5.806  14.217 -0.4493  0.0161 -0.4660
15455TIP3    H167780   3.404   5.805  14.298  1.5436  0.6984 -1.6367
15455TIP3    H267781   3.304   5.888  14.221  0.2210  0.4168 -0.2634
15456TIP3   OH267782   5.933   0.210  15.567 -0.3720 -0.0118  0.0687
15456TIP3    H167783   5.884   0.198  15.486  0.3762  0.2546 -0.4299
15456TIP3    H267784   5.991   0.283  15.550 -0.9664  0.7658  1.2246
15457TIP3   OH267785   5.387   4.358  14.007 -0.0242  0.2850  0.5558
15457TIP3    H167786   5.339   4.399  14.079  1.6115  0.0969  1.7845
15457TIP3    H267787   5.384   4.423  13.936  0.0853  1.3188  1.4827
15458TIP3   OH267788   3.103   3.857  16.057 -0.0190 -0.2869  0.1777
15458TIP3    H167789   3.094   3.859  15.962 -1.6590 -0.0302  0.3068
15458TIP3    H267790   3.091   3.764  16.080 -0.5166 -0.2164  0.2037
15459TIP3   OH267791   6.028   4.603   4.718 -0.1273  0.1265 -0.2170
15459TIP3    H167792   6.038   4.541   4.646  0.2535 -0.4504  0.3249
15459TIP3    H267793   6.114   4.607   4.758 -0.5066 -0.0921  0.6368
15460TIP3   OH267794   3.154   2.204  12.712  0.3538  0.0830 -0.3782
15460TIP3    H167795   3.161   2.223  12.618 -1.2243  2.4625 -0.1193
15460TIP3    H267796   3.225   2.255  12.752  0.1585  0.1932 -0.1691
15461TIP3   OH267797   1.792   0.067  12.229  0.0183 -0.3264 -0.2328
15461TIP3    H167798   1.822   0.139  12.173 -1.8310  0.1268 -0.7231
15461TIP3    H267799   1.759   0.110  12.308 -0.2320 -0.7216 -0.1180
15462TIP3   OH267800   2.758   0.478  12.378 -0.6580  0.1188  0.7298
15462TIP3    H167801   2.681   0.498  12.432 -1.1261  1.4618 -0.3646
15462TIP3    H267802   2.727   0.487  12.288 -0.1513 -3.0773  0.1269
15463TIP3   OH267803   0.499   0.783   4.522 -0.1071 -0.8703  0.1440
15463TIP3    H167804   0.453   0.710   4.563  0.2532  0.0676  2.3518
15463TIP3    H267805   0.591   0.758   4.523  0.1456 -0.0344  1.8567
15464TIP3   OH267806   2.547   4.154   3.588 -0.2036 -0.6787 -0.3063
15464TIP3    H167807   2.556   4.248   3.570  2.3020 -0.5995  0.9288
15464TIP3    H267808   2.505   4.150   3.674  3.2468 -0.3967  1.6029
15465TIP3   OH267809   6.284   0.549  11.281  0.4386  0.4162 -0.2700
15465TIP3    H167810   6.348   0.541  11.351  1.3896  1.1653 -1.0191
15465TIP3    H267811   6.319   0.617  11.224 -1.0777  0.9103 -0.6618
15466TIP3   OH267812   4.603   4.963   1.641 -0.0544 -0.2695 -0.0216
15466TIP3    H167813   4.681   4.994   1.595  0.3040 -1.5116 -0.2730
15466TIP3    H267814   4.554   5.043   1.659  0.9030  0.4651 -0.5277
15467TIP3   OH267815   5.436   2.439  13.623 -0.0926 -0.7178  0.1233
15467TIP3    H167816   5.341   2.442  13.634 -0.1623 -0.7896 -0.4456
15467TIP3    H267817   5.471   2.482  13.702 -0.5848 -0.9243  0.4577
15468TIP3   OH267818   2.730   2.128  12.399 -0.3670 -0.2626  0.0436
15468TIP3    H167819   2.798   2.086  12.453 -1.4125 -0.9372  0.8725
15468TIP3    H267820   2.772   2.140  12.314  1.2931  0.7262  0.9351
15469TIP3   OH267821   0.493   1.015   3.937 -0.0154 -0.3344  0.0041
15469TIP3    H167822   0.441   1.043   4.013 -0.6511 -1.5392  0.0308
15469TIP3    H267823   0.541   1.094   3.911  1.5701 -0.2789  2.7097
15470TIP3   OH267824   5.062   0.852  10.589 -0.4964 -0.2170 -0.5934
15470TIP3    H167825   4.978   0.889  10.562 -0.3044  0.3727 -0.3969
15470TIP3    H267826   5.056   0.759  10.566  0.2307  0.4583 -4.1064
15471TIP3   OH267827   5.136   4.933  11.242 -0.3276  0.3146  0.0646
15471TIP3    H167828   5.061   4.889  11.201  1.0707 -2.9295  0.6504
15471TIP3    H267829   5.188   4.964  11.169 -0.5072 -0.6053 -0.4739
15472TIP3   OH267830   2.743   0.559  16.736 -0.0669  0.4329 -0.4874
15472TIP3    H167831   2.756   0.623  16.805 -0.1190 -0.2990  0.2165
15472TIP3    H267832   2.830   0.549  16.696 -0.3139  1.8397 -1.4240
15473TIP3   OH267833   5.295   5.770   2.231 -0.4282  0.3689 -0.2642
15473TIP3    H167834   5.306   5.701   2.165 -0.7679 -0.0544  0.1186
15473TIP3    H267835   5.321   5.850   2.185 -0.5477  0.0649 -0.8823
15474TIP3   OH267836   2.451   6.598  14.930 -0.1334  0.3399 -0.0298
15474TIP3    H167837   2.503   6.518  14.927 -0.0926  0.3681 -0.0977
15474TIP3    H267838   2.439   6.621  14.838 -0.8522 -0.0460 -0.0346
15475TIP3   OH267839   1.200   1.296   0.950  0.1166 -0.1126  0.0666
15475TIP3    H167840   1.123   1.255   0.989  0.4389 -1.6520 -0.8177
15475TIP3    H267841   1.172   1.323   0.863  0.3944 -0.1136 -0.0262
15476TIP3   OH267842   2.414   4.803  16.803  0.0892 -0.1716 -0.2126
15476TIP3    H167843   2.427   4.875  16.742 -0.0287  0.7612  0.8230
15476TIP3    H267844   2.493   4.749  16.794 -0.6728 -1.0195 -2.3952
15477TIP3   OH267845   1.017   1.975  12.362  0.7103 -0.0718 -0.1921
15477TIP3    H167846   1.078   1.955  12.432 -0.1150  0.8273  0.8248
15477TIP3    H267847   1.069   2.024  12.298  1.8269 -2.1277 -0.9602
15478TIP3   OH267848   4.623   0.669  14.819  0.0637 -0.1216  0.6618
15478TIP3    H167849   4.632   0.589  14.870  0.8519  0.0224  0.7656
15478TIP3    H267850   4.713   0.694  14.797 -0.2572 -0.2094 -0.8626
15479TIP3   OH267851   3.054   1.589   0.961 -0.4141  0.1269 -0.2783
15479TIP3    H167852   3.097   1.664   1.001  0.5384  0.6800 -2.2207
15479TIP3    H267853   2.971   1.623   0.929 -0.0066  0.3770 -1.1088
15480TIP3   OH267854   2.175   4.628  15.418  0.5725  0.1138  0.2786
15480TIP3    H167855   2.152   4.591  15.333 -1.2673  0.7279  0.4673
15480TIP3    H267856   2.252   4.682  15.400 -0.1115  0.6770 -1.1333
15481TIP3   OH267857   0.928   4.741   1.278  0.1940 -0.2924  0.4974
15481TIP3    H167858   0.872   4.816   1.300  0.5781  0.3862 -0.7089
15481TIP3    H267859   0.941   4.696   1.361  0.6364  1.4669  1.4483
15482TIP3   OH267860   3.165   3.863   3.067 -0.3741 -0.3217 -0.3970
15482TIP3    H167861   3.073   3.850   3.044 -0.8588  0.4874  0.9964
15482TIP3    H267862   3.213   3.804   3.008 -1.8797 -1.9748 -0.0627
15483TIP3   OH267863   1.473   2.967  10.776  0.5068 -0.0186  0.3009
15483TIP3    H167864   1.509   3.055  10.766  0.6085 -0.0342  0.5208
15483TIP3    H267865   1.396   2.966  10.719 -0.5010  0.7705  1.5839
15484TIP3   OH267866   0.499   2.655  16.281 -0.1120  0.2314 -0.0861
15484TIP3    H167867   0.529   2.585  16.222  0.7205  0.7305 -0.2823
15484TIP3    H267868   0.409   2.671  16.255 -0.7394 -1.5916  0.7717
15485TIP3   OH267869   0.075   4.290   5.076  0.0713 -0.5161 -0.4404
15485TIP3    H167870   0.141   4.299   5.007  0.2367 -1.3746 -0.4025
15485TIP3    H267871  -0.006   4.272   5.028 -0.2798  1.0805 -0.5211
15486TIP3   OH267872   1.358   4.195   4.545 -0.1744 -0.0434  0.0883
15486TIP3    H167873   1.271   4.232   4.536  0.2580  0.7350 -1.2025
15486TIP3    H267874   1.406   4.260   4.596 -0.1714 -0.1366  0.2032
15487TIP3   OH267875   3.789   6.272  16.224  0.2303 -0.1869 -0.2426
15487TIP3    H167876   3.884   6.265  16.214  0.4833  0.0634  1.5264
15487TIP3    H267877   3.760   6.326  16.151  1.4585 -0.2520 -0.7915
15488TIP3   OH267878   2.198   2.001   2.641  0.4434  0.7988 -0.0455
15488TIP3    H167879   2.105   1.994   2.622  0.0951  1.7450  1.1467
15488TIP3    H267880   2.233   1.913   2.628 -0.3965  0.6733 -1.5511
15489TIP3   OH267881   3.421   2.543   1.230 -0.6008 -0.1269  0.4986
15489TIP3    H167882   3.471   2.579   1.303  0.0132 -0.1819  0.1200
15489TIP3    H267883   3.358   2.611   1.208 -1.8133 -0.7137  2.0410
15490TIP3   OH267884   5.818   0.065   4.907  0.1118 -0.0868 -0.6047
15490TIP3    H167885   5.786   0.150   4.937  1.0287  0.8630 -2.1440
15490TIP3    H267886   5.887   0.042   4.969 -1.4027 -0.6497  0.9172
15491TIP3   OH267887   4.742   6.564  11.902  0.3451 -0.4584  0.5684
15491TIP3    H167888   4.790   6.607  11.972 -1.2739 -0.1149  1.5109
15491TIP3    H267889   4.679   6.629  11.872  0.3696 -0.9258 -0.5766
15492TIP3   OH267890   3.890   0.162   5.045  0.5033  0.7612  0.2949
15492TIP3    H167891   3.866   0.115   4.965  1.7952 -1.6694  1.2310
15492TIP3    H267892   3.985   0.171   5.039  0.4030  2.2890  0.7005
15493TIP3   OH267893   0.145   6.355   1.227 -0.3639  0.2264  0.2768
15493TIP3    H167894   0.231   6.395   1.242 -0.5383  1.3280 -1.3357
15493TIP3    H267895   0.131   6.299   1.303  2.3129 -0.9400  0.0152
15494TIP3   OH267896   0.332   6.117   2.599  0.1531 -0.1733 -0.7770
15494TIP3    H167897   0.367   6.205   2.587  0.0223 -0.1462 -0.9627
15494TIP3    H267898   0.366   6.089   2.684 -0.0235  0.1628 -0.5936
15495TIP3   OH267899   0.376   1.836  14.245  0.6552  0.1659  0.3568
15495TIP3    H167900   0.395   1.849  14.337  0.3225 -0.7416  0.5631
15495TIP3    H267901   0.328   1.915  14.219  0.6986  0.3970  0.9702
15496TIP3   OH267902   0.606   1.836  12.568 -0.6160 -0.2750  0.0398
15496TIP3    H167903   0.689   1.793  12.584 -0.8202 -0.2621  1.2258
15496TIP3    H267904   0.558   1.828  12.651 -1.0484  1.3446 -0.0139
15497TIP3   OH267905   0.415   5.266  12.215 -0.2244 -0.0068  0.5610
15497TIP3    H167906   0.483   5.244  12.280 -0.8939 -1.7636  0.7293
15497TIP3    H267907   0.357   5.327  12.262 -0.0972 -0.3958  1.2467
15498TIP3   OH267908   4.478   1.420  12.243 -0.4129 -0.1029  0.4842
15498TIP3    H167909   4.503   1.380  12.159  0.8134  0.3998  0.5908
15498TIP3    H267910   4.431   1.350  12.289 -0.8959 -0.4619 -0.5123
15499TIP3   OH267911   0.813   2.810  11.490 -0.5020 -0.1702  1.0545
15499TIP3    H167912   0.827   2.905  11.488 -0.5168 -0.0974 -2.7848
15499TIP3    H267913   0.718   2.800  11.486 -0.5132 -0.3654  1.7478
15500TIP3   OH267914   4.687   5.470  12.935 -0.5404  0.4514  0.1768
15500TIP3    H167915   4.708   5.525  13.011  0.5865 -0.8843  0.8832
15500TIP3    H267916   4.692   5.381  12.968 -2.3092 -0.1200 -0.9497
15501TIP3   OH267917   0.448   2.547   3.041  0.7658  0.5039 -0.1980
15501TIP3    H167918   0.439   2.640   3.018  2.2327  0.7720  0.2310
15501TIP3    H267919   0.511   2.546   3.113 -0.0690 -0.7439  0.5552
15502TIP3   OH267920   6.786   5.124  15.138  0.3510  0.1377  0.5108
15502TIP3    H167921   6.798   5.071  15.059  1.9041 -0.6719  1.2343
15502TIP3    H267922   6.732   5.198  15.110 -2.5951 -2.1654 -0.4051
15503TIP3   OH267923   3.100   4.063  15.424 -0.0618 -0.2706 -0.0732
15503TIP3    H167924   3.057   4.139  15.384 -1.4948 -1.8020 -1.5499
15503TIP3    H267925   3.187   4.060  15.384 -0.1271  0.3580 -0.2697
15504TIP3   OH267926   5.066   6.230  15.667  0.5000  0.2730  0.1089
15504TIP3    H167927   5.156   6.250  15.692  1.4348 -1.1925 -1.7566
15504TIP3    H267928   5.043   6.153  15.719  0.6719  0.1211 -0.0365
15505TIP3   OH267929   0.241   4.042  15.060  0.3393  0.3272 -0.8968
15505TIP3    H167930   0.219   4.135  15.053  0.3023  0.3607 -0.3760
15505TIP3    H267931   0.179   3.998  15.001  0.5051  0.6468 -1.3190
15506TIP3   OH267932   4.325   3.627   5.212  0.1132 -0.0842  0.1809
15506TIP3    H167933   4.316   3.547   5.161 -0.8474  1.0912 -1.5930
15506TIP3    H267934   4.235   3.656   5.227  0.4157  0.1553  1.6868
15507TIP3   OH267935   2.058   4.340   4.367 -0.2925 -0.3088  0.4077
15507TIP3    H167936   2.048   4.245   4.355 -1.0762 -0.3307  1.1576
15507TIP3    H267937   2.040   4.355   4.460 -2.4164  0.8346 -0.1156
15508TIP3   OH267938   0.687   3.862  13.638 -0.1104  0.4112 -0.5493
15508TIP3    H167939   0.682   3.767  13.650  0.1086  0.2264 -1.8145
15508TIP3    H267940   0.771   3.887  13.675 -1.2617  0.5275  2.1949
15509TIP3   OH267941   2.214   4.328   5.226  0.2978 -0.1988  0.0291
15509TIP3    H167942   2.216   4.332   5.130  1.4869  0.4906  0.0723
15509TIP3    H267943   2.303   4.303   5.251  0.1222  0.1099  0.9825
15510TIP3   OH267944   0.505   1.510   6.016  0.2398  0.5912 -0.1971
15510TIP3    H167945   0.441   1.439   6.019  1.8514 -0.9202 -0.1690
15510TIP3    H267946   0.587   1.471   6.046  1.1048  2.5833  0.2314
15511TIP3   OH267947   4.080   5.499  13.093  0.6518  0.1274  0.3561
15511TIP3    H167948   4.124   5.487  13.177 -0.4390  0.4884  0.9980
15511TIP3    H267949   4.078   5.594  13.080  1.3868  0.0564 -0.4122
15512TIP3   OH267950   1.155   5.333  13.600  0.0737 -0.1433  0.3358
15512TIP3    H167951   1.179   5.290  13.518 -0.8388  1.7109 -1.0004
15512TIP3    H267952   1.081   5.282  13.633 -0.0719 -0.4602 -0.4503
15513TIP3   OH267953   5.435   5.664   2.497 -0.4172 -0.4331 -0.1477
15513TIP3    H167954   5.378   5.678   2.422 -0.5699  0.7272  0.1567
15513TIP3    H267955   5.523   5.678   2.463 -0.5641  1.6056  0.1550
15514TIP3   OH267956   1.020   2.132  15.695  0.4970 -0.4244  0.2300
15514TIP3    H167957   1.055   2.219  15.710  2.5408 -1.2681  0.6796
15514TIP3    H267958   1.000   2.129  15.602 -1.2771  1.0499  0.4984
15515TIP3   OH267959   4.451   1.271   0.490  0.0756 -0.1488 -0.3933
15515TIP3    H167960   4.436   1.206   0.422 -0.7200  0.6761 -1.0254
15515TIP3    H267961   4.443   1.222   0.572 -0.7335 -0.8016 -0.8480
15516TIP3   OH267962   2.395   6.336   2.569  0.1752  0.0382 -0.4672
15516TIP3    H167963   2.432   6.394   2.502 -0.2601  0.9154  0.0347
15516TIP3    H267964   2.300   6.345   2.558  0.1065 -0.4964 -0.3073
15517TIP3   OH267965   4.292   1.296  13.927 -0.4160  0.0528  0.4944
15517TIP3    H167966   4.352   1.368  13.910  0.2645 -0.4068  0.8919
15517TIP3    H267967   4.338   1.240  13.989 -0.5042 -1.2576 -0.5695
15518TIP3   OH267968   0.257   0.485   3.152 -0.3390 -0.1873 -0.6740
15518TIP3    H167969   0.237   0.532   3.072 -0.6271  0.2173 -0.3644
15518TIP3    H267970   0.275   0.395   3.124 -1.8036 -0.3791 -1.0364
15519TIP3   OH267971   4.492   1.642  12.945 -0.5633 -0.3566  0.2318
15519TIP3    H167972   4.547   1.668  13.019  0.0038 -0.4339 -0.1530
15519TIP3    H267973   4.452   1.560  12.972 -1.3505  0.2475  0.9459
15520TIP3   OH267974   0.880   2.512   0.685  0.0145 -0.4950 -0.2606
15520TIP3    H167975   0.795   2.490   0.646  1.0007 -1.5582 -1.9800
15520TIP3    H267976   0.891   2.448   0.755 -2.3042  2.1681  2.7940
15521TIP3   OH267977   2.340   0.817   2.668 -0.0491 -0.8040 -0.0015
15521TIP3    H167978   2.429   0.788   2.691 -0.5400 -1.0459  1.7458
15521TIP3    H267979   2.288   0.737   2.670 -0.2636 -0.7099 -1.3415
15522TIP3   OH267980   2.374   5.565  12.249  0.1608 -0.5744 -0.3515
15522TIP3    H167981   2.441   5.632  12.260  0.3618 -1.0236  1.4319
15522TIP3    H267982   2.385   5.507  12.324 -1.1195 -1.6390 -0.9411
15523TIP3   OH267983   0.433   3.950   5.207 -0.0809 -0.3380  0.2535
15523TIP3    H167984   0.428   3.883   5.275 -1.9476 -0.1138  0.3867
15523TIP3    H267985   0.367   4.015   5.233  1.5667  1.4938  0.0431
15524TIP3   OH267986   1.541   3.673   3.880  0.4967 -0.9461  0.1469
15524TIP3    H167987   1.520   3.614   3.953  0.3044  0.7123  1.5129
15524TIP3    H267988   1.628   3.708   3.902  0.9176 -1.2413 -1.0028
15525TIP3   OH267989   1.896   5.211   3.709 -0.1415 -0.1355 -0.2110
15525TIP3    H167990   1.908   5.123   3.675  1.2931 -0.5158  1.1627
15525TIP3    H267991   1.958   5.265   3.660  0.7591 -0.3810  0.6246
15526TIP3   OH267992   0.988   1.051   4.172  0.6719 -0.1069  0.0658
15526TIP3    H167993   0.959   1.010   4.090 -0.6802  0.7004  0.1020
15526TIP3    H267994   1.043   1.124   4.144  0.4177  0.0160 -0.1200
15527TIP3   OH267995   4.191   2.248  15.883  0.1819  0.8649  0.2254
15527TIP3    H167996   4.123   2.301  15.842  0.1268  2.1533  1.8443
15527TIP3    H267997   4.159   2.235  15.973  0.7057 -1.0555  0.1883
15528TIP3   OH267998   6.487   6.340   0.100  0.8252 -0.1229 -0.1125
15528TIP3    H167999   6.491   6.268   0.038 -0.2327  0.5874 -1.0410
15528TIP3    H268000   6.567   6.390   0.083  0.1195  0.5656 -1.5730
15529TIP3   OH268001   5.915   5.797   4.402 -0.0791 -0.4679  0.3407
15529TIP3    H168002   5.921   5.870   4.464 -1.2767 -0.4217  0.4313
15529TIP3    H268003   5.839   5.747   4.432 -0.6328 -0.4909 -1.0404
15530TIP3   OH268004   3.260   4.703  11.376 -0.5801 -0.5416 -0.1232
15530TIP3    H168005   3.232   4.794  11.380 -1.5593 -0.7207 -1.8474
15530TIP3    H268006   3.344   4.706  11.331 -1.8545 -0.6295 -2.7031
15531TIP3   OH268007   2.454   2.005   5.883  0.8254 -0.2114  0.3033
15531TIP3    H168008   2.420   1.997   5.794 -1.0438 -0.0793  0.9699
15531TIP3    H268009   2.515   2.079   5.879  1.1203 -0.5130 -0.9603
15532TIP3   OH268010   6.665   4.068   6.161  0.5289  0.3818  0.3001
15532TIP3    H168011   6.688   3.980   6.188 -0.9820 -0.3371 -0.5705
15532TIP3    H268012   6.569   4.068   6.159  0.4887  2.1216  0.5234
15533TIP3   OH268013   3.938   6.355  16.469 -0.7275 -0.7836  0.4137
15533TIP3    H168014   3.863   6.400  16.507 -0.8656  0.4679 -1.2272
15533TIP3    H268015   3.967   6.412  16.398  1.1689 -1.7180  0.3600
15534TIP3   OH268016   6.170   0.657  16.755 -0.3270 -0.0222 -0.2748
15534TIP3    H168017   6.155   0.622  16.667  1.1513 -1.0421 -0.1452
15534TIP3    H268018   6.140   0.587  16.814 -1.7474  0.8356  0.0787
15535TIP3   OH268019   4.607   6.350  12.711  0.2778 -0.0141  0.3627
15535TIP3    H168020   4.566   6.433  12.736 -1.0779 -0.5852  0.1173
15535TIP3    H268021   4.653   6.321  12.790 -0.4318  0.2879  0.8978
15536TIP3   OH268022   4.510   4.253  15.805 -0.4842  0.4441  0.4087
15536TIP3    H168023   4.515   4.204  15.724 -0.4310  0.3199  0.4869
15536TIP3    H268024   4.422   4.234  15.839 -0.5165  0.5173  0.3671
15537TIP3   OH268025   2.290   0.419  14.829  0.1330 -0.0368  0.0754
15537TIP3    H168026   2.315   0.336  14.788  0.7024  0.9243 -1.6297
15537TIP3    H268027   2.195   0.416  14.835  0.2352 -1.4580  1.5317
15538TIP3   OH268028   5.023   2.148  16.386 -0.0851 -0.4742  0.1698
15538TIP3    H168029   5.030   2.118  16.477  0.4422 -0.5127  0.1221
15538TIP3    H268030   4.930   2.168  16.375 -0.1133 -0.2244  0.7959
15539TIP3   OH268031   4.687   1.089  12.035  0.2303 -0.2818 -0.1607
15539TIP3    H168032   4.705   1.142  11.957 -0.2246 -0.0429 -0.1057
15539TIP3    H268033   4.595   1.065  12.027  0.2879 -0.5988  0.1001
15540TIP3   OH268034   6.256   4.668   2.093 -0.0816  0.1860 -0.3369
15540TIP3    H168035   6.210   4.585   2.105 -1.6305  0.8093 -1.6373
15540TIP3    H268036   6.286   4.691   2.181 -1.8139 -0.5335  0.4983
15541TIP3   OH268037   0.800   3.083   3.408  0.0775 -0.3622 -0.0657
15541TIP3    H168038   0.867   3.147   3.385  0.7410 -0.6008  1.1543
15541TIP3    H268039   0.831   3.043   3.489 -2.3042  0.6552  1.4472
15542TIP3   OH268040   2.118   1.640   6.286  0.6184  0.6629 -0.2082
15542TIP3    H168041   2.156   1.618   6.371  1.1504  1.8793 -0.1005
15542TIP3    H268042   2.061   1.715   6.304 -0.5682 -0.1031 -0.6563
15543TIP3   OH268043   6.415   3.780  11.796  0.2887  0.2911 -0.1993
15543TIP3    H168044   6.322   3.803  11.793  1.0231  3.8164 -0.2298
15543TIP3    H268045   6.434   3.768  11.889 -0.0651  0.0714 -0.1534
15544TIP3   OH268046   4.711   4.656  14.465 -0.2466  0.0773 -0.5059
15544TIP3    H168047   4.641   4.718  14.487 -0.4158 -0.4331  0.4280
15544TIP3    H268048   4.703   4.645  14.370 -0.7957  0.7845 -0.5531
15545TIP3   OH268049   5.788   5.164  14.130  0.1946 -0.2931 -0.3754
15545TIP3    H168050   5.785   5.234  14.065  2.6071  0.0899 -0.1730
15545TIP3    H268051   5.863   5.110  14.104  0.8275 -0.5065  1.6960
15546TIP3   OH268052   1.244   5.697  15.407 -0.2321 -0.4424 -0.4608
15546TIP3    H168053   1.215   5.611  15.378 -0.4842 -0.1140 -1.1942
15546TIP3    H268054   1.262   5.745  15.326  0.0403  0.1495 -0.0569
15547TIP3   OH268055   0.940   6.073   1.983  1.0703 -0.1348  0.0489
15547TIP3    H168056   0.949   6.095   2.076  1.1973 -2.1664  0.5606
15547TIP3    H268057   1.006   6.005   1.968 -0.1285 -1.0890 -1.0940
15548TIP3   OH268058   4.905   4.784  16.137  0.1034  0.0787  0.1428
15548TIP3    H168059   4.988   4.777  16.185  1.0147 -0.1940 -1.4071
15548TIP3    H268060   4.911   4.866  16.088 -1.0995  0.6938  0.9741
15549TIP3   OH268061   6.142   6.026   4.489 -0.0157 -0.0045  0.3955
15549TIP3    H168062   6.051   6.053   4.501 -0.8315 -1.1909 -2.3861
15549TIP3    H268063   6.139   5.930   4.492  0.9074 -0.0955 -0.9184
15550TIP3   OH268064   2.319   2.103   4.201  0.0204 -0.1427 -0.0363
15550TIP3    H168065   2.334   2.191   4.168  1.4395 -0.3668 -0.0348
15550TIP3    H268066   2.284   2.116   4.290 -1.5057  0.4174 -0.6812
15551TIP3   OH268067   0.795   5.945   0.073  0.0696  0.3579  0.6172
15551TIP3    H168068   0.853   5.981   0.140 -2.0513  1.9639  1.7038
15551TIP3    H268069   0.713   5.992   0.084 -0.3817  0.8111 -3.2415
15552TIP3   OH268070   0.409   6.268  13.550 -0.0984 -0.3643 -0.0609
15552TIP3    H168071   0.404   6.287  13.643 -0.1454 -0.6065 -0.0133
15552TIP3    H268072   0.361   6.340  13.508  0.1975 -0.0848  0.0805
15553TIP3   OH268073   1.483   2.435   2.491 -0.6991  0.1493  0.2797
15553TIP3    H168074   1.501   2.370   2.424  0.2388 -0.3043  0.9497
15553TIP3    H268075   1.530   2.514   2.461 -1.5028  0.4060 -0.3278
15554TIP3   OH268076   6.265   1.900  15.120  0.1419  0.1070 -0.3702
15554TIP3    H168077   6.208   1.939  15.053  1.1281  2.3786  0.0111
15554TIP3    H268078   6.236   1.809  15.126 -1.4600  0.4151 -2.2717
15555TIP3   OH268079   0.001   3.042   3.708  0.3793 -0.0127 -0.4608
15555TIP3    H168080   0.018   3.052   3.614  0.3875  0.0546 -0.4518
15555TIP3    H268081  -0.072   2.979   3.711  0.8110 -0.5226 -0.4882
15556TIP3   OH268082   0.449   3.784   0.437  0.1239 -0.6929 -0.0917
15556TIP3    H168083   0.482   3.792   0.526 -2.1270 -0.8772  0.8429
15556TIP3    H268084   0.500   3.714   0.398  1.6110 -0.1544  0.8109
15557TIP3   OH268085   4.111   0.140   0.629  0.4129  0.3655  0.2811
15557TIP3    H168086   4.111   0.231   0.600 -1.0546  1.4304  3.2360
15557TIP3    H268087   4.189   0.133   0.685 -0.7562  0.5514  1.9813
15558TIP3   OH268088   5.896   1.682  12.175 -0.1132 -0.0640  0.4210
15558TIP3    H168089   5.862   1.760  12.219  0.0860  0.8140 -0.9138
15558TIP3    H268090   5.859   1.686  12.087  0.7721 -0.8831 -0.0117
15559TIP3   OH268091   0.145   0.859  17.011  0.4160  0.5733  0.1982
15559TIP3    H168092   0.221   0.915  16.997  1.0688 -0.0680  1.0933
15559TIP3    H268093   0.132   0.860  17.106 -0.0599 -0.1515  0.1423
15560TIP3   OH268094   1.199   5.162   0.305 -0.2932  0.0064  0.0811
15560TIP3    H168095   1.284   5.142   0.344  0.3219  2.8663  0.3848
15560TIP3    H268096   1.141   5.177   0.379 -0.8886 -1.0893 -0.1356
15561TIP3   OH268097   5.732   2.931   0.639  0.3117 -0.4864  0.0382
15561TIP3    H168098   5.745   2.913   0.546 -0.1508  0.4048 -0.2072
15561TIP3    H268099   5.650   2.980   0.643  0.7009  0.1253  0.8338
15562TIP3   OH268100   4.360   1.440   4.414  0.5877 -0.1617 -0.1098
15562TIP3    H168101   4.290   1.481   4.362 -1.3288 -2.1280  0.7766
15562TIP3    H268102   4.344   1.470   4.503  1.7738  0.4914 -0.1045
15563TIP3   OH268103   3.297   0.448  10.932 -0.3971 -0.0434 -0.2582
15563TIP3    H168104   3.251   0.370  10.902 -1.0499 -0.2129  1.1569
15563TIP3    H268105   3.323   0.429  11.022 -1.6129  1.7991  0.5402
15564TIP3   OH268106   5.358   3.858   0.814  0.5245  0.6166 -0.3663
15564TIP3    H168107   5.364   3.914   0.736 -1.3570  1.7391  0.2238
15564TIP3    H268108   5.380   3.916   0.886 -1.9735  0.8003  0.3117
15565TIP3   OH268109   4.404   1.753   2.791  0.3482 -0.2998 -0.0330
15565TIP3    H168110   4.354   1.817   2.740 -1.1772 -1.7836 -0.5285
15565TIP3    H268111   4.495   1.764   2.761  0.1333  1.5693 -0.1067
15566TIP3   OH268112   2.652   2.563   5.418 -0.4665 -0.2396  0.0901
15566TIP3    H168113   2.601   2.484   5.436 -1.5679  0.8293  2.0715
15566TIP3    H268114   2.646   2.614   5.499  2.4654  0.6798 -0.1713
15567TIP3   OH268115   3.178   0.211  10.863  0.5183  0.5274 -0.1162
15567TIP3    H168116   3.270   0.184  10.871  0.8423  2.0191  1.8954
15567TIP3    H268117   3.135   0.136  10.822  2.3319 -0.8515  0.3551
15568TIP3   OH268118   0.229   0.582   5.150  0.5536 -0.4605  0.0681
15568TIP3    H168119   0.282   0.510   5.117 -1.0710 -0.7199 -2.2306
15568TIP3    H268120   0.165   0.541   5.208 -0.1680 -0.8714 -0.9902
15569TIP3   OH268121   3.980   1.404   0.931  0.0364  0.0125 -0.0342
15569TIP3    H168122   3.991   1.336   0.997 -1.4018 -0.6492 -0.4402
15569TIP3    H268123   3.901   1.451   0.958 -0.5720 -0.2621 -1.2563
15570TIP3   OH268124   1.122   4.915  12.748 -0.1860  0.3380  0.2518
15570TIP3    H168125   1.086   4.827  12.754 -1.2227  0.8049  1.4665
15570TIP3    H268126   1.104   4.943  12.658 -0.2895 -0.5004  0.0076
15571TIP3   OH268127   5.742   2.691   3.930 -0.1606 -0.6949 -0.3009
15571TIP3    H168128   5.820   2.679   3.984 -0.6033  0.3921  0.6482
15571TIP3    H268129   5.688   2.615   3.949  0.0106 -0.6884  0.2455
15572TIP3   OH268130   2.789   0.583  13.537  0.5266 -0.3149 -0.1259
15572TIP3    H168131   2.796   0.573  13.442 -0.1487  2.3412 -0.5229
15572TIP3    H268132   2.797   0.494  13.571  2.4807 -1.1796 -2.5453
15573TIP3   OH268133   3.870   6.115  16.637 -0.1913  0.1323 -0.1181
15573TIP3    H168134   3.778   6.110  16.611  0.1478 -0.2820 -1.2887
15573TIP3    H268135   3.900   6.201  16.605 -0.2101  0.3409  0.4127
15574TIP3   OH268136   1.951   5.779   3.592  0.6906 -0.4465  0.0095
15574TIP3    H168137   2.046   5.770   3.582  0.7057  0.5305 -1.0430
15574TIP3    H268138   1.919   5.790   3.502 -0.5668 -1.9750  0.2383
15575TIP3   OH268139   2.770   2.739  16.492  0.1402 -0.6212  0.0074
15575TIP3    H168140   2.773   2.789  16.410  0.0416 -0.4154  0.1284
15575TIP3    H268141   2.842   2.677  16.485  0.3916 -0.3255 -0.0578
15576TIP3   OH268142   2.422   1.672  10.445 -0.5292  0.1291 -0.6562
15576TIP3    H168143   2.454   1.682  10.535 -0.5502  0.3472 -0.6728
15576TIP3    H268144   2.374   1.753  10.428 -0.0183  0.3512 -1.0736
15577TIP3   OH268145   3.865   6.259  14.981  0.2382  0.4788  0.6786
15577TIP3    H168146   3.828   6.304  14.905  2.1275 -0.8230 -1.0983
15577TIP3    H268147   3.790   6.242  15.038 -1.1871  1.7146 -0.7553
15578TIP3   OH268148   3.732   3.632   1.196 -0.3221 -0.1165 -0.2190
15578TIP3    H168149   3.641   3.601   1.195 -0.8470  1.2576  1.1955
15578TIP3    H268150   3.752   3.650   1.104 -0.7334 -2.4238 -0.8107
15579TIP3   OH268151   1.759   5.875   4.539  0.3906 -0.2995 -0.0257
15579TIP3    H168152   1.742   5.915   4.624 -0.0688  0.0820 -0.2952
15579TIP3    H268153   1.855   5.871   4.534  0.4446 -2.0313  1.2928
15580TIP3   OH268154   4.872   6.192  16.168 -0.3613 -1.0573 -0.3183
15580TIP3    H168155   4.857   6.255  16.098  2.1610 -1.7962 -1.6625
15580TIP3    H268156   4.839   6.109  16.135  0.7980 -1.4004 -0.6740
15581TIP3   OH268157   4.435   1.872  12.390 -0.1965 -0.1809  0.0466
15581TIP3    H168158   4.442   1.816  12.312 -0.4124 -0.2911  0.1086
15581TIP3    H268159   4.520   1.917  12.394  0.6462 -1.7810  0.9892
15582TIP3   OH268160   4.010   2.698  15.917 -0.3020  0.0612  0.2152
15582TIP3    H168161   4.088   2.747  15.943 -0.5284  0.0530  0.9194
15582TIP3    H268162   3.937   2.757  15.936 -0.4558  0.2139 -0.7841
15583TIP3   OH268163   1.265   3.983  14.443  0.5472 -0.1871  0.0424
15583TIP3    H168164   1.355   3.959  14.463  1.5754  2.4259 -1.0199
15583TIP3    H268165   1.257   3.972  14.349 -0.1009 -0.0184  0.0733
15584TIP3   OH268166   6.363   0.806   2.544 -0.1993  0.0912 -0.1297
15584TIP3    H168167   6.366   0.741   2.474  2.7442 -0.4564  0.3520
15584TIP3    H268168   6.348   0.755   2.624 -2.2883  0.5731 -0.1664
15585TIP3   OH268169   3.665   0.263   1.207  0.0982  0.0886 -0.2043
15585TIP3    H168170   3.608   0.259   1.131  0.6850 -1.0389 -0.6018
15585TIP3    H268171   3.673   0.173   1.236  0.8476  0.3605  0.4699
15586TIP3   OH268172   0.791   4.874  12.613 -0.8335  0.2464  0.0617
15586TIP3    H168173   0.821   4.801  12.668 -2.0619 -0.5035 -0.2338
15586TIP3    H268174   0.845   4.869  12.535 -0.3014  0.2097  0.4255
15587TIP3   OH268175   1.735   0.647  12.387  0.3265  0.5907 -0.2284
15587TIP3    H168176   1.799   0.639  12.317 -0.4367  0.1332 -0.8880
15587TIP3    H268177   1.660   0.690  12.347  0.4331  1.7049  0.6932
15588TIP3   OH268178   5.652   4.051   1.231  0.0504 -0.3861 -0.2250
15588TIP3    H168179   5.726   4.104   1.263 -1.5232  0.9565  1.4458
15588TIP3    H268180   5.600   4.033   1.309 -0.8870 -2.1515 -1.2016
15589TIP3   OH268181   0.495   2.788   5.651 -0.2930 -0.0697  0.7612
15589TIP3    H168182   0.558   2.796   5.723  0.0466  1.4910  0.3206
15589TIP3    H268183   0.422   2.843   5.677 -0.2109  0.4253 -0.0281
15590TIP3   OH268184   5.348   0.331   1.501  0.6904 -0.8068 -0.1147
15590TIP3    H168185   5.435   0.300   1.527  0.5016 -2.0103 -0.8422
15590TIP3    H268186   5.360   0.364   1.412  0.8118  0.9620  0.5251
15591TIP3   OH268187   4.413   2.273   2.982  0.0497  0.4836  0.1869
15591TIP3    H168188   4.338   2.283   3.040  1.0492  2.1334  1.2930
15591TIP3    H268189   4.409   2.350   2.925 -1.9704 -1.9796 -3.3797
15592TIP3   OH268190   2.954   1.436   0.711 -0.2613  0.2593 -0.1918
15592TIP3    H168191   3.011   1.359   0.707 -0.0153  0.3991  0.4138
15592TIP3    H268192   2.903   1.424   0.791 -1.9657 -0.4504 -1.3376
15593TIP3   OH268193   2.681   1.507   0.875 -0.0387  0.1305  0.0941
15593TIP3    H168194   2.685   1.552   0.960  1.3969  0.1751  0.0234
15593TIP3    H268195   2.679   1.414   0.898  0.2666  0.1441  0.1716
15594TIP3   OH268196   3.449   5.349  15.879  0.0735 -0.0156  0.1980
15594TIP3    H168197   3.388   5.329  15.808  0.4714  0.4112 -0.2743
15594TIP3    H268198   3.532   5.367  15.834 -0.0333  1.7531  0.6575
15595TIP3   OH268199   6.259   4.023  15.413  0.1213  0.3198 -0.4002
15595TIP3    H168200   6.203   4.075  15.355 -1.0729  1.1072  1.3926
15595TIP3    H268201   6.252   4.066  15.498 -0.4147 -2.4037  1.0306
15596TIP3   OH268202   6.626   3.725   0.149  0.0870  0.1332  0.0786
15596TIP3    H168203   6.668   3.662   0.208  0.2513  1.0778  1.0106
15596TIP3    H268204   6.673   3.807   0.165 -0.0218  0.4704 -1.2201
15597TIP3   OH268205   3.148   2.176   5.707  0.1365 -0.2907  0.1636
15597TIP3    H168206   3.218   2.160   5.643  0.7849 -0.2007  0.8324
15597TIP3    H268207   3.120   2.089   5.733 -1.3353 -0.3618 -1.4921
15598TIP3   OH268208   1.808   0.990  13.477 -0.1694 -0.1195  0.1331
15598TIP3    H168209   1.902   0.972  13.470 -0.1463 -0.2228  0.6332
15598TIP3    H268210   1.793   1.065  13.420 -0.0884 -1.1209 -1.2691
15599TIP3   OH268211   5.608   4.802  13.704 -0.3252  0.2634 -0.0895
15599TIP3    H168212   5.592   4.785  13.797 -1.3632  2.2329  0.1318
15599TIP3    H268213   5.698   4.772  13.689  0.0107  0.3287  1.6481
15600TIP3   OH268214   5.050   1.802  13.709 -0.0609 -0.2977  0.1986
15600TIP3    H168215   5.102   1.844  13.641 -0.1185 -0.4729  0.0454
15600TIP3    H268216   4.996   1.738  13.663 -0.7894  0.2314  0.2833
15601TIP3   OH268217   5.420   2.563  14.688  0.3862 -0.4395  0.0648
15601TIP3    H168218   5.477   2.493  14.656 -0.9109 -1.1801 -0.7448
15601TIP3    H268219   5.347   2.518  14.729  0.9894  0.5043  2.3014
15602TIP3   OH268220   3.206   5.780  10.453  0.1965  0.3272  0.1934
15602TIP3    H168221   3.265   5.712  10.487 -1.7739 -1.3938  0.3648
15602TIP3    H268222   3.263   5.855  10.438  2.5370 -1.4122 -0.2344
15603TIP3   OH268223   4.387   0.538  12.413 -0.1291  0.0711 -0.3298
15603TIP3    H168224   4.388   0.573  12.502 -2.8953 -0.0939 -0.1388
15603TIP3    H268225   4.323   0.593  12.367 -0.8040 -1.5572 -1.4158
15604TIP3   OH268226   4.991   1.976  15.199  0.4865 -0.3620  0.5636
15604TIP3    H168227   4.972   1.985  15.106  1.0659  1.2547  0.5768
15604TIP3    H268228   5.034   1.891  15.206  1.8361  0.1539 -0.8941
15605TIP3   OH268229   5.272   5.454   5.682  0.0898  0.1280 -0.0172
15605TIP3    H168230   5.355   5.423   5.717  2.0614  0.6563 -3.6655
15605TIP3    H268231   5.265   5.544   5.713  1.8931  0.6774 -1.0144
15606TIP3   OH268232   1.427   0.678  13.105 -0.1113 -0.7905  0.0575
15606TIP3    H168233   1.376   0.759  13.100  1.8691  0.4639 -2.0964
15606TIP3    H268234   1.365   0.609  13.085 -2.2133 -0.1103  3.3575
15607TIP3   OH268235   5.016   2.936  12.667 -0.2590 -0.2871  0.1032
15607TIP3    H168236   4.979   3.024  12.668 -0.3838 -0.3287 -0.6103
15607TIP3    H268237   4.986   2.898  12.585  1.6617 -0.1866 -0.7056
15608TIP3   OH268238   2.079   4.208  12.271  0.1543  0.1030  0.6922
15608TIP3    H168239   1.985   4.217  12.282  0.1994 -0.1123  1.2690
15608TIP3    H268240   2.112   4.298  12.277  0.0755  0.0892  1.3667
15609TIP3   OH268241   5.926   0.912  17.160  0.4453  0.1727 -0.3452
15609TIP3    H168242   5.974   0.859  17.096 -0.2886 -2.0642  0.8534
15609TIP3    H268243   5.967   0.998  17.155  1.3155 -0.3007 -2.8106
15610TIP3   OH268244   2.481   0.844  14.051 -0.1046 -0.3402 -0.1614
15610TIP3    H168245   2.390   0.874  14.051  0.1997  0.6330  0.5810
15610TIP3    H268246   2.478   0.754  14.084 -0.8592 -0.5660 -0.8214
15611TIP3   OH268247   3.259   1.492  11.419  0.1460  0.1027 -0.4200
15611TIP3    H168248   3.334   1.550  11.430  0.5662 -0.6770  1.1350
15611TIP3    H268249   3.204   1.535  11.354  0.0354  2.6559  1.2418
15612TIP3   OH268250   3.461   3.225   3.301  0.3784  0.0157 -0.0826
15612TIP3    H168251   3.441   3.174   3.379 -1.0480 -1.0830 -1.0958
15612TIP3    H268252   3.438   3.315   3.324 -3.2871 -0.7319 -0.1735
15613TIP3   OH268253   0.229   5.351  13.906  0.0749  0.1480  0.9394
15613TIP3    H168254   0.245   5.378  13.816  0.2406  1.4550  1.3511
15613TIP3    H268255   0.257   5.259  13.908  0.8203  0.3281 -0.1409
15614TIP3   OH268256   3.368   4.951   5.240  0.1518  0.2882  0.7619
15614TIP3    H168257   3.460   4.940   5.264  0.2375  0.9046  0.7259
15614TIP3    H268258   3.362   5.041   5.208 -0.6935  0.6347  1.8253
15615TIP3   OH268259   6.079   6.264  14.429 -0.2732  0.1346  0.3294
15615TIP3    H168260   5.983   6.258  14.428 -0.4003  1.5072  1.6430
15615TIP3    H268261   6.107   6.206  14.358 -2.0680 -0.3228 -0.0561
15616TIP3   OH268262   2.756   3.312   2.384  0.0930 -0.5002 -0.2533
15616TIP3    H168263   2.818   3.360   2.439 -0.5339 -2.1013  2.0176
15616TIP3    H268264   2.811   3.265   2.322  0.9119  0.5040 -0.3334
15617TIP3   OH268265   6.513   5.284   1.641 -0.1086  0.4592 -0.1999
15617TIP3    H168266   6.544   5.330   1.719 -1.4021 -1.0340  1.2686
15617TIP3    H268267   6.436   5.333   1.613 -1.0950 -0.3494  0.9733
15618TIP3   OH268268   3.735   4.729   1.148  0.1400  0.5129  0.2988
15618TIP3    H168269   3.738   4.676   1.227 -0.6359 -0.4862 -0.3058
15618TIP3    H268270   3.645   4.762   1.144 -0.7504 -1.7632 -1.5433
15619TIP3   OH268271   2.442   5.543   0.165  0.0657 -0.1778 -0.2377
15619TIP3    H168272   2.371   5.555   0.101  1.4152  0.5459 -1.6594
15619TIP3    H268273   2.424   5.458   0.204 -2.2899  0.5312  0.3823
15620TIP3   OH268274   4.987   1.265  11.978 -0.2688  0.1800  0.5946
15620TIP3    H168275   4.943   1.324  11.917  0.8927  0.8943  0.4170
15620TIP3    H268276   5.063   1.232  11.930 -1.1770 -1.9586  0.4766
15621TIP3   OH268277   5.354   6.034  13.782 -0.0531 -0.5399 -0.4538
15621TIP3    H168278   5.420   6.069  13.723 -1.3613  2.1868 -0.4295
15621TIP3    H268279   5.297   5.981  13.725  1.6543 -2.3591 -0.5850
15622TIP3   OH268280   1.316   1.118  11.797  0.3534  0.3329 -0.3867
15622TIP3    H168281   1.409   1.119  11.774  0.4256 -0.7121 -0.1888
15622TIP3    H268282   1.273   1.073  11.725  0.2635 -0.8292  0.3639
15623TIP3   OH268283   0.298   0.404  12.706  0.4803 -0.0026  0.1973
15623TIP3    H168284   0.377   0.425  12.656 -0.8508 -2.4631 -3.3530
15623TIP3    H268285   0.236   0.473  12.684  0.2196 -0.5598 -0.9193
15624TIP3   OH268286   5.110   4.882   4.527 -0.1532  0.0960  0.5932
15624TIP3    H168287   5.061   4.858   4.606  1.3926 -0.0183  1.5479
15624TIP3    H268288   5.124   4.976   4.535 -0.5650  0.2060  0.1000
15625TIP3   OH268289   4.514   4.149   3.131 -0.3372 -0.3843  0.1939
15625TIP3    H168290   4.591   4.198   3.102  0.4994 -0.1686  2.5406
15625TIP3    H268291   4.548   4.089   3.197 -1.6193 -3.0320 -1.3732
15626TIP3   OH268292   4.664   2.023   4.264 -0.1831 -0.3424  0.3978
15626TIP3    H168293   4.685   2.017   4.357  0.4190 -0.8782  0.2315
15626TIP3    H268294   4.625   1.938   4.242  1.3474 -0.9245 -0.2362
15627TIP3   OH268295   0.362   5.142   2.601 -0.0798 -0.4549  0.3376
15627TIP3    H168296   0.323   5.060   2.632 -1.3286 -0.5314 -1.3199
15627TIP3    H268297   0.292   5.186   2.554  1.4678  0.0176 -1.6694
15628TIP3   OH268298   4.768   6.778   1.595  0.4241 -0.2047 -0.0372
15628TIP3    H168299   4.754   6.782   1.690  1.0535  0.3532  0.0393
15628TIP3    H268300   4.694   6.825   1.557 -0.8852 -2.0657  0.0618
15629TIP3   OH268301   6.451   0.933  13.029 -0.3006  0.1138 -0.0306
15629TIP3    H168302   6.381   0.958  13.089 -0.2157 -0.4448  0.3096
15629TIP3    H268303   6.450   0.837  13.030  1.5819  0.0454  1.3070
15630TIP3   OH268304   4.553   4.334  10.947 -0.8418  0.2677 -0.0491
15630TIP3    H168305   4.521   4.408  10.999 -0.1555  1.1042 -0.7692
15630TIP3    H268306   4.478   4.309  10.893 -0.8073  1.0946 -0.5024
15631TIP3   OH268307   2.571   1.615   2.339  0.3099 -0.6044 -0.8687
15631TIP3    H168308   2.646   1.585   2.389 -0.3904 -0.0174  0.5864
15631TIP3    H268309   2.533   1.535   2.302  0.1147 -1.2250  0.6010
15632TIP3   OH268310   5.600   0.387  15.078 -0.0043  0.4296 -0.2982
15632TIP3    H168311   5.558   0.411  14.996 -3.3132  1.8987  1.6403
15632TIP3    H268312   5.628   0.470  15.117 -0.4799 -0.0178  1.0420
15633TIP3   OH268313   0.420   3.718   3.257  0.2649  0.1671 -0.0743
15633TIP3    H168314   0.486   3.721   3.327  0.7851  1.0175 -0.5761
15633TIP3    H268315   0.434   3.799   3.209  2.1259 -1.7866 -3.1581
15634TIP3   OH268316   3.246   0.722  13.526 -0.6751  0.0769 -0.2941
15634TIP3    H168317   3.164   0.681  13.555 -0.5249  0.4171  0.6221
15634TIP3    H268318   3.315   0.668  13.565 -0.4703  0.4804 -0.0958
15635TIP3   OH268319   3.930   0.798  13.950 -0.2486  0.4042  0.2406
15635TIP3    H168320   3.856   0.853  13.976 -0.7842 -0.5244  0.7541
15635TIP3    H268321   3.980   0.851  13.888 -1.9508  0.6452 -0.9759
15636TIP3   OH268322   6.393   2.598  16.053 -0.1524  0.2294 -0.2845
15636TIP3    H168323   6.304   2.564  16.041 -0.0692  0.9861 -4.1724
15636TIP3    H268324   6.450   2.526  16.028  0.2482  0.6686 -0.6434
15637TIP3   OH268325   0.762   4.520   4.712  0.0899  0.1980 -0.4563
15637TIP3    H168326   0.775   4.559   4.798 -0.2223 -0.2784 -0.1889
15637TIP3    H268327   0.848   4.525   4.670  1.3052 -2.9946  1.2920
15638TIP3   OH268328   3.169   2.401   0.697 -0.0177  0.0475 -0.4246
15638TIP3    H168329   3.098   2.353   0.656 -0.9025  1.6791 -0.8690
15638TIP3    H268330   3.223   2.432   0.624 -0.1639  0.7757 -0.2363
15639TIP3   OH268331   4.303   1.025  16.741  0.1013  0.5037 -0.1496
15639TIP3    H168332   4.262   0.940  16.730 -0.1574  0.5175  0.6397
15639TIP3    H268333   4.337   1.047  16.654  2.3559 -1.5067  0.1104
15640TIP3   OH268334   5.133   4.640   0.098  0.0828  0.4945 -0.1995
15640TIP3    H168335   5.085   4.722   0.094 -1.5342 -0.3459  0.7869
15640TIP3    H268336   5.146   4.614   0.007 -0.2805  1.3315 -0.4933
15641TIP3   OH268337   1.066   1.142  15.785  0.0536 -0.1658  0.4599
15641TIP3    H168338   1.143   1.103  15.826  0.2298 -0.2726  0.0384
15641TIP3    H268339   1.101   1.192  15.711 -0.2022  0.5534  0.8249
15642TIP3   OH268340   2.892   0.707  14.123  0.3181 -0.2546 -0.4928
15642TIP3    H168341   2.942   0.684  14.201 -0.2975  0.1512  0.0303
15642TIP3    H268342   2.913   0.638  14.059  0.3016 -0.9637  0.2534
15643TIP3   OH268343   6.590   4.682   5.946  0.1447  0.3183 -0.1671
15643TIP3    H168344   6.589   4.604   6.002 -0.3707  0.7283  0.4084
15643TIP3    H268345   6.529   4.742   5.988  1.1691  1.3711 -0.1398
15644TIP3   OH268346   4.008   5.639  14.232 -0.2957  0.3991  0.1215
15644TIP3    H168347   3.935   5.700  14.233 -0.5695  0.1534 -1.5218
15644TIP3    H268348   3.969   5.555  14.207 -0.0019 -0.6120  2.6862
15645TIP3   OH268349   0.827   5.497   1.335  0.0411  0.5257 -0.5439
15645TIP3    H168350   0.906   5.538   1.301  1.2597 -1.5573 -0.4080
15645TIP3    H268351   0.850   5.471   1.424 -1.7424  2.2545  0.5141
15646TIP3   OH268352   4.161   2.204   1.251  0.3650 -0.0210 -0.0164
15646TIP3    H168353   4.216   2.268   1.295  0.2341 -0.5255  0.9033
15646TIP3    H268354   4.221   2.161   1.189  0.2262  1.6129 -1.3497
15647TIP3   OH268355   5.328   6.174   4.049  0.7865 -0.0912 -0.1940
15647TIP3    H168356   5.406   6.119   4.044  0.5066 -0.4800 -0.3951
15647TIP3    H268357   5.267   6.135   3.985  0.4561  0.2469 -0.0916
15648TIP3   OH268358   4.577   2.557   5.554 -0.2237 -0.0580  0.4653
15648TIP3    H168359   4.660   2.541   5.509  0.3160  2.4538  0.3764
15648TIP3    H268360   4.548   2.471   5.584  0.6768 -1.4970 -2.4424
15649TIP3   OH268361   0.935   6.642   0.923  0.3626  0.3486 -0.4116
15649TIP3    H168362   0.934   6.692   0.841 -0.7706  1.6444  0.3422
15649TIP3    H268363   0.854   6.668   0.967  0.8977 -0.4070  1.0677
15650TIP3   OH268364   5.152   6.241   3.090  0.4898  0.0816  0.8373
15650TIP3    H168365   5.238   6.198   3.094  0.6828  0.1818 -1.0246
15650TIP3    H268366   5.152   6.302   3.164  2.2835  0.4930  0.5556
15651TIP3   OH268367   4.470   0.595   6.603 -0.2345  0.8432  0.4213
15651TIP3    H168368   4.558   0.584   6.567 -1.4665  0.5505 -2.8336
15651TIP3    H268369   4.445   0.508   6.632 -0.1430  0.4993 -0.4924
15652TIP3   OH268370   4.596   5.417  15.124  0.4692 -0.0639  0.3967
15652TIP3    H168371   4.683   5.455  15.111 -0.0409  0.8992 -0.3606
15652TIP3    H268372   4.589   5.406  15.219  0.0249  3.3894  0.8971
15653TIP3   OH268373   6.328   2.335  14.368 -0.0059  0.4032 -0.4724
15653TIP3    H168374   6.234   2.320  14.376 -0.0441  0.5634 -0.6388
15653TIP3    H268375   6.357   2.348  14.459 -0.1931  0.6535 -0.4472
15654TIP3   OH268376   4.139   5.718  13.726  0.2864  0.6114  0.3768
15654TIP3    H168377   4.094   5.764  13.655  1.9185  1.2834 -0.2943
15654TIP3    H268378   4.118   5.768  13.804  1.5616  2.2421 -0.2593
15655TIP3   OH268379   6.321   6.474   4.164  0.3505 -0.7703  0.0846
15655TIP3    H168380   6.234   6.509   4.147  0.5247 -0.1967  0.3575
15655TIP3    H268381   6.307   6.407   4.231  0.1424 -0.5577  0.2545
15656TIP3   OH268382   5.665   5.431   0.911 -0.4220  0.2026  0.0263
15656TIP3    H168383   5.726   5.383   0.967 -0.8242  0.3878  0.6291
15656TIP3    H268384   5.669   5.522   0.942 -1.0809  0.1981  0.1453
15657TIP3   OH268385   2.315   5.284   1.643 -0.3151 -0.5425  0.0830
15657TIP3    H168386   2.334   5.243   1.559 -0.1515 -0.2447 -0.0290
15657TIP3    H268387   2.233   5.332   1.628 -0.6481 -1.0409  0.2894
15658TIP3   OH268388   2.408   3.788   5.164  0.9348  0.1132  0.1595
15658TIP3    H168389   2.502   3.810   5.163  0.6079  1.7968  1.5818
15658TIP3    H268390   2.384   3.791   5.256 -0.0721 -2.6265  0.0689
15659TIP3   OH268391   3.873   0.019   0.690 -0.8239  0.3983 -0.2741
15659TIP3    H168392   3.905   0.090   0.745 -0.5627  0.1426 -0.0930
15659TIP3    H268393   3.903   0.042   0.602 -0.2076  0.2067 -0.1221
15660TIP3   OH268394   3.090   4.739  16.681  0.5148 -0.4524 -0.0813
15660TIP3    H168395   3.051   4.786  16.754 -2.1631 -1.9384 -0.4494
15660TIP3    H268396   3.039   4.659  16.673  3.1003 -2.1242 -1.2608
15661TIP3   OH268397   0.465   5.473  14.487  0.4349 -0.3143 -0.4035
15661TIP3    H168398   0.540   5.521  14.522  1.8794 -0.6813 -2.7490
15661TIP3    H268399   0.394   5.537  14.487  0.7659  0.1201  1.6410
15662TIP3   OH268400   0.110   4.811  13.769 -0.5406 -0.0296  0.0234
15662TIP3    H168401   0.115   4.822  13.674 -0.1162 -1.6059 -0.1511
15662TIP3    H268402   0.066   4.727  13.782 -1.4503  0.6002  1.2514
15663TIP3   OH268403   5.253   0.626   2.289  0.5723 -0.0865  0.1499
15663TIP3    H168404   5.234   0.704   2.238  0.0677 -1.1511 -1.3786
15663TIP3    H268405   5.210   0.641   2.373 -1.6547  0.2660 -0.9792
15664TIP3   OH268406   2.196   2.609  16.973 -0.1812 -0.2854 -0.1992
15664TIP3    H168407   2.254   2.590  17.047  2.8214  3.9207 -1.1012
15664TIP3    H268408   2.248   2.589  16.895 -1.3687  0.0936 -1.1334
15665TIP3   OH268409   6.571   1.886  16.245  0.0957  0.4794 -0.3943
15665TIP3    H168410   6.552   1.853  16.157 -0.3916 -0.3455  0.0104
15665TIP3    H268411   6.627   1.962  16.230 -0.2617  0.5585 -1.4350
15666TIP3   OH268412   4.363   6.640  13.401  0.4928 -0.3291 -0.0250
15666TIP3    H168413   4.403   6.568  13.353  0.9673 -1.5581  2.1065
15666TIP3    H268414   4.358   6.609  13.491 -1.0679  1.5860  0.6078
15667TIP3   OH268415   0.349   1.667  11.395  0.3981  0.6482  0.0194
15667TIP3    H168416   0.349   1.739  11.457  0.4604  0.2646  0.4745
15667TIP3    H268417   0.330   1.707  11.310  0.9424  1.2565  0.1855
15668TIP3   OH268418   2.607   2.176   3.063  0.0787 -0.2307 -0.0682
15668TIP3    H168419   2.629   2.105   3.123 -0.6307 -0.4017 -0.0023
15668TIP3    H268420   2.629   2.256   3.110 -0.5165 -0.3616  0.4372
15669TIP3   OH268421   2.171   4.468  12.263 -0.8311  0.8138  0.1743
15669TIP3    H168422   2.247   4.510  12.223 -0.4747 -0.4085 -0.5119
15669TIP3    H268423   2.096   4.510  12.222 -0.4994  1.0900 -0.1607
15670TIP3   OH268424   0.438   4.902   3.476 -0.3401 -0.4719  0.4555
15670TIP3    H168425   0.524   4.938   3.451 -0.8342 -0.1205 -0.8019
15670TIP3    H268426   0.459   4.825   3.530  0.7644 -0.4356  0.0982
15671TIP3   OH268427   1.947   4.724   1.310 -0.0189  0.1125  0.6893
15671TIP3    H168428   2.022   4.678   1.274 -0.9165 -0.3680 -0.6557
15671TIP3    H268429   1.915   4.779   1.238 -1.1930  0.0026  1.0929
15672TIP3   OH268430   6.032   1.685   3.908  0.3383  0.2005 -0.0121
15672TIP3    H168431   6.102   1.619   3.902  0.2287 -0.1152  1.8207
15672TIP3    H268432   5.959   1.646   3.858  0.7404 -0.4291 -0.1297
15673TIP3   OH268433   6.583   5.528  16.479  0.2769  0.2631  0.2436
15673TIP3    H168434   6.573   5.434  16.493 -1.2230  0.1570 -1.3025
15673TIP3    H268435   6.502   5.567  16.512  1.0472  1.0999  1.2529
15674TIP3   OH268436   2.836   1.202  12.984 -0.4333  0.0242 -0.2976
15674TIP3    H168437   2.811   1.284  13.027 -0.2236 -0.5383  0.9370
15674TIP3    H268438   2.754   1.166  12.952 -0.7839 -0.1619  0.7681
15675TIP3   OH268439   4.331   3.351  15.578 -0.0759  0.5549  0.0015
15675TIP3    H168440   4.406   3.338  15.521  1.3197  1.6648  1.5052
15675TIP3    H268441   4.367   3.354  15.667 -2.2595 -2.0428  1.1305
15676TIP3   OH268442   1.492   3.089  16.723 -0.5044  0.3899 -0.5139
15676TIP3    H168443   1.409   3.047  16.744 -0.6206  0.3268 -1.0922
15676TIP3    H268444   1.501   3.078  16.628  1.0027 -1.1544 -0.2487
15677TIP3   OH268445   4.897   5.578  11.307  0.3005  0.0542  0.1193
15677TIP3    H168446   4.882   5.491  11.344  0.1509 -0.3706 -0.9008
15677TIP3    H268447   4.813   5.602  11.268  0.4949  0.4122 -0.0833
15678TIP3   OH268448   0.831   2.938  12.843 -0.0623  0.0505 -0.1241
15678TIP3    H168449   0.885   2.923  12.920  0.2123  0.2784 -0.2670
15678TIP3    H268450   0.894   2.954  12.772 -0.3021 -0.5658 -0.4859
15679TIP3   OH268451   3.950   0.054  15.439  0.0379  0.6557 -0.2854
15679TIP3    H168452   3.940  -0.038  15.466 -0.6105  0.3864 -1.3875
15679TIP3    H268453   3.943   0.103  15.521 -0.1714 -0.2425  0.2584
15680TIP3   OH268454   6.412   3.586   3.248  0.0629 -0.5793 -0.2589
15680TIP3    H168455   6.382   3.537   3.172 -2.3556 -3.0115  2.0315
15680TIP3    H268456   6.493   3.543   3.275  0.4565 -0.2576 -0.8892
15681TIP3   OH268457   5.593   1.532  11.403 -0.1020  0.3526  0.5285
15681TIP3    H168458   5.558   1.580  11.328  1.9179 -1.3312 -1.6509
15681TIP3    H268459   5.685   1.516  11.380 -0.0338 -2.3107  2.2367
15682TIP3   OH268460   4.578   0.954  11.214 -0.4547  0.6815  0.0108
15682TIP3    H168461   4.591   0.897  11.139  0.1230  0.0760  0.5620
15682TIP3    H268462   4.551   0.895  11.285  0.4934  1.0234  0.6814
15683TIP3   OH268463   0.203   6.688  15.363  0.3065  0.9860 -0.5145
15683TIP3    H168464   0.116   6.666  15.329  0.5610  0.0995 -0.6340
15683TIP3    H268465   0.185   6.733  15.446 -0.2720  0.7632 -0.5078
15684TIP3   OH268466   6.450   3.996  12.532 -0.0873  0.6309 -0.0535
15684TIP3    H168467   6.459   4.012  12.437  1.6633 -2.5965 -0.5667
15684TIP3    H268468   6.493   3.912  12.546  1.0638  1.6794  3.9052
15685TIP3   OH268469   2.469   2.568  16.831  0.7104  0.2242 -0.4469
15685TIP3    H168470   2.414   2.564  16.754  1.6587 -0.7521 -1.1017
15685TIP3    H268471   2.543   2.625  16.806  0.7724  0.3127 -0.0842
15686TIP3   OH268472   1.172   0.629  13.282  0.5299  0.1162  0.2316
15686TIP3    H168473   1.250   0.642  13.335 -0.0668 -1.2916  1.5430
15686TIP3    H268474   1.181   0.691  13.209  1.2102  2.4061  2.1576
15687TIP3   OH268475   5.548   1.158  14.158 -0.3223 -0.1135  0.2403
15687TIP3    H168476   5.611   1.211  14.206 -1.3570 -0.0173  1.5577
15687TIP3    H268477   5.590   1.139  14.074  1.2929  0.2280  0.9509
15688TIP3   OH268478   0.662   2.176   2.018  0.1015 -0.7005  0.6051
15688TIP3    H168479   0.568   2.191   2.034 -0.5621 -1.6095 -1.8841
15688TIP3    H268480   0.670   2.177   1.923  2.3320 -2.4194  0.6933
15689TIP3   OH268481   0.673   3.284  13.729  0.4627 -0.3199  0.7136
15689TIP3    H168482   0.682   3.232  13.649  1.0753 -0.2622  0.7353
15689TIP3    H268483   0.690   3.221  13.800  1.1508 -0.1156  0.7420
15690TIP3   OH268484   1.602   3.835   4.642  0.2041 -0.3719 -0.2138
15690TIP3    H168485   1.608   3.880   4.726  1.6990  0.2912 -0.6356
15690TIP3    H268486   1.562   3.750   4.662 -0.9079  0.3895  0.8941
15691TIP3   OH268487   0.413   3.334   4.508  0.7657 -0.0819  0.6926
15691TIP3    H168488   0.348   3.283   4.557  0.0630  0.6264  0.5060
15691TIP3    H268489   0.437   3.278   4.434 -0.2808 -0.0023  0.2805
15692TIP3   OH268490   3.700   5.548   2.173  0.9777 -0.1192  0.1404
15692TIP3    H168491   3.752   5.597   2.237  2.7411 -1.1258 -0.4296
15692TIP3    H268492   3.690   5.461   2.212  2.3703 -0.8563 -1.0161
15693TIP3   OH268493   3.928   4.396  14.253  0.2015  0.2497  0.4034
15693TIP3    H168494   3.839   4.371  14.280  0.4619  0.4194  1.4663
15693TIP3    H268495   3.976   4.313  14.251  0.0524  0.1721 -0.0586
15694TIP3   OH268496   3.073   3.436   4.608  0.3471 -0.2412 -0.0480
15694TIP3    H168497   3.132   3.480   4.547 -0.1806 -0.7213 -0.9304
15694TIP3    H268498   3.111   3.348   4.618  0.2612 -0.2657  0.0559
15695TIP3   OH268499   4.522   4.046   1.403  0.0671  0.0943  0.0055
15695TIP3    H168500   4.591   4.109   1.384  0.0858  0.6727  1.7655
15695TIP3    H268501   4.531   3.979   1.335  3.0268 -0.3899  0.7302
15696TIP3   OH268502   4.411   5.363   4.944 -0.4322  0.0929 -0.6688
15696TIP3    H168503   4.334   5.349   4.889 -0.4637 -1.8895 -0.1963
15696TIP3    H268504   4.479   5.391   4.883 -1.1286  0.4279 -1.3158
15697TIP3   OH268505   0.645   2.382  16.773 -0.3183 -0.3184 -0.6198
15697TIP3    H168506   0.718   2.392  16.833  1.1303 -3.2567 -1.6743
15697TIP3    H268507   0.661   2.447  16.704 -0.0482  0.6585  0.3396
15698TIP3   OH268508   0.450   2.288  11.329  0.0138  0.3509 -0.2366
15698TIP3    H168509   0.384   2.240  11.279 -0.5489  1.0713 -0.2048
15698TIP3    H268510   0.414   2.291  11.418 -0.7947  2.2737 -0.5811
15699TIP3   OH268511   5.076   5.018  12.914  0.1696 -0.2090 -0.2985
15699TIP3    H168512   5.168   5.035  12.936  0.7864 -0.4705 -2.4126
15699TIP3    H268513   5.027   5.080  12.968  1.5111 -0.5325  1.4092
15700TIP3   OH268514   4.533   0.383  15.322 -0.4077  0.2725 -0.2589
15700TIP3    H168515   4.548   0.294  15.289 -2.0900  0.6494 -2.2658
15700TIP3    H268516   4.495   0.370  15.408  0.4828 -0.8939 -0.0101
15701TIP3   OH268517   2.716   6.376  15.508 -0.2591  1.2589  0.1315
15701TIP3    H168518   2.699   6.291  15.467 -1.5538  2.1777 -1.3428
15701TIP3    H268519   2.641   6.389  15.567 -0.4888  1.7377 -0.2646
15702TIP3   OH268520   0.126   4.077  12.361 -0.3639  0.0838  0.4076
15702TIP3    H168521   0.170   4.102  12.280 -0.7580  1.2945  0.5500
15702TIP3    H268522   0.033   4.071  12.336 -0.6763  1.8343  1.0511
15703TIP3   OH268523   3.542   2.787  11.748 -0.3763  0.2754 -0.0944
15703TIP3    H168524   3.553   2.882  11.745 -1.3070  0.4160  0.4680
15703TIP3    H268525   3.447   2.774  11.745 -0.2617 -0.6363 -0.0812
15704TIP3   OH268526   5.729   3.052   3.637  0.5591  0.3091 -0.6970
15704TIP3    H168527   5.824   3.056   3.650  0.5852 -1.6735  0.0270
15704TIP3    H268528   5.694   3.029   3.723 -0.4178 -0.7251 -1.3482
15705TIP3   OH268529   5.386   4.880   4.632 -0.0275 -0.1238  0.1591
15705TIP3    H168530   5.295   4.882   4.603  0.0875  1.3608 -0.1636
15705TIP3    H268531   5.387   4.817   4.705 -1.6470  1.0952  1.2845
15706TIP3   OH268532   5.838   0.373  16.768 -0.0034 -0.0889 -0.1748
15706TIP3    H168533   5.911   0.322  16.732 -0.2397  0.8879 -2.1557
15706TIP3    H268534   5.768   0.363  16.704 -2.0002 -1.7125  2.1092
15707TIP3   OH268535   0.293   5.000   5.513  0.0903  0.7485 -0.0779
15707TIP3    H168536   0.210   4.955   5.524  0.2870  0.1516 -0.9970
15707TIP3    H268537   0.316   5.028   5.602 -1.5493  1.7740  0.0697
15708TIP3   OH268538   2.273   1.151  13.558  0.5049  0.2333  0.2924
15708TIP3    H168539   2.355   1.106  13.578  1.5680  0.6582 -2.7176
15708TIP3    H268540   2.300   1.228  13.508 -1.7757 -0.5556 -2.3567
15709TIP3   OH268541   0.922   5.992   5.843  0.0269  0.4146  0.5450
15709TIP3    H168542   0.982   6.058   5.876 -1.2373  1.4655  0.8130
15709TIP3    H268543   0.849   5.992   5.906 -0.2364 -0.8883  0.2854
15710TIP3   OH268544   2.387   5.244  11.830  0.1989 -0.2527 -0.0674
15710TIP3    H168545   2.360   5.333  11.854  0.9993  0.1536 -0.6380
15710TIP3    H268546   2.305   5.197  11.819 -0.2461 -0.2247  2.5384
15711TIP3   OH268547   3.736   1.526  11.580 -0.3947  0.1022 -0.2784
15711TIP3    H168548   3.663   1.527  11.642 -0.6734  1.7438 -0.5889
15711TIP3    H268549   3.694   1.535  11.494  0.1217  0.1658 -0.5276
15712TIP3   OH268550   4.756   5.923   2.626 -0.4384  0.5011 -0.6278
15712TIP3    H168551   4.788   5.954   2.711 -0.3353 -1.9451  0.3320
15712TIP3    H268552   4.827   5.942   2.565  0.0928  0.9964  0.1297
15713TIP3   OH268553   6.373   4.515   4.234  0.5300  0.1674 -0.1281
15713TIP3    H168554   6.352   4.425   4.208  0.9700 -0.0764  0.3387
15713TIP3    H268555   6.288   4.557   4.245  0.3210 -0.0958 -0.6621
15714TIP3   OH268556   2.395   5.752   4.226 -0.3018  0.0328  0.2737
15714TIP3    H168557   2.436   5.678   4.181 -1.7883 -0.6601 -0.0387
15714TIP3    H268558   2.402   5.730   4.319 -0.5705 -0.4268  0.1909
15715TIP3   OH268559   4.345   1.642  14.269 -0.0835 -0.2786  0.1523
15715TIP3    H168560   4.254   1.633  14.238  0.1270 -0.3158 -0.4730
15715TIP3    H268561   4.337   1.664  14.362 -0.7828  1.6047 -0.3098
15716TIP3   OH268562   4.478   1.112   4.791 -0.3402  0.1243  0.6029
15716TIP3    H168563   4.383   1.124   4.785 -0.2124  0.9475  0.0188
15716TIP3    H268564   4.489   1.034   4.845 -1.4023 -1.7145 -1.6797
15717TIP3   OH268565   5.000   3.046  16.347  0.3038 -0.1165  0.5260
15717TIP3    H168566   5.056   3.119  16.322 -1.1269  0.9501  0.3417
15717TIP3    H268567   4.951   3.077  16.423 -0.9358 -0.5492 -0.0588
15718TIP3   OH268568   5.331   0.486   4.430 -0.4259 -0.5631 -0.0245
15718TIP3    H168569   5.246   0.501   4.473  0.3892  1.4516  1.0753
15718TIP3    H268570   5.385   0.446   4.498  0.6567  1.9703  0.7472
15719TIP3   OH268571   4.710   4.684  15.243 -0.2767 -0.5879  0.4264
15719TIP3    H168572   4.762   4.604  15.243 -1.4265 -1.3458  0.4592
15719TIP3    H268573   4.732   4.727  15.160  0.2396 -1.0018  0.3477
15720TIP3   OH268574   3.678   3.754   5.324 -0.2198 -0.1971 -0.3574
15720TIP3    H168575   3.704   3.846   5.332 -1.2064  0.0862 -0.2554
15720TIP3    H268576   3.654   3.744   5.232 -0.9584 -0.1057 -0.1852
15721TIP3   OH268577   6.258   1.878   3.117 -0.3625 -0.3095  0.2988
15721TIP3    H168578   6.260   1.974   3.109  0.7520 -0.3442 -0.0110
15721TIP3    H268579   6.191   1.861   3.182 -1.3568  0.6312 -0.4378
15722TIP3   OH268580   3.282   4.901   5.532 -0.0994 -0.5551  0.2777
15722TIP3    H168581   3.355   4.905   5.472 -1.6335 -1.1320 -1.7231
15722TIP3    H268582   3.295   4.820   5.581 -0.1598 -1.4215 -1.1056
15723TIP3   OH268583   2.304   5.151  15.664 -0.4614  0.5942 -0.1072
15723TIP3    H168584   2.324   5.148  15.758 -2.4094 -3.5492  0.4057
15723TIP3    H268585   2.225   5.204  15.658 -0.7100  0.3373  0.7159
15724TIP3   OH268586   1.682   4.517  12.442  0.4396 -0.3908  0.3157
15724TIP3    H168587   1.638   4.574  12.379  0.1885 -0.8277  0.0971
15724TIP3    H268588   1.633   4.530  12.524 -0.1792 -0.9612  0.0451
15725TIP3   OH268589   2.873   2.480  11.455 -0.7750 -0.2450 -0.3648
15725TIP3    H168590   2.855   2.452  11.544  0.1658  0.9023  0.2339
15725TIP3    H268591   2.814   2.554  11.440  1.0511  1.5028  0.4648
15726TIP3   OH268592   5.457   6.358  15.008  0.1547 -0.0731 -0.4018
15726TIP3    H168593   5.552   6.368  15.014 -0.0422  2.3363 -0.2520
15726TIP3    H268594   5.429   6.342  15.098  0.2988  0.9716 -0.1559
15727TIP3   OH268595   4.304   4.340   5.381 -0.3379 -0.6614 -0.3864
15727TIP3    H168596   4.394   4.347   5.349  0.2495  4.2862  1.3652
15727TIP3    H268597   4.306   4.384   5.467 -4.1328 -1.9070  0.5364
15728TIP3   OH268598   2.730   0.259  13.981  0.3144  0.0413 -0.2773
15728TIP3    H168599   2.764   0.349  13.974 -0.9416  0.5419 -0.2164
15728TIP3    H268600   2.800   0.211  14.025  0.8992  1.0581 -0.0488
15729TIP3   OH268601   1.873   0.690  16.368 -0.0993  0.9135 -0.3031
15729TIP3    H168602   1.840   0.633  16.299 -0.9729 -0.4027  1.1529
15729TIP3    H268603   1.855   0.779  16.336 -0.7022  0.3320 -1.6511
15730TIP3   OH268604   0.575   5.658   6.214  0.0077 -0.1508  0.4009
15730TIP3    H168605   0.498   5.679   6.161  0.0271  0.1916  0.5050
15730TIP3    H268606   0.610   5.578   6.176  1.7080  1.5937 -1.9651
15731TIP3   OH268607   2.076   6.257   0.980  0.2662  0.5175  0.0403
15731TIP3    H168608   2.024   6.236   1.058  0.2067 -0.4864 -0.2562
15731TIP3    H268609   2.105   6.347   0.994  1.2369 -0.0140  1.7895
15732TIP3   OH268610   4.571   2.601  11.775 -0.0282 -0.0475 -0.2861
15732TIP3    H168611   4.567   2.610  11.870  2.2570  0.1207 -0.1534
15732TIP3    H268612   4.550   2.688  11.741 -0.1689  0.0681  0.0919
15733TIP3   OH268613   4.202   4.870  15.591 -0.2470  0.3285 -0.2214
15733TIP3    H168614   4.197   4.875  15.686 -1.5382 -1.6980 -0.1324
15733TIP3    H268615   4.270   4.805  15.573 -0.2934  0.4008 -0.6805
15734TIP3   OH268616   3.153   4.164   5.924 -0.0661 -0.2305 -0.6152
15734TIP3    H168617   3.210   4.233   5.890 -1.2304 -0.1705 -2.6577
15734TIP3    H268618   3.106   4.204   5.997  1.2103  0.2613 -0.0390
15735TIP3   OH268619   5.322   0.165  12.301  0.2533 -0.1694  0.0028
15735TIP3    H168620   5.328   0.197  12.391  0.4475 -0.2690  0.0271
15735TIP3    H268621   5.276   0.234  12.253 -0.4734 -0.4184  0.3262
15736TIP3   OH268622   6.607   1.868  14.068  0.5386  0.0227 -0.3034
15736TIP3    H168623   6.514   1.865  14.044  0.3832  0.4275  0.2216
15736TIP3    H268624   6.652   1.888  13.986 -0.1169  2.9884 -0.0758
15737TIP3   OH268625   0.520   1.922   3.278 -0.5492 -0.0997  0.1121
15737TIP3    H168626   0.575   1.905   3.354 -0.5673 -2.5405 -0.3251
15737TIP3    H268627   0.571   1.888   3.204 -1.3315  0.4633 -0.7096
15738TIP3   OH268628   4.113   0.151  13.855 -0.0986 -0.4271 -0.0944
15738TIP3    H168629   4.195   0.197  13.870 -0.8442  0.4984  1.4149
15738TIP3    H268630   4.080   0.188  13.773  0.9151 -0.7392 -0.6618
15739TIP3   OH268631   4.613   1.098   0.280 -0.2900 -0.2942 -0.0974
15739TIP3    H168632   4.599   1.020   0.334 -0.8478  0.3366  0.6942
15739TIP3    H268633   4.577   1.075   0.195 -1.6071 -0.4799  0.4854
15740TIP3   OH268634   0.838   3.043   4.059 -0.4805 -0.6322 -0.4291
15740TIP3    H168635   0.852   2.965   4.005  0.3871 -1.3280  0.7592
15740TIP3    H268636   0.858   3.015   4.148 -0.1456  0.9616  0.0337
15741TIP3   OH268637   0.882   3.831  16.731  0.7223  0.0903 -0.1211
15741TIP3    H168638   0.830   3.882  16.793  0.0645  0.4928 -0.9723
15741TIP3    H268639   0.925   3.765  16.784 -1.2437 -0.7431  0.5250
15742TIP3   OH268640   3.650   4.108   5.873  0.2068 -0.2653 -0.2763
15742TIP3    H168641   3.715   4.176   5.892  0.3124 -0.2845 -0.5678
15742TIP3    H268642   3.600   4.142   5.800 -1.0348  0.3742  0.8196
15743TIP3   OH268643   4.954   4.794  12.177  0.7071 -0.3862  0.1124
15743TIP3    H168644   4.908   4.715  12.205  1.0965 -0.7328 -0.2104
15743TIP3    H268645   4.996   4.827  12.256  0.9292 -0.7628  0.1527
15744TIP3   OH268646   1.072   1.347   5.882  0.3951  0.2680 -0.3200
15744TIP3    H168647   1.042   1.428   5.923  2.2806  1.1269 -0.5412
15744TIP3    H268648   1.032   1.277   5.936 -2.3272  1.2396 -0.8972
15745TIP3   OH268649   3.523   0.640   5.279  0.4431 -0.1673  1.1193
15745TIP3    H168650   3.554   0.731   5.279 -2.3851  1.1676 -3.7604
15745TIP3    H268651   3.433   0.646   5.310 -0.7808 -0.6066 -2.0274
15746TIP3   OH268652   1.142   5.404  14.182  0.2148  0.0283  0.1952
15746TIP3    H168653   1.198   5.395  14.260  0.7601 -0.2567 -0.2250
15746TIP3    H268654   1.166   5.330  14.127  0.7860  0.9617 -0.8414
15747TIP3   OH268655   5.098   6.102  14.355 -0.0466  0.0546 -0.4676
15747TIP3    H168656   5.101   6.177  14.414 -0.9745  0.9535 -1.5242
15747TIP3    H268657   5.110   6.026  14.412  1.2236  1.0043  0.5840
15748TIP3   OH268658   1.208   2.301   5.074  0.2409 -0.0994  0.3016
15748TIP3    H168659   1.125   2.268   5.107 -0.4845  0.0186 -1.2999
15748TIP3    H268660   1.204   2.396   5.087 -0.4190  0.0491 -0.8647
15749TIP3   OH268661   6.769   3.066   4.639 -0.0960  0.0621 -0.1617
15749TIP3    H168662   6.773   3.101   4.550  0.8379 -1.3783 -0.7104
15749TIP3    H268663   6.682   3.025   4.644 -0.3328  0.5426 -0.2385
15750TIP3   OH268664   1.528   0.552  13.775 -0.3587 -0.1985  0.3723
15750TIP3    H168665   1.621   0.541  13.794 -0.1562 -1.5431 -1.1679
15750TIP3    H268666   1.490   0.465  13.790 -1.5036  0.4554  1.5155
15751TIP3   OH268667   0.072   5.624  10.928  0.5417 -0.2203  0.2390
15751TIP3    H168668   0.123   5.662  10.856  2.1075  0.6916  1.7698
15751TIP3    H268669  -0.003   5.684  10.939  0.0284 -0.6244 -0.9019
15752TIP3   OH268670   0.209   5.875   3.251  0.0367  0.3757 -0.0993
15752TIP3    H168671   0.237   5.832   3.332  0.9268  0.7674 -0.1819
15752TIP3    H268672   0.245   5.820   3.181  1.4335  1.3623 -0.2049
15753TIP3   OH268673   4.500   3.633   1.457  0.1847  0.5477  0.6706
15753TIP3    H168674   4.412   3.600   1.437 -0.4495  2.4762  0.0374
15753TIP3    H268675   4.496   3.658   1.549 -0.2885  1.5860  0.3850
15754TIP3   OH268676   5.579   4.446   4.451 -0.1571  0.4826 -0.3336
15754TIP3    H168677   5.504   4.473   4.398 -0.3717 -1.4573 -1.1415
15754TIP3    H268678   5.596   4.356   4.422  0.8235 -0.0428  1.7041
15755TIP3   OH268679   2.673   3.019  11.085  0.0257 -0.0788  0.2417
15755TIP3    H168680   2.684   2.929  11.117  0.7022  0.0169  0.3079
15755TIP3    H268681   2.581   3.026  11.062  0.1169 -1.0302 -0.4643
15756TIP3   OH268682   3.370   1.978  15.194 -0.6429  0.0713 -0.3730
15756TIP3    H168683   3.433   2.050  15.196 -1.8148  1.1274  0.0022
15756TIP3    H268684   3.370   1.943  15.283 -2.2416  1.6294  0.3221
15757TIP3   OH268685   4.963   1.133  15.871  0.5026  0.3411 -0.6031
15757TIP3    H168686   4.901   1.100  15.806 -0.4325  1.5701 -0.3930
15757TIP3    H268687   5.044   1.148  15.822 -0.4368  2.0924 -1.7439
15758TIP3   OH268688   3.400   0.391  11.188  0.2850  0.4228  0.3214
15758TIP3    H168689   3.489   0.369  11.216  1.1565  2.3780 -0.7117
15758TIP3    H268690   3.373   0.461  11.247 -0.8629 -0.5986  1.0464
15759TIP3   OH268691   4.903   3.370  13.400  0.3937 -0.4993 -0.0238
15759TIP3    H168692   4.917   3.276  13.404  0.9998 -0.4065  0.0886
15759TIP3    H268693   4.837   3.387  13.468  0.5132 -0.7975  0.1668
15760TIP3   OH268694   3.671   6.786   1.777  0.0929 -0.8268 -0.0383
15760TIP3    H168695   3.661   6.717   1.712  3.9459 -1.7895  0.1437
15760TIP3    H268696   3.686   6.739   1.860  2.2064  0.1547  0.1945
15761TIP3   OH268697   4.213   2.445   2.723  0.1000 -0.8025 -0.4769
15761TIP3    H168698   4.253   2.452   2.636  1.0528 -2.2630 -0.1879
15761TIP3    H268699   4.128   2.403   2.707 -0.7838  1.0775 -0.9394
15762TIP3   OH268700   2.401   4.178  15.826  0.0359  0.4828 -0.0313
15762TIP3    H168701   2.483   4.207  15.787 -0.4233  2.0877  0.1134
15762TIP3    H268702   2.374   4.103  15.773  2.0836 -0.7425  0.5721
15763TIP3   OH268703   4.870   0.438   3.804  0.0618 -0.1648  0.0006
15763TIP3    H168704   4.947   0.392   3.836 -0.4302 -0.5261  0.6826
15763TIP3    H268705   4.893   0.465   3.715  0.8736 -0.4927  0.1073
15764TIP3   OH268706   6.053   0.180  12.282 -0.2230  0.1613  0.2667
15764TIP3    H168707   6.024   0.177  12.190  0.5438  2.6929 -0.1417
15764TIP3    H268708   6.142   0.215  12.278 -0.3267  0.7171  1.9946
15765TIP3   OH268709   5.093   5.857  14.135 -0.3032  0.0588 -0.0206
15765TIP3    H168710   5.042   5.923  14.088  0.6890  0.9473  0.1040
15765TIP3    H268711   5.098   5.890  14.224 -0.2459 -0.4606  0.1702
15766TIP3   OH268712   2.266   2.309  17.196  0.0728 -0.0636  0.1343
15766TIP3    H168713   2.279   2.397  17.162 -0.0618 -0.0585  0.0971
15766TIP3    H268714   2.327   2.255  17.145  1.7333  0.3314  1.6214
15767TIP3   OH268715   1.117   1.804  15.348 -0.5951  0.4993 -0.5049
15767TIP3    H168716   1.077   1.717  15.336 -2.3332  1.3591 -1.1953
15767TIP3    H268717   1.175   1.792  15.424  1.3763 -1.9589 -2.2122
15768TIP3   OH268718   3.484   1.406  11.955  0.0724 -0.7976  0.1646
15768TIP3    H168719   3.471   1.327  12.007 -2.5227  0.1080  1.0017
15768TIP3    H268720   3.569   1.440  11.984 -0.0798 -1.7571  1.8378
15769TIP3   OH268721   4.741   3.007  15.998  0.2034 -0.4359 -0.4514
15769TIP3    H168722   4.718   3.099  15.986 -0.3077 -0.4813  0.1255
15769TIP3    H268723   4.731   2.968  15.910  0.1267 -0.0056 -0.6357
15770TIP3   OH268724   0.474   3.154  13.072  0.0341 -0.0961  0.0791
15770TIP3    H168725   0.481   3.130  13.165 -0.9659  1.0595  0.4736
15770TIP3    H268726   0.382   3.143  13.051  0.4441 -1.5790 -1.1647
15771TIP3   OH268727   5.835   1.902   1.431  0.8521  0.0695  0.1524
15771TIP3    H168728   5.744   1.873   1.434  1.2060 -0.9941  1.5412
15771TIP3    H268729   5.867   1.870   1.346  0.4853 -1.3923  0.5305
15772TIP3   OH268730   4.800   1.988  11.164  0.2764  0.0988  0.3594
15772TIP3    H168731   4.731   2.054  11.171 -0.6421 -0.8254  0.2939
15772TIP3    H268732   4.865   2.014  11.230  0.0244  1.1594  0.2030
15773TIP3   OH268733   0.819   3.711  12.232 -0.6210 -0.4684  0.4049
15773TIP3    H168734   0.836   3.616  12.233  0.2563 -0.3360  2.1381
15773TIP3    H268735   0.754   3.724  12.301 -2.6716 -0.0597 -1.4839
15774TIP3   OH268736   6.727   1.464  16.350  0.7443  0.1420 -0.4428
15774TIP3    H168737   6.698   1.397  16.412 -3.9475 -0.5294 -2.9177
15774TIP3    H268738   6.759   1.414  16.275 -2.4430  0.4640 -2.1573
15775TIP3   OH268739   6.077   1.511  16.763  0.6116 -0.5880 -0.2629
15775TIP3    H168740   5.989   1.491  16.731  0.7824 -1.1963 -0.3703
15775TIP3    H268741   6.098   1.596  16.724 -0.3400  0.0843  0.6259
15776TIP3   OH268742   4.711   1.508   4.480 -0.6160 -0.3231 -0.2367
15776TIP3    H168743   4.703   1.460   4.398  0.4699  0.3083 -0.7379
15776TIP3    H268744   4.644   1.471   4.537 -0.6593 -1.5253 -1.0467
15777TIP3   OH268745   1.230   5.989  11.732  0.7231 -0.1603  0.5250
15777TIP3    H168746   1.239   6.061  11.669 -0.7963 -1.1865 -0.9565
15777TIP3    H268747   1.318   5.953  11.740  1.2806  1.1079  0.3780
15778TIP3   OH268748   3.476   1.102   4.100  0.5838 -0.0870 -0.1391
15778TIP3    H168749   3.477   1.191   4.135  1.3121  0.0334 -0.4569
15778TIP3    H268750   3.428   1.109   4.017 -1.4403 -0.4303  0.9210
15779TIP3   OH268751   5.518   4.307  14.693 -0.3329  0.5876 -0.3490
15779TIP3    H168752   5.431   4.336  14.668 -0.0304  1.3101 -0.6045
15779TIP3    H268753   5.527   4.333  14.785 -0.5849  0.0233 -0.1630
15780TIP3   OH268754   0.120   6.270   6.349  0.2585  0.2212  0.1808
15780TIP3    H168755   0.043   6.302   6.396  0.3798  0.7812  0.0036
15780TIP3    H268756   0.098   6.179   6.327 -0.3643  0.3819  0.1031
15781TIP3   OH268757   5.087   3.364  10.834 -0.0416  0.2415 -0.1700
15781TIP3    H168758   5.097   3.350  10.740 -2.0345 -3.4945 -0.0256
15781TIP3    H268759   4.997   3.394  10.844 -0.0514 -0.0164  0.5687
15782TIP3   OH268760   2.752   4.999  11.917  0.1586  0.4455 -0.1972
15782TIP3    H168761   2.785   5.038  11.999 -0.4630  1.9155 -0.6072
15782TIP3    H268762   2.661   5.029  11.913 -0.2659 -0.8790 -0.6839
15783TIP3   OH268763   3.822   5.723   4.547  0.0568 -0.1373 -0.1280
15783TIP3    H168764   3.752   5.659   4.557 -1.1203  0.9870 -0.9389
15783TIP3    H268765   3.882   5.684   4.484  1.3540 -2.0574  2.1351
15784TIP3   OH268766   1.615   2.237  15.657  0.1237 -0.0333  0.0120
15784TIP3    H168767   1.687   2.209  15.601  0.4913  3.0232 -1.2411
15784TIP3    H268768   1.536   2.206  15.613  0.5141  0.1076 -0.7954
15785TIP3   OH268769   1.253   0.927  16.808  0.3308 -0.6327 -0.5920
15785TIP3    H168770   1.173   0.978  16.800  2.5616  2.8612 -3.8805
15785TIP3    H268771   1.247   0.860  16.739  0.5675  0.2328 -1.4710
15786TIP3   OH268772   6.619   0.147  12.943  0.5957 -0.7947 -0.5589
15786TIP3    H168773   6.704   0.137  12.987  0.6061  0.0516 -0.3735
15786TIP3    H268774   6.630   0.225  12.888 -0.5941  0.3378  0.7552
15787TIP3   OH268775   3.584   2.299   0.742 -0.2475  0.2832 -0.3991
15787TIP3    H168776   3.602   2.393   0.752  0.1985  0.1100  0.5654
15787TIP3    H268777   3.588   2.284   0.647 -0.1083  1.1972 -0.5502
15788TIP3   OH268778   2.925   5.987  12.889  0.3534 -0.1444  0.5301
15788TIP3    H168779   2.938   5.992  12.794  0.9219 -0.3641  0.5863
15788TIP3    H268780   2.838   5.950  12.900  0.3931 -0.3783  0.0875
15789TIP3   OH268781   3.147   5.966  13.820  0.1800 -0.3287  0.3819
15789TIP3    H168782   3.081   5.898  13.808  0.4673 -0.2755 -2.0334
15789TIP3    H268783   3.103   6.047  13.796  0.3859  0.0793  1.3525
15790TIP3   OH268784   6.427   0.311  16.696 -0.2452  0.4224 -0.3049
15790TIP3    H168785   6.396   0.397  16.668  2.0457  0.7754 -2.0368
15790TIP3    H268786   6.368   0.249  16.652 -2.0477  1.0291  1.1323
15791TIP3   OH268787   0.829   3.547   1.724 -0.6411 -0.0597  0.1876
15791TIP3    H168788   0.740   3.561   1.757 -1.4413 -0.4948 -1.6983
15791TIP3    H268789   0.825   3.464   1.678  1.3487 -1.2496  1.9569
15792TIP3   OH268790   2.554   6.545   3.504 -0.0645 -0.0912  0.2633
15792TIP3    H168791   2.549   6.638   3.481 -0.4485 -0.1802 -0.0168
15792TIP3    H268792   2.614   6.507   3.439  2.0112  0.3896  1.7773
15793TIP3   OH268793   4.144   0.029  16.405 -0.0793  0.0772 -0.3090
15793TIP3    H168794   4.083  -0.029  16.360  1.0314 -1.0386 -0.4351
15793TIP3    H268795   4.229  -0.014  16.396  0.3127  0.1714  2.2086
15794TIP3   OH268796   2.085   2.590   3.501  0.4591 -0.4037 -0.4776
15794TIP3    H168797   2.060   2.512   3.552 -0.0246 -0.1505 -0.3301
15794TIP3    H268798   2.167   2.564   3.458  0.6338 -0.7804  0.0682
15795TIP3   OH268799   5.162   0.786  14.784 -0.7601  0.1378 -0.2314
15795TIP3    H168800   5.131   0.802  14.695 -0.3211  0.0016 -0.4143
15795TIP3    H268801   5.104   0.718  14.819 -0.5876 -0.2134 -0.6164
15796TIP3   OH268802   0.306   1.011  11.454  0.0653 -0.0605  0.0043
15796TIP3    H168803   0.400   1.016  11.472  0.8331 -2.4634 -2.6316
15796TIP3    H268804   0.266   0.998  11.540  2.2640 -0.3669  1.0552
15797TIP3   OH268805   0.063   6.167   1.399  0.5399 -0.3926 -1.0023
15797TIP3    H168806   0.042   6.075   1.414 -2.7457  0.3372 -0.4542
15797TIP3    H268807  -0.021   6.208   1.377  2.1482  2.2090 -2.8698
15798TIP3   OH268808   4.273   3.343  12.311 -0.5215  0.3587 -0.4997
15798TIP3    H168809   4.331   3.347  12.235 -1.3984  0.5049 -1.1865
15798TIP3    H268810   4.188   3.372  12.277 -1.6745 -2.3645 -0.1772
15799TIP3   OH268811   2.826   1.087   1.331  0.0645 -0.1950  0.1557
15799TIP3    H168812   2.876   1.133   1.399  0.4469 -0.9467  0.3847
15799TIP3    H268813   2.882   1.088   1.254 -0.7578  1.5180 -0.4767
15800TIP3   OH268814   5.328   1.427  12.572 -0.2412 -0.3789 -0.1682
15800TIP3    H168815   5.343   1.382  12.655 -0.9096 -0.6122 -0.1716
15800TIP3    H268816   5.291   1.512  12.597 -0.3501 -0.4100 -0.2239
15801TIP3   OH268817   5.906   0.569   5.015 -0.0114 -0.0122  0.2338
15801TIP3    H168818   5.898   0.533   5.104 -0.4777 -0.9421 -0.1789
15801TIP3    H268819   5.998   0.594   5.008  0.6581 -2.3312  0.0845
15802TIP3   OH268820   5.370   0.104   5.546 -0.2169 -0.2595  0.1722
15802TIP3    H168821   5.398   0.021   5.508 -1.1179 -1.2596  1.6068
15802TIP3    H268822   5.402   0.170   5.485 -0.4206 -1.7079 -1.5843
15803TIP3   OH268823   3.292   0.193  12.788 -0.0792 -0.4260 -0.2252
15803TIP3    H168824   3.380   0.178  12.823  0.1026  0.2367 -0.3818
15803TIP3    H268825   3.289   0.142  12.707 -0.5734 -2.1316  0.8293
15804TIP3   OH268826   1.838   2.040   2.976  0.2915  0.2234  0.0698
15804TIP3    H168827   1.755   2.086   2.964  0.0404  0.0652  1.0961
15804TIP3    H268828   1.832   2.003   3.064  1.6277  0.5663  0.3242
15805TIP3   OH268829   6.547   0.857   1.464 -0.3031  0.5217  0.2354
15805TIP3    H168830   6.530   0.832   1.555 -0.2919  0.6839  0.2825
15805TIP3    H268831   6.609   0.931   1.471  0.6244 -0.2146  0.0620
15806TIP3   OH268832   6.329   6.242  10.885 -0.4188  0.0524  0.6851
15806TIP3    H168833   6.351   6.204  10.970  1.4231 -0.5579 -0.0193
15806TIP3    H268834   6.246   6.202  10.861  0.5928 -2.2428  0.7898
15807TIP3   OH268835   5.968   6.640   0.878  0.3773 -0.1340 -0.3082
15807TIP3    H168836   5.896   6.613   0.820  0.4466 -0.2820 -0.3247
15807TIP3    H268837   6.001   6.721   0.838  1.7056 -1.2581 -1.5930
15808TIP3   OH268838   4.451   1.706  16.849  0.2824  0.2340 -0.5671
15808TIP3    H168839   4.468   1.631  16.792 -0.9748 -0.7573  0.2986
15808TIP3    H268840   4.393   1.672  16.917  0.0164  1.9028  0.0974
15809TIP3   OH268841   3.041   3.806  16.654 -0.1390 -0.3380 -0.3022
15809TIP3    H168842   2.951   3.774  16.645 -1.0291  1.8436  0.0339
15809TIP3    H268843   3.075   3.806  16.564  0.6387 -3.8696 -0.1485
15810TIP3   OH268844   6.262   3.487  11.469 -0.5979 -0.1386 -0.2553
15810TIP3    H168845   6.352   3.460  11.482  0.0555  1.5998 -0.7952
15810TIP3    H268846   6.212   3.406  11.464  0.9101 -1.1223  0.1647
15811TIP3   OH268847   4.191   5.915   0.809  0.1707 -0.1779  0.3678
15811TIP3    H168848   4.193   6.002   0.769  0.4731 -0.9733 -1.4584
15811TIP3    H268849   4.171   5.855   0.736  1.9425 -1.8494  1.1481
15812TIP3   OH268850   6.643   2.433   4.285  0.2928 -0.1122 -0.3553
15812TIP3    H168851   6.717   2.435   4.345 -0.0533 -0.5225  0.1055
15812TIP3    H268852   6.629   2.524   4.260  0.3866  0.0840  0.2753
15813TIP3   OH268853   2.765   6.577   2.681 -0.1131 -0.3461 -0.1397
15813TIP3    H168854   2.814   6.553   2.759  1.0214  0.4384 -0.5720
15813TIP3    H268855   2.676   6.590   2.711 -0.1612 -2.1425  0.6137
15814TIP3   OH268856   0.607   4.070   1.063 -0.0686  0.0955  0.1142
15814TIP3    H168857   0.610   4.137   0.995  0.2884  1.1095  1.0977
15814TIP3    H268858   0.616   4.118   1.145  1.3161 -1.2360  0.8031
15815TIP3   OH268859   6.331   1.592   3.709  0.1040 -0.1845 -0.1943
15815TIP3    H168860   6.362   1.508   3.743  0.0737 -0.5917 -1.1457
15815TIP3    H268861   6.402   1.653   3.728  0.1830 -0.4523  0.3865
15816TIP3   OH268862   2.689   0.746   5.857 -0.0070  0.1409  0.9350
15816TIP3    H168863   2.617   0.705   5.809 -0.9962  0.2318  2.2942
15816TIP3    H268864   2.712   0.683   5.925 -0.0454  0.8871  1.6497
15817TIP3   OH268865   0.519   6.612   1.895  0.1867 -0.0881  0.8529
15817TIP3    H168866   0.443   6.602   1.837 -0.5091 -0.1087  1.7434
15817TIP3    H268867   0.594   6.593   1.839 -0.3165  1.6228 -0.5130
15818TIP3   OH268868   2.671   0.463   2.948  0.3472  0.3840 -0.6077
15818TIP3    H168869   2.728   0.405   2.897  0.4883  1.4709 -1.7448
15818TIP3    H268870   2.703   0.455   3.038  0.2157 -1.4496 -0.6787
15819TIP3   OH268871   4.931   4.083  14.435  0.4547  0.0928  0.0189
15819TIP3    H168872   4.900   3.997  14.408  0.7082 -0.4700  1.4546
15819TIP3    H268873   5.016   4.068  14.474  0.7805  1.0893 -0.2660
15820TIP3   OH268874   3.317   4.343  15.254  0.0173  0.0715 -0.8265
15820TIP3    H168875   3.263   4.414  15.289 -1.1252 -1.3811  0.5129
15820TIP3    H268876   3.265   4.264  15.270  0.9754 -1.0223 -2.8157
15821TIP3   OH268877   6.019   6.566  11.569 -0.4112 -0.5664 -0.1701
15821TIP3    H168878   6.030   6.656  11.600 -2.5640 -0.6706  1.1123
15821TIP3    H268879   6.071   6.562  11.489  2.7107  0.7353  1.5849
15822TIP3   OH268880   6.165   6.015  17.090 -0.3403 -0.4805 -0.0995
15822TIP3    H168881   6.194   6.055  17.008  0.3961 -2.2338 -0.7266
15822TIP3    H268882   6.186   6.081  17.157 -1.2643  1.1211 -1.3144
15823TIP3   OH268883   4.685   2.126   1.862  0.9803 -0.1713  0.1270
15823TIP3    H168884   4.621   2.183   1.819  0.0241 -0.2782  1.3634
15823TIP3    H268885   4.665   2.132   1.955  2.2067 -0.9104  0.4669
15824TIP3   OH268886   4.593   2.859   1.627 -0.1736  0.0904 -0.1767
15824TIP3    H168887   4.529   2.927   1.650  1.2720  1.7552 -0.8262
15824TIP3    H268888   4.644   2.846   1.707  0.9563  1.4306 -0.6434
15825TIP3   OH268889   5.523   3.308  10.823 -0.6238 -0.3020  0.1576
15825TIP3    H168890   5.614   3.310  10.792 -1.2247 -0.5602 -1.8052
15825TIP3    H268891   5.485   3.230  10.781 -1.3381 -1.2112  2.3314
15826TIP3   OH268892   2.200   6.717  15.807  0.4224 -0.7260  0.5780
15826TIP3    H168893   2.153   6.678  15.881  0.7554 -1.2810  0.4945
15826TIP3    H268894   2.291   6.720  15.834  0.7532 -2.0696 -0.2658
15827TIP3   OH268895   0.326   1.779   5.752  0.5266  0.0353  0.6200
15827TIP3    H168896   0.296   1.869   5.740 -1.7801 -0.5219  1.6260
15827TIP3    H268897   0.290   1.753   5.837 -0.4255 -2.3931 -0.4210
15828TIP3   OH268898   4.952   6.089  14.077 -0.3009 -0.0863 -0.3829
15828TIP3    H168899   5.005   6.137  14.014 -1.7171  1.2102 -0.6401
15828TIP3    H268900   4.989   6.114  14.162 -0.6824  1.0754 -0.5372
15829TIP3   OH268901   2.407   1.524   3.432  0.1709  0.0467 -0.0574
15829TIP3    H168902   2.494   1.489   3.451 -0.8308 -3.2668 -0.9246
15829TIP3    H268903   2.416   1.618   3.444  3.8678 -0.1520 -0.1940
15830TIP3   OH268904   3.751   1.894   0.822 -0.5201 -0.0676  0.3328
15830TIP3    H168905   3.807   1.970   0.840 -1.3841  0.9576 -1.0840
15830TIP3    H268906   3.720   1.866   0.908  1.6553 -0.3147  1.1103
15831TIP3   OH268907   5.490   2.376   0.335 -0.0774  0.2373 -0.2827
15831TIP3    H168908   5.440   2.395   0.255  1.8976 -0.1750 -1.6837
15831TIP3    H268909   5.474   2.452   0.391 -1.7749  0.3892 -0.9214
15832TIP3   OH268910   1.918   4.926  16.808  0.6933  0.4630 -0.7123
15832TIP3    H168911   1.844   4.879  16.848  0.9129  1.1125  0.4730
15832TIP3    H268912   1.991   4.865  16.815  0.2052 -0.3741 -2.3112
15833TIP3   OH268913   3.061   0.716   2.484 -0.0571  0.6715 -0.1189
15833TIP3    H168914   2.970   0.694   2.462  0.1511 -0.7802  0.4161
15833TIP3    H268915   3.114   0.666   2.423  0.4082  1.2508 -0.2031
15834TIP3   OH268916   1.904   5.937   5.334 -0.1560  0.8694 -0.0156
15834TIP3    H168917   1.981   5.991   5.352 -0.4449  0.6842  2.0010
15834TIP3    H268918   1.870   5.970   5.251  2.7870  0.1335 -1.6778
15835TIP3   OH268919   0.639   3.793  16.079  0.3498 -0.1019  0.5033
15835TIP3    H168920   0.611   3.865  16.023 -1.8396 -0.6076  0.8570
15835TIP3    H268921   0.558   3.746  16.101  1.6066 -2.2685  0.8486
15836TIP3   OH268922   2.679   2.589   4.510 -0.4553  0.3596 -0.4708
15836TIP3    H168923   2.622   2.589   4.433  0.7758 -0.6999 -1.4292
15836TIP3    H268924   2.748   2.652   4.490 -0.4032  0.4565 -0.0067
15837TIP3   OH268925   0.103   0.624  12.346  0.2189 -0.1557  0.2432
15837TIP3    H168926   0.115   0.673  12.264  0.2031 -0.2279  0.1977
15837TIP3    H268927   0.153   0.543  12.334 -1.0095 -0.8698 -0.3074
15838TIP3   OH268928   6.507   2.406   2.235 -0.0647  0.1494  0.1613
15838TIP3    H168929   6.459   2.478   2.276  0.4152  0.4356  0.2278
15838TIP3    H268930   6.571   2.379   2.301  0.1253  0.0288 -0.0696
15839TIP3   OH268931   4.636   1.774   2.661  0.1063  0.3916 -0.6895
15839TIP3    H168932   4.583   1.812   2.591 -0.0936  0.9199 -0.2593
15839TIP3    H268933   4.708   1.731   2.616 -0.6912 -0.3581 -1.2917
15840TIP3   OH268934   2.048   5.625   0.849 -0.6045  0.1441 -0.5789
15840TIP3    H168935   2.047   5.720   0.839  0.9192  0.1574 -0.8412
15840TIP3    H268936   2.139   5.600   0.833 -0.5705 -1.1699  1.2821
15841TIP3   OH268937   4.410   2.195  14.309  0.0684  0.8295 -0.5071
15841TIP3    H168938   4.459   2.184  14.227  0.8668 -2.6921  0.2637
15841TIP3    H268939   4.331   2.143  14.298 -0.9537  2.1515  0.2133
15842TIP3   OH268940   3.443   5.522   5.944 -0.1090 -0.1029  0.1366
15842TIP3    H168941   3.397   5.548   6.024  0.3029 -0.4535  0.4924
15842TIP3    H268942   3.536   5.525   5.969 -0.0179 -1.0717 -0.0703
15843TIP3   OH268943   5.741   1.163  13.306 -0.0224 -0.6617 -0.1601
15843TIP3    H168944   5.766   1.134  13.218  0.1622  1.4984 -0.8852
15843TIP3    H268945   5.671   1.104  13.332  1.0701 -2.4337 -1.0220
15844TIP3   OH268946   6.163   1.822   1.321  0.1304  0.0058  0.1631
15844TIP3    H168947   6.100   1.754   1.298  0.0077  0.1960 -0.0661
15844TIP3    H268948   6.129   1.901   1.280  0.7432  0.0217 -0.3205
15845TIP3   OH268949   3.222   1.455  17.058 -0.0352 -0.6977  0.4127
15845TIP3    H168950   3.207   1.544  17.088 -0.1254  0.0382 -1.6666
15845TIP3    H268951   3.244   1.464  16.965 -1.2161 -2.9122 -0.1653
15846TIP3   OH268952   2.059   5.743   5.513 -0.6795  0.3013  0.2166
15846TIP3    H168953   2.005   5.795   5.453  0.2446 -1.0498 -1.9176
15846TIP3    H268954   2.015   5.658   5.515  0.2574 -0.1968  0.0448
15847TIP3   OH268955   2.290   0.071   3.716 -0.0862 -0.0808 -0.3388
15847TIP3    H168956   2.365   0.082   3.658  1.9723  1.1569  2.3596
15847TIP3    H268957   2.302  -0.016   3.754  0.0834  0.1789  0.2086
15848TIP3   OH268958   4.570   3.729   2.889  0.0559 -0.3943  0.1961
15848TIP3    H168959   4.622   3.761   2.963  0.5440 -1.1501  0.1937
15848TIP3    H268960   4.589   3.635   2.886 -0.3928 -0.4666 -0.5459
15849TIP3   OH268961   6.147   4.124   5.537  0.0379 -0.2119  0.2013
15849TIP3    H168962   6.099   4.196   5.580 -0.5053 -1.1946  1.2933
15849TIP3    H268963   6.089   4.097   5.466  0.0703  0.1790  0.0219
15850TIP3   OH268964   1.003   5.399  13.032  0.4275  0.2207  0.3891
15850TIP3    H168965   0.992   5.400  12.937 -1.3054 -0.6100  0.5278
15850TIP3    H268966   1.007   5.306  13.055 -0.4196  0.3611  1.2099
15851TIP3   OH268967   1.297   5.721   4.625 -0.4785  0.1208 -0.3632
15851TIP3    H168968   1.357   5.745   4.555  0.9219 -0.9191  0.4274
15851TIP3    H268969   1.339   5.647   4.669 -1.8767 -0.0141  0.8424
15852TIP3   OH268970   0.360   6.403   2.094 -0.0110 -0.2547  0.7505
15852TIP3    H168971   0.310   6.368   2.020 -2.1807 -0.1277  2.0673
15852TIP3    H268972   0.451   6.390   2.070 -0.6804 -2.2269 -0.9805
15853TIP3   OH268973   0.697   2.988  17.108 -0.4122 -0.0716  0.2973
15853TIP3    H168974   0.789   3.006  17.087 -0.6005  1.5501  0.7176
15853TIP3    H268975   0.648   3.036  17.042 -0.9725 -1.0370 -0.0023
15854TIP3   OH268976   5.047   1.324   0.469 -0.4245  0.1009  0.4670
15854TIP3    H168977   4.990   1.364   0.534  0.2882  0.8636  0.6407
15854TIP3    H268978   5.102   1.263   0.520  0.3932  0.9776  0.6590
15855TIP3   OH268979   3.180   2.328  15.780  0.1153 -0.2742 -0.4546
15855TIP3    H168980   3.275   2.329  15.784  0.1121 -0.6234 -0.2451
15855TIP3    H268981   3.158   2.243  15.742 -0.0620  0.4922 -2.1499
15856TIP3   OH268982   5.756   5.136  15.898  0.4676 -0.3159 -0.6035
15856TIP3    H168983   5.759   5.218  15.946 -1.0718  0.4564 -1.7366
15856TIP3    H268984   5.776   5.160  15.808 -1.9388 -0.7939 -1.3339
15857TIP3   OH268985   4.809   5.653   3.266  0.0644 -0.0302 -0.3479
15857TIP3    H168986   4.729   5.637   3.316 -0.2142 -0.5955 -0.9489
15857TIP3    H268987   4.798   5.741   3.230 -0.2378 -0.0578 -0.3235
15858TIP3   OH268988   6.782   4.527   0.566 -0.3947  0.1060  0.3571
15858TIP3    H168989   6.866   4.573   0.563  0.2637 -1.0531 -2.7728
15858TIP3    H268990   6.801   4.444   0.610  0.1110 -0.1062 -0.2440
15859TIP3   OH268991   4.218   6.405   0.820  0.5793  0.5759 -0.7952
15859TIP3    H168992   4.135   6.377   0.858  1.0129 -0.8293 -0.8209
15859TIP3    H268993   4.201   6.494   0.787 -0.3530  1.0747  0.9026
15860TIP3   OH268994   0.514   2.602   6.145 -0.0799  0.0150 -0.5719
15860TIP3    H168995   0.437   2.550   6.169 -0.8093  1.2332 -0.1481
15860TIP3    H268996   0.588   2.546   6.166 -0.7877 -0.2565  1.4964
15861TIP3   OH268997   6.387   2.286  17.215 -0.3092  0.1262  0.1175
15861TIP3    H168998   6.354   2.330  17.136  0.0173 -0.0422 -0.1173
15861TIP3    H268999   6.421   2.357  17.269 -1.2720  0.3295  0.4770
15862TIP3   OH269000   5.403   3.007   0.398  0.1104 -0.0678  0.1385
15862TIP3    H169001   5.446   3.007   0.484 -1.4776  0.4337  0.9720
15862TIP3    H269002   5.366   3.095   0.390 -0.2711 -0.3040 -0.8136
15863TIP3   OH269003   0.301   3.643   1.070  0.7482 -0.1253  0.0338
15863TIP3    H169004   0.273   3.684   1.152 -1.9430  1.1334 -1.3761
15863TIP3    H269005   0.355   3.710   1.027 -0.8278  0.7102 -0.7457
15864TIP3   OH269006   2.908   1.504   3.591  0.5274 -0.0401  0.5440
15864TIP3    H169007   2.923   1.526   3.683 -1.1085 -2.2382  1.4052
15864TIP3    H269008   2.905   1.409   3.588 -0.3248 -0.0127 -1.6535
15865TIP3   OH269009   3.206   5.430  14.808 -0.0877 -0.2985  0.2782
15865TIP3    H169010   3.138   5.423  14.741  0.0148  0.7088  0.0625
15865TIP3    H269011   3.249   5.513  14.790  1.0764 -0.8347  0.5376
15866TIP3   OH269012   2.740   1.822   1.985  0.9674  0.6092 -0.3174
15866TIP3    H169013   2.772   1.735   1.962 -1.2952 -0.2307 -0.5469
15866TIP3    H269014   2.780   1.840   2.071  2.7627  0.1004 -1.0077
15867TIP3   OH269015   1.393   3.094   0.937 -0.0939 -0.6135 -0.6501
15867TIP3    H169016   1.334   3.019   0.930 -0.2856 -0.5557  0.1900
15867TIP3    H269017   1.335   3.170   0.946 -0.1163 -0.8748  4.1309
15868TIP3   OH269018   3.271   1.081   1.001  0.3558 -0.1022  0.2160
15868TIP3    H169019   3.247   0.989   1.010 -0.2028 -0.2421 -2.0784
15868TIP3    H269020   3.269   1.097   0.907  0.1139  2.3557  0.5762
15869TIP3   OH269021   5.566   2.154  14.381  0.2886 -1.0209  0.6252
15869TIP3    H169022   5.562   2.237  14.429  0.4081 -0.3944 -0.4239
15869TIP3    H269023   5.536   2.175  14.293  1.5771 -1.7959 -0.0332
15870TIP3   OH269024   3.131   1.636   2.895  0.0294 -0.4496 -0.0834
15870TIP3    H169025   3.089   1.561   2.853 -0.9608 -0.7424  1.3241
15870TIP3    H269026   3.195   1.667   2.832  1.5121 -3.3502 -0.1963
15871TIP3   OH269027   3.870   6.403   0.612 -0.3620  0.1367 -0.4531
15871TIP3    H169028   3.808   6.330   0.605 -0.3191  0.0409  0.1171
15871TIP3    H269029   3.935   6.386   0.544  0.2933 -0.9879  0.4190
15872TIP3   OH269030   3.046   0.673  14.319  0.7490  0.4735 -0.3640
15872TIP3    H169031   3.139   0.659  14.302  1.4219  1.6046  1.9068
15872TIP3    H269032   3.025   0.610  14.388 -0.2275  0.1362 -0.9471
15873TIP3   OH269033   2.419   1.118  11.557  0.1142  0.0002  0.1473
15873TIP3    H169034   2.410   1.053  11.627 -0.3640 -1.3355 -1.0830
15873TIP3    H269035   2.505   1.100  11.519  0.1839  0.4181  0.1031
15874TIP3   OH269036   0.283   5.495  14.880  0.0374  0.2672 -0.1575
15874TIP3    H169037   0.376   5.503  14.901 -0.0053 -1.9399  1.1720
15874TIP3    H269038   0.238   5.520  14.960 -0.5477  1.2495 -0.7722
15875TIP3   OH269039   1.583   2.651  14.497 -0.2993 -0.3640  0.0747
15875TIP3    H169040   1.648   2.708  14.538  1.4708 -1.8735 -0.4739
15875TIP3    H269041   1.514   2.711  14.468  0.3220  1.1871  1.5980
15876TIP3   OH269042   4.128   0.436   5.683  0.3505 -1.1683  0.4210
15876TIP3    H169043   4.199   0.489   5.646  0.6100 -1.3207  0.6990
15876TIP3    H269044   4.150   0.427   5.776 -0.9419  0.2866  0.9264
15877TIP3   OH269045   6.574   2.208   4.414  0.1365 -0.1542  0.1136
15877TIP3    H169046   6.592   2.227   4.506 -1.2980 -0.6468  0.5243
15877TIP3    H269047   6.605   2.285   4.367  0.6503  0.2207  1.0390
15878TIP3   OH269048   4.501   2.919   3.422 -0.1814  0.1176 -0.1562
15878TIP3    H169049   4.457   2.964   3.350  0.8595  2.5634  0.6109
15878TIP3    H269050   4.477   2.827   3.412 -2.9914  0.8969 -1.4846
15879TIP3   OH269051   4.437   6.451  16.863  0.4302  0.8053 -0.4841
15879TIP3    H169052   4.377   6.381  16.888 -0.1102  1.2237 -0.5916
15879TIP3    H269053   4.514   6.406  16.829  0.9030  0.2235  1.2305
15880TIP3   OH269054   5.868   3.121   0.221 -0.3663  0.1458  0.1070
15880TIP3    H169055   5.796   3.177   0.192  1.9268  2.3712 -1.7685
15880TIP3    H269056   5.927   3.118   0.146  0.5103 -3.4636  0.7541
15881TIP3   OH269057   5.033   2.046   0.567  0.5012 -0.3919 -0.6241
15881TIP3    H169058   4.947   2.044   0.609  1.3203 -1.8105  1.1010
15881TIP3    H269059   5.021   1.996   0.486 -0.7769  1.2316 -1.4845
15882TIP3   OH269060   5.491   2.548  11.005 -0.2135 -0.7234 -0.0570
15882TIP3    H169061   5.511   2.458  10.981  1.2517 -0.8783  1.5526
15882TIP3    H269062   5.563   2.575  11.062 -0.8649  1.3068 -0.0977
15883TIP3   OH269063   6.148   3.140   2.652 -0.3186 -0.2034  0.8472
15883TIP3    H169064   6.180   3.103   2.735 -0.8174 -3.0406 -0.1187
15883TIP3    H269065   6.064   3.097   2.637 -0.6896  0.9705 -0.6781
15884TIP3   OH269066   3.193   3.065  16.734  0.5281 -0.5073 -0.8679
15884TIP3    H169067   3.154   3.057  16.647 -0.2227  0.1265 -0.5975
15884TIP3    H269068   3.145   3.002  16.788  0.3192 -0.1883 -0.6832
15885TIP3   OH269069   4.113   2.012  13.656 -0.5120 -0.2561 -0.3263
15885TIP3    H169070   4.083   1.932  13.613  0.9662  0.0600 -2.0726
15885TIP3    H269071   4.190   1.985  13.707 -0.1715 -0.0284 -0.7057
15886TIP3   OH269072   5.210   2.496   6.440  0.4228 -0.1753 -0.4842
15886TIP3    H169073   5.115   2.501   6.439  0.0964 -3.8147  0.1296
15886TIP3    H269074   5.230   2.404   6.423  3.7911  0.1533  0.8689
15887TIP3   OH269075   5.794   3.795   0.887 -0.2676 -0.1846  0.1399
15887TIP3    H169076   5.877   3.767   0.848 -1.0160  1.3594 -2.8915
15887TIP3    H269077   5.810   3.885   0.916 -1.0778  0.4930 -1.4042
15888TIP3   OH269078   3.036   4.571  11.901 -0.5811 -0.1099 -0.6485
15888TIP3    H169079   3.049   4.646  11.842 -0.2150  0.2163 -0.1669
15888TIP3    H269080   2.983   4.606  11.972  1.6021  0.3950  0.8421
15889TIP3   OH269081   2.181   6.464   3.659  0.2584 -0.1083 -0.0667
15889TIP3    H169082   2.123   6.447   3.733  1.0765  0.1116  0.6361
15889TIP3    H269083   2.201   6.557   3.665 -1.0609  0.3190 -1.6010
15890TIP3   OH269084   6.261   4.357   1.164 -0.3079  0.1273  0.2342
15890TIP3    H169085   6.276   4.390   1.253  0.2504  1.5634 -0.3583
15890TIP3    H269086   6.166   4.348   1.157 -0.4140  0.8569  0.6880
15891TIP3   OH269087   2.608   3.147   1.794 -0.2937  0.8292  0.6892
15891TIP3    H169088   2.596   3.099   1.876  2.1981 -0.3278  0.4554
15891TIP3    H269089   2.599   3.079   1.726  1.5177  0.9915  0.2543
15892TIP3   OH269090   0.001   3.038  11.291 -0.3278  0.1655  0.0658
15892TIP3    H169091  -0.010   2.998  11.204 -1.5278 -0.5071  0.5047
15892TIP3    H269092   0.095   3.040  11.304 -0.1910 -1.3878 -0.5039
15893TIP3   OH269093   3.646   5.846  11.838 -0.0001  0.0788  0.6048
15893TIP3    H169094   3.594   5.916  11.800  1.5314 -0.6422 -3.2528
15893TIP3    H269095   3.734   5.882  11.845  0.5824 -1.0647 -0.4547
15894TIP3   OH269096   1.662   0.468  12.768 -0.3545  1.0544  0.3230
15894TIP3    H169097   1.607   0.530  12.720  0.5204  0.7771 -1.0925
15894TIP3    H269098   1.730   0.443  12.706  0.3008 -0.0275  1.4280
15895TIP3   OH269099   0.434   4.591   4.317 -0.2137 -0.4499  0.1948
15895TIP3    H169100   0.434   4.678   4.277 -1.7460 -0.8531 -0.8068
15895TIP3    H269101   0.493   4.598   4.392 -1.2382  1.7966  0.8723
15896TIP3   OH269102   1.892   0.145  11.440 -0.8581  0.1639  0.3091
15896TIP3    H169103   1.885   0.238  11.417  2.6889  0.8881  1.4990
15896TIP3    H269104   1.924   0.103  11.361 -2.0146 -0.0270 -0.0857
15897TIP3   OH269105   3.171   4.606  11.616  0.4532  0.7445  0.0458
15897TIP3    H169106   3.198   4.659  11.542  1.0568  1.4351  0.7410
15897TIP3    H269107   3.227   4.635  11.688  0.6555 -0.6998  0.4995
15898TIP3   OH269108   3.678   3.145   5.569 -0.6090  0.6214  0.1118
15898TIP3    H169109   3.741   3.143   5.641 -0.7766  0.9464  0.2747
15898TIP3    H269110   3.620   3.219   5.591 -1.7747 -0.3916  0.5939
15899TIP3   OH269111   2.166   5.085   5.176  0.0089 -0.3015 -0.5338
15899TIP3    H169112   2.105   5.139   5.126  0.3131 -1.6118 -2.4001
15899TIP3    H269113   2.246   5.137   5.181  0.0532 -0.2495 -1.6338
15900TIP3   OH269114   1.525   4.116   5.297 -0.1635  0.2479 -0.0329
15900TIP3    H169115   1.592   4.049   5.311 -1.0262 -0.5842  0.2108
15900TIP3    H269116   1.454   4.071   5.251  0.0747  1.4992 -1.7064
15901TIP3   OH269117   4.804   6.678   1.861  0.2036  0.1963 -0.0614
15901TIP3    H169118   4.829   6.766   1.889 -0.0779  0.2297  0.0837
15901TIP3    H269119   4.723   6.660   1.907  0.6707 -0.4577  0.5338
15902TIP3   OH269120   4.299   4.536  16.889 -0.6674 -0.2489 -0.1629
15902TIP3    H169121   4.340   4.452  16.911 -0.5883 -0.3616 -0.7176
15902TIP3    H269122   4.217   4.536  16.938 -1.1168 -1.0777 -0.8848
15903TIP3   OH269123   0.667   0.420   3.809 -0.6588 -0.4235 -0.6277
15903TIP3    H169124   0.747   0.371   3.827  0.3486  1.2389 -0.3235
15903TIP3    H269125   0.647   0.400   3.717 -1.3396 -2.7734 -0.0371
15904TIP3   OH269126   0.606   6.004  13.874 -0.0432 -0.0770 -0.1016
15904TIP3    H169127   0.656   5.943  13.820  0.4753  0.3851 -0.1606
15904TIP3    H269128   0.516   5.972  13.871  0.6918 -2.8198  2.5622
15905TIP3   OH269129   1.890   1.067  12.754 -0.3221  0.4789  0.0329
15905TIP3    H169130   1.907   1.136  12.819 -2.0264  1.9222 -0.9512
15905TIP3    H269131   1.914   1.107  12.670  1.0742 -1.0722 -0.3519
15906TIP3   OH269132   5.013   1.495   6.037 -0.2345 -0.2206  0.1491
15906TIP3    H169133   4.982   1.556   6.104 -0.5784  0.4749 -0.6351
15906TIP3    H269134   5.091   1.455   6.076 -0.6308 -0.0877  1.1055
15907TIP3   OH269135   2.645   0.406   1.337  0.3680 -0.2721  0.1527
15907TIP3    H169136   2.621   0.344   1.405  3.5405 -0.4500  1.2944
15907TIP3    H269137   2.584   0.390   1.266 -2.8415 -0.3766  2.7213
15908TIP3   OH269138   3.760   5.187   3.654  0.2294  0.3657 -0.3197
15908TIP3    H169139   3.768   5.222   3.742  1.6341  0.7943 -0.5983
15908TIP3    H269140   3.666   5.192   3.635 -0.1064  0.1165  1.1950
15909TIP3   OH269141   2.090   4.683   2.447 -0.4600  0.0503  0.2878
15909TIP3    H169142   2.026   4.754   2.457  0.7309  1.3037 -0.5756
15909TIP3    H269143   2.174   4.728   2.437  0.3259 -1.4843 -0.3659
15910TIP3   OH269144   3.785   2.542   4.460  0.2572  0.1738  0.1042
15910TIP3    H169145   3.851   2.561   4.528  0.7355 -1.8208  0.2534
15910TIP3    H269146   3.713   2.500   4.507 -0.0966  0.1982 -0.4077
15911TIP3   OH269147   6.669   5.796   4.428  0.2179  0.1388  0.0523
15911TIP3    H169148   6.598   5.804   4.492 -0.0685 -0.4124 -0.1900
15911TIP3    H269149   6.737   5.747   4.474  0.5555  0.9077  0.3766
15912TIP3   OH269150   1.048   0.566  15.443  0.4352  0.2984  0.1822
15912TIP3    H169151   1.130   0.521  15.420  2.1785  1.2749  3.7481
15912TIP3    H269152   1.076   0.654  15.469 -1.7770  0.7327  1.2913
15913TIP3   OH269153   5.387   2.394   4.988  0.2543  0.8646 -0.3142
15913TIP3    H169154   5.377   2.438   5.072 -0.5161 -0.5348  0.3682
15913TIP3    H269155   5.298   2.389   4.952  0.6807  2.2334 -1.6656
15914TIP3   OH269156   0.514   4.443  12.972  0.5350 -0.7163  0.0888
15914TIP3    H169157   0.549   4.444  13.061 -0.4617 -1.0481  0.4987
15914TIP3    H269158   0.502   4.350  12.952  0.7976 -0.6442 -0.4107
15915TIP3   OH269159   2.419   0.427   1.631  0.7521 -0.0793 -0.1498
15915TIP3    H169160   2.474   0.349   1.628 -1.3871 -1.6293 -1.0340
15915TIP3    H269161   2.395   0.444   1.540  1.1070  1.6028  0.0310
15916TIP3   OH269162   4.603   0.098   0.986 -0.2765  0.3018 -0.5664
15916TIP3    H169163   4.570   0.050   1.062  0.3398  0.3947 -0.2351
15916TIP3    H269164   4.553   0.180   0.986  0.0636  0.5155  0.0305
15917TIP3   OH269165   4.689   3.100   0.968 -0.0645 -0.0919 -0.5165
15917TIP3    H169166   4.639   3.018   0.975  0.7690 -0.5069  1.5358
15917TIP3    H269167   4.779   3.071   0.952 -0.1107  0.5583 -2.1078
15918TIP3   OH269168   4.263   6.237  14.869 -0.1049 -0.4059  0.4191
15918TIP3    H169169   4.277   6.279  14.954 -2.4373 -0.0536  0.7056
15918TIP3    H269170   4.262   6.310  14.806  1.1877 -0.6258  0.1017
15919TIP3   OH269171   0.391   3.355  13.319 -0.0538  0.0256 -0.0547
15919TIP3    H169172   0.389   3.365  13.224  1.2914 -0.6308 -0.1787
15919TIP3    H269173   0.465   3.297  13.336 -1.0676 -0.9541  1.3194
15920TIP3   OH269174   3.258   1.326  15.865  0.2248 -0.0330  0.0268
15920TIP3    H169175   3.244   1.419  15.849 -0.8322 -0.0383  0.8100
15920TIP3    H269176   3.344   1.321  15.907 -0.4495  0.8010  1.5838
15921TIP3   OH269177   6.474   2.714  12.563 -0.3421 -0.0107  0.1072
15921TIP3    H169178   6.485   2.809  12.553  1.3455 -0.1939 -0.0341
15921TIP3    H269179   6.561   2.678  12.547 -0.3190 -1.3674  2.7383
15922TIP3   OH269180   0.471   5.987   6.524  0.0205 -0.1367 -0.5369
15922TIP3    H169181   0.446   6.073   6.489 -4.2700 -0.5427  0.8898
15922TIP3    H269182   0.505   6.005   6.611 -0.5367  0.1922 -0.3790
15923TIP3   OH269183   4.167   3.023  15.247  0.1518 -0.0556  0.0574
15923TIP3    H169184   4.102   3.093  15.252  0.2058 -0.0322  0.5252
15923TIP3    H269185   4.115   2.942  15.252  0.0255 -0.0728 -1.2399
15924TIP3   OH269186   2.923   6.772  14.378 -0.2756 -0.4236  0.0633
15924TIP3    H169187   2.854   6.738  14.435  0.6622  0.6493  1.9386
15924TIP3    H269188   2.957   6.849  14.424  0.8282  0.2681 -1.7690
15925TIP3   OH269189   3.005   0.803  12.065  0.4898  0.2891 -0.5151
15925TIP3    H169190   2.916   0.826  12.041  0.5148  1.2835  0.2854
15925TIP3    H269191   3.011   0.708  12.049 -1.1985 -0.0962  0.8795
15926TIP3   OH269192   4.970   2.336  11.926 -0.2847  0.0703 -0.2921
15926TIP3    H169193   4.976   2.256  11.874 -1.8691 -0.0245 -0.4025
15926TIP3    H269194   5.060   2.361  11.944  0.2788 -2.4868  0.9133
15927TIP3   OH269195   0.893   5.529  14.153 -0.6300 -0.3068 -0.3143
15927TIP3    H169196   0.976   5.483  14.142  0.1911  0.6806  1.2419
15927TIP3    H269197   0.865   5.551  14.065  1.0210 -0.2506 -0.8506
15928TIP3   OH269198   4.349   0.185   3.641  0.2183 -0.0923  0.0083
15928TIP3    H169199   4.297   0.245   3.694  1.0167  0.4836  0.1500
15928TIP3    H269200   4.419   0.239   3.605  1.6607 -1.1480  1.1002
15929TIP3   OH269201   4.639   3.053  14.313  0.0563  0.4072 -0.3989
15929TIP3    H169202   4.585   3.020  14.241 -0.9657  1.7310 -0.2837
15929TIP3    H269203   4.595   3.024  14.392  0.7452 -0.3676 -0.2815
15930TIP3   OH269204   0.907   1.608  15.958 -0.1735 -0.4117 -0.1439
15930TIP3    H169205   0.868   1.545  15.898 -0.6777  1.3936 -1.8120
15930TIP3    H269206   0.977   1.649  15.907 -1.4417  2.0805  0.0042
15931TIP3   OH269207   1.066   0.178  10.781  0.1828  0.5645 -0.3262
15931TIP3    H169208   1.131   0.248  10.769  0.5578  0.3357  0.3343
15931TIP3    H269209   0.982   0.224  10.787  0.4177  0.9567  0.0336
15932TIP3   OH269210   4.510   4.774   5.276 -0.1273  0.4757  0.5009
15932TIP3    H169211   4.547   4.862   5.277 -1.1112  0.9139 -0.4274
15932TIP3    H269212   4.419   4.787   5.251 -0.1906 -0.8469  0.0051
15933TIP3   OH269213   6.356   5.656  12.643 -0.0574  0.3766  0.1676
15933TIP3    H169214   6.272   5.619  12.615 -0.3438  0.9828  0.2089
15933TIP3    H269215   6.418   5.627  12.577 -0.0368 -1.1525  0.8200
15934TIP3   OH269216   4.534   4.838  14.516  0.1750 -0.3434 -0.1880
15934TIP3    H169217   4.586   4.901  14.567 -1.8847 -0.6814  2.6175
15934TIP3    H269218   4.445   4.876  14.516 -0.2250 -1.1639 -2.3000
15935TIP3   OH269219   3.522   0.514   2.198 -0.3362  0.0694 -0.6138
15935TIP3    H169220   3.498   0.439   2.144 -1.4119  0.0104 -0.0764
15935TIP3    H269221   3.469   0.505   2.277  2.1290 -0.5885  1.1027
15936TIP3   OH269222   0.666   0.346  16.627  0.0355 -0.0270  0.3123
15936TIP3    H169223   0.653   0.429  16.673 -1.4935  0.3849 -0.7889
15936TIP3    H269224   0.645   0.279  16.693  1.4269  0.4284  1.2488
15937TIP3   OH269225   0.257   2.976  17.179 -0.3327 -0.2671  0.2888
15937TIP3    H169226   0.347   2.946  17.190 -0.2714  0.3258  1.6224
15937TIP3    H269227   0.223   2.984  17.269 -1.6024 -0.1551 -0.1762
15938TIP3   OH269228   2.183   5.881  16.149 -0.2734  0.4031 -0.0010
15938TIP3    H169229   2.188   5.789  16.122  1.2176  0.7809 -1.1349
15938TIP3    H269230   2.091   5.903  16.143 -0.2951 -0.0743 -3.1524
15939TIP3   OH269231   1.854   2.764  16.800  0.2733  0.5534 -0.3461
15939TIP3    H169232   1.827   2.757  16.709 -0.4178 -0.4019 -0.0859
15939TIP3    H269233   1.797   2.831  16.837 -1.7585 -1.3223  0.1537
15940TIP3   OH269234   4.235   5.820  15.123  0.7155 -0.1138 -0.1911
15940TIP3    H169235   4.304   5.789  15.181  1.3825  1.9728  0.2035
15940TIP3    H269236   4.281   5.846  15.043  0.3975  1.2112  0.0378
15941TIP3   OH269237   4.177   4.939   3.283  0.1142 -0.0234  0.9302
15941TIP3    H169238   4.236   4.934   3.208  1.2465 -0.6145  1.8323
15941TIP3    H269239   4.090   4.953   3.245  0.9721  2.0853 -0.3836
15942TIP3   OH269240   1.405   5.376   4.991  0.4684  0.3753 -0.1946
15942TIP3    H169241   1.319   5.357   5.029  0.8533 -0.2965  0.3506
15942TIP3    H269242   1.385   5.425   4.911 -0.4044  0.6297  0.1624
15943TIP3   OH269243   0.977   0.738  16.341  0.3896  0.7966 -0.0122
15943TIP3    H169244   1.005   0.693  16.420  0.8077  0.8886 -0.1038
15943TIP3    H269245   1.030   0.698  16.271  2.2675  2.7828  0.1740
15944TIP3   OH269246   3.835   1.026  12.461 -0.1062 -0.4386  0.5611
15944TIP3    H169247   3.795   0.954  12.508 -2.5872  0.3491 -0.1943
15944TIP3    H269248   3.763   1.066  12.412  1.3971  1.8048  0.0149
15945TIP3   OH269249   1.292   2.840   5.676 -0.6143 -0.8277  0.8604
15945TIP3    H169250   1.380   2.875   5.662 -0.8401 -0.0932  1.2069
15945TIP3    H269251   1.304   2.745   5.679  0.0729 -0.7696  0.2888
15946TIP3   OH269252   5.743   1.174   4.080  0.1575 -0.2881 -0.6767
15946TIP3    H169253   5.649   1.170   4.096  0.6665 -0.7780  2.8274
15946TIP3    H269254   5.768   1.084   4.062  0.1887 -0.3956 -0.0862
15947TIP3   OH269255   4.521   2.869  13.525 -0.2047 -0.2027 -0.5679
15947TIP3    H169256   4.446   2.870  13.583 -0.5349 -1.6925 -0.9232
15947TIP3    H269257   4.485   2.846  13.439  0.5016  0.2016 -0.9862
15948TIP3   OH269258   4.155   5.656  13.333  0.2283  0.2105 -0.1561
15948TIP3    H169259   4.062   5.662  13.313  0.1157  0.8392  0.5522
15948TIP3    H269260   4.172   5.726  13.395  1.6558  1.6915 -2.0851
15949TIP3   OH269261   1.391   2.753  11.715 -0.0261  0.0669 -0.0404
15949TIP3    H169262   1.350   2.702  11.645  1.8907  1.9266 -2.7191
15949TIP3    H269263   1.320   2.804  11.752 -1.5033 -2.5146  0.9777
15950TIP3   OH269264   2.047   4.311   0.943  0.5595 -0.7899  0.0526
15950TIP3    H169265   2.069   4.400   0.916  0.6806 -0.2506  1.7608
15950TIP3    H269266   2.066   4.256   0.867  0.0058  0.6947 -1.2061
15951TIP3   OH269267   2.598   0.490  16.273 -0.0336  0.1813 -0.3711
15951TIP3    H169268   2.693   0.481  16.264  0.0033 -0.2122  0.3567
15951TIP3    H269269   2.563   0.451  16.192  0.3998 -0.3308 -0.3243
15952TIP3   OH269270   6.631   3.227  16.745  0.3046 -0.3798  0.0208
15952TIP3    H169271   6.584   3.270  16.816 -0.8679  1.7902 -1.9153
15952TIP3    H269272   6.722   3.226  16.773 -0.0044  1.2485  1.2006
15953TIP3   OH269273   5.965   6.119   6.068 -0.2951  0.2844  0.3246
15953TIP3    H169274   6.036   6.113   6.004  0.6726 -1.9344  1.4894
15953TIP3    H269275   5.909   6.189   6.035  0.9893  0.2842 -2.0921
15954TIP3   OH269276   1.816   4.272  12.317 -0.1608  0.8257  0.1468
15954TIP3    H169277   1.740   4.293  12.373  1.2484  0.0453  2.5152
15954TIP3    H269278   1.779   4.225  12.243 -1.9096 -1.1155  2.0976
15955TIP3   OH269279   3.376   1.427  12.521 -0.5126 -0.0306 -0.4506
15955TIP3    H169280   3.442   1.359  12.506 -0.7847 -0.6867  1.1288
15955TIP3    H269281   3.415   1.481  12.590 -0.5657  1.0772 -1.2683
15956TIP3   OH269282   2.150   5.873   4.354  0.1321  0.5061 -0.2457
15956TIP3    H169283   2.228   5.845   4.306 -1.2685 -1.3832 -1.5565
15956TIP3    H269284   2.131   5.800   4.414 -1.6968  0.0126 -1.3467
15957TIP3   OH269285   3.121   1.110   5.334 -0.2537  0.3856 -0.0074
15957TIP3    H169286   3.051   1.172   5.316 -0.0478  0.6737  0.1732
15957TIP3    H269287   3.202   1.160   5.320 -0.0881  0.2774  0.5173
15958TIP3   OH269288   6.331   2.089  13.995 -0.2723  0.2133 -0.0204
15958TIP3    H169289   6.266   2.045  13.940  0.1931 -1.8000  0.9451
15958TIP3    H269290   6.400   2.116  13.934 -0.6679 -0.2144 -0.6704
15959TIP3   OH269291   3.634   5.512   4.549  0.1543 -0.4073  0.6185
15959TIP3    H169292   3.585   5.453   4.491  0.3550  0.4745 -0.4764
15959TIP3    H269293   3.586   5.508   4.632 -1.0459 -0.5550 -0.0481
15960TIP3   OH269294   5.490   5.050  14.104 -0.2760 -0.1363 -0.0577
15960TIP3    H169295   5.557   4.990  14.139 -1.4656 -0.6221  1.4696
15960TIP3    H269296   5.541   5.118  14.059  1.1758 -1.4005 -0.4285
15961TIP3   OH269297   0.327   1.717   2.390 -0.0985 -0.4439  0.0247
15961TIP3    H169298   0.366   1.742   2.307  0.6288 -3.1213 -0.5293
15961TIP3    H269299   0.246   1.671   2.367 -1.3070  1.0762  0.9783
15962TIP3   OH269300   4.638   1.721   4.014 -0.6899  0.0841  0.7659
15962TIP3    H169301   4.569   1.722   3.947  0.3630 -0.5232 -0.3717
15962TIP3    H269302   4.591   1.729   4.097 -1.9955  1.5014 -0.0613
15963TIP3   OH269303   6.352   0.067  12.169  0.7122  0.2785 -0.2210
15963TIP3    H169304   6.428   0.106  12.126  1.2500 -1.4364 -0.9382
15963TIP3    H269305   6.292   0.047  12.097 -0.0993  0.9190  0.2644
15964TIP3   OH269306   3.792   6.450  14.355  0.0964  0.0048 -0.4589
15964TIP3    H169307   3.854   6.483  14.290 -0.7107  1.5807 -0.4918
15964TIP3    H269308   3.819   6.489  14.437 -0.1221 -0.2979 -0.2388
15965TIP3   OH269309   4.396   2.758  13.813 -0.0398 -0.0768 -0.1392
15965TIP3    H169310   4.355   2.776  13.728 -0.5010  0.4953  0.1964
15965TIP3    H269311   4.324   2.728  13.868  0.1381  0.1523  0.2225
15966TIP3   OH269312   0.506   4.142   2.057  0.1670 -0.5333 -0.4498
15966TIP3    H169313   0.412   4.125   2.055  0.1554 -0.5691  0.2635
15966TIP3    H269314   0.516   4.221   2.109  0.4380  0.2360 -1.6179
15967TIP3   OH269315   5.086   1.359  14.883  0.0665  0.4074 -0.0357
15967TIP3    H169316   5.154   1.293  14.894 -0.1811  0.2059  0.3327
15967TIP3    H269317   5.102   1.421  14.954 -0.2210  0.2802  0.1414
15968TIP3   OH269318   0.634   3.959   4.027 -0.3864 -0.1381 -0.4247
15968TIP3    H169319   0.580   3.937   3.951 -2.3270  0.8793  0.5684
15968TIP3    H269320   0.630   4.055   4.032  0.9167 -0.0860  0.1502
15969TIP3   OH269321   0.334   2.116   4.278  0.0445 -0.3058  0.3857
15969TIP3    H169322   0.356   2.128   4.370  0.4112  0.9451  0.1485
15969TIP3    H269323   0.271   2.185   4.259 -1.2744 -1.5378  0.0837
15970TIP3   OH269324   3.569   1.133  14.305 -0.3474  0.3526  0.1505
15970TIP3    H169325   3.658   1.103  14.326 -0.3289 -0.2963 -0.8230
15970TIP3    H269326   3.548   1.195  14.375  0.4719 -0.2634  0.9666
15971TIP3   OH269327   2.030   4.275  16.873 -0.7939  0.4491 -0.4814
15971TIP3    H169328   2.095   4.276  16.802 -1.5465  2.1020 -1.2013
15971TIP3    H269329   1.961   4.217  16.840 -1.5202  1.8337 -1.5217
15972TIP3   OH269330   5.216   1.894  11.945 -0.1714  0.7759  0.0133
15972TIP3    H169331   5.140   1.931  11.900 -0.5222  0.2680  0.1744
15972TIP3    H269332   5.269   1.855  11.876  0.1392  1.4645 -0.1428
15973TIP3   OH269333   1.324   2.067  11.869  0.7022  0.2051  0.1622
15973TIP3    H169334   1.406   2.117  11.870  0.4129  0.7064  2.1651
15973TIP3    H269335   1.352   1.975  11.868  1.2715  0.3716  0.2538
15974TIP3   OH269336   1.308   1.559  13.668 -0.5349  0.0195  0.5309
15974TIP3    H169337   1.298   1.645  13.628 -0.5553 -0.8734 -1.5324
15974TIP3    H269338   1.398   1.533  13.647 -0.3032 -0.1841  1.7298
15975TIP3   OH269339   4.881   3.975   4.205 -0.4295 -0.3855 -0.0558
15975TIP3    H169340   4.876   3.973   4.110 -0.6513 -0.5589 -0.0416
15975TIP3    H269341   4.884   3.882   4.231  0.1988 -0.3348  0.0779
15976TIP3   OH269342   6.266   2.987  12.464 -0.7679  0.2964 -0.5054
15976TIP3    H169343   6.360   3.000  12.449 -1.0468  0.5221 -2.2458
15976TIP3    H269344   6.227   2.987  12.377 -2.0346 -2.8087 -0.0860
15977TIP3   OH269345   5.678   2.349  17.070 -0.1850 -0.3923 -0.7117
15977TIP3    H169346   5.627   2.269  17.054  0.6674 -0.7506 -1.8516
15977TIP3    H269347   5.723   2.332  17.153 -2.6708  0.3778  0.8901
15978TIP3   OH269348   4.917   5.908  10.912  0.1866  0.1313 -0.2165
15978TIP3    H169349   4.952   5.997  10.912  0.4027  0.0589  0.5817
15978TIP3    H269350   4.824   5.919  10.891  0.2921  0.5093 -0.4990
15979TIP3   OH269351   3.458   5.893  11.419  0.2968  0.3565 -0.3801
15979TIP3    H169352   3.449   5.898  11.514 -0.1110  0.7640 -0.4373
15979TIP3    H269353   3.383   5.941  11.385 -0.2621 -0.8770 -0.9229
15980TIP3   OH269354   4.855   0.549   6.004 -0.4660  0.8971  0.5062
15980TIP3    H169355   4.793   0.486   6.041  0.8643 -1.1855 -0.6391
15980TIP3    H269356   4.827   0.560   5.913  1.1638 -0.6414 -0.2482
15981TIP3   OH269357   2.905   3.677   5.097  0.2033 -0.4267  0.7063
15981TIP3    H169358   2.967   3.633   5.155  1.6276 -0.0058 -0.4454
15981TIP3    H269359   2.927   3.645   5.010 -0.5151  0.5466  0.1508
15982TIP3   OH269360   5.812   3.497   2.053  0.3341  0.4390 -0.6250
15982TIP3    H169361   5.742   3.538   2.002  0.4999 -1.2217 -2.2754
15982TIP3    H269362   5.779   3.410   2.075  1.7393 -0.2867 -1.2202
15983TIP3   OH269363   6.592   3.457   5.789 -0.2626 -0.7165  0.0363
15983TIP3    H169364   6.497   3.459   5.777 -0.4402 -4.1779 -0.1134
15983TIP3    H269365   6.627   3.481   5.703 -1.0742 -1.4704 -0.5245
15984TIP3   OH269366   4.496   6.360   6.731 -0.6847 -0.1318  0.0396
15984TIP3    H169367   4.550   6.435   6.753 -0.9277  0.2490 -0.6359
15984TIP3    H269368   4.451   6.385   6.650  1.5736 -2.1447 -1.9913
15985TIP3   OH269369   1.596   1.872  14.801 -0.1882  0.3481 -0.4575
15985TIP3    H169370   1.669   1.826  14.760  0.2608  1.3664 -0.8385
15985TIP3    H269371   1.526   1.868  14.735  0.3952  1.6219 -1.1813
15986TIP3   OH269372   3.676   5.190  11.919  0.7026 -0.7827 -0.6053
15986TIP3    H169373   3.619   5.263  11.895  2.8802  1.8614  1.6536
15986TIP3    H269374   3.730   5.175  11.841 -1.6192 -2.0728 -2.1060
15987TIP3   OH269375   0.651   1.588   4.660 -0.0045 -0.1787 -0.3079
15987TIP3    H169376   0.650   1.544   4.575 -1.3593 -0.7155 -0.0387
15987TIP3    H269377   0.560   1.614   4.674  0.3937  0.8220  0.5176
15988TIP3   OH269378   3.661   6.692  15.603  0.6309 -0.5452 -0.1688
15988TIP3    H169379   3.626   6.770  15.561  1.5193  1.3884  2.3753
15988TIP3    H269380   3.585   6.646  15.638  0.1503 -0.4037 -1.0328
15989TIP3   OH269381   5.291   3.629   5.430  0.1560  0.3497  0.2873
15989TIP3    H169382   5.344   3.649   5.507 -0.2922  1.3239  0.3586
15989TIP3    H269383   5.224   3.697   5.429 -0.1595  0.0394 -0.6690
15990TIP3   OH269384   3.094   6.537  11.766 -0.2299 -0.4780  0.0028
15990TIP3    H169385   3.103   6.443  11.752 -0.1306 -0.0836 -3.2323
15990TIP3    H269386   3.137   6.577  11.690  2.1672  2.3258  2.5627
15991TIP3   OH269387   6.593   2.453   0.092 -0.0054  0.1341  0.3596
15991TIP3    H169388   6.586   2.547   0.107 -2.0992  0.2373 -0.9247
15991TIP3    H269389   6.610   2.445  -0.002 -1.6569 -0.7918  0.1093
15992TIP3   OH269390   4.305   1.317  10.807  0.1459 -0.5496 -0.0881
15992TIP3    H169391   4.338   1.371  10.879 -0.4379  2.1449 -1.7167
15992TIP3    H269392   4.214   1.298  10.832  0.2896 -0.6163  0.4024
15993TIP3   OH269393   4.624   2.446  15.261  0.2629  0.4530  0.0537
15993TIP3    H169394   4.661   2.393  15.332  0.2442  1.8532  1.1521
15993TIP3    H269395   4.535   2.412  15.249  0.5325 -0.3101  0.1420
15994TIP3   OH269396   3.969   4.942   0.828 -0.1568  0.2987 -0.1291
15994TIP3    H169397   4.002   5.018   0.877 -0.0593 -0.3062  0.7734
15994TIP3    H269398   3.874   4.944   0.840  0.0124 -1.0760  2.0106
15995TIP3   OH269399   5.860   3.897  14.574  0.4148  0.2097 -0.0141
15995TIP3    H169400   5.802   3.871  14.503  0.4122 -0.4451  0.2171
15995TIP3    H269401   5.889   3.814  14.613  0.4897  0.5517  0.6829
15996TIP3   OH269402   2.030   3.456  16.231  0.0634 -0.5464  0.1925
15996TIP3    H169403   2.032   3.551  16.223 -2.4512 -0.5109 -0.9247
15996TIP3    H269404   2.094   3.425  16.167 -0.0039  0.3679 -0.3271
15997TIP3   OH269405   6.087   3.650   4.679  0.1158 -0.2534  0.3271
15997TIP3    H169406   6.139   3.724   4.712  0.7042 -0.6654  0.3351
15997TIP3    H269407   5.998   3.669   4.708  0.3812  0.1097  0.9321
15998TIP3   OH269408   6.524   0.753   5.696  0.4065 -0.0726  0.4889
15998TIP3    H169409   6.597   0.764   5.637 -2.2350  3.7000 -2.5359
15998TIP3    H269410   6.455   0.712   5.643 -0.3277 -2.0333  2.7437
15999TIP3   OH269411   2.974   3.020  12.177 -0.3156  0.6321 -0.1702
15999TIP3    H169412   3.067   3.035  12.197  0.2176  0.1293 -2.0589
15999TIP3    H269413   2.937   2.986  12.258  1.5121 -0.5872  0.2090
16000TIP3   OH269414   0.417   1.201  13.984  0.1451 -0.7784 -0.1355
16000TIP3    H169415   0.440   1.109  13.998 -2.2341 -1.5172 -0.6007
16000TIP3    H269416   0.353   1.221  14.052  0.5250  0.5137 -0.1255
16001TIP3   OH269417   3.856   5.593   1.933 -0.0703  0.1378  0.5581
16001TIP3    H169418   3.821   5.621   2.017  0.7042  0.1199  0.8946
16001TIP3    H269419   3.921   5.526   1.955  0.5823  0.5653 -0.0048
16002TIP3   OH269420   1.815   2.568   3.861 -0.1386 -0.1813  0.0252
16002TIP3    H169421   1.761   2.592   3.936 -0.5373 -0.2142 -0.2472
16002TIP3    H269422   1.778   2.617   3.788  1.4848  1.3949  0.2150
16003TIP3   OH269423   3.730   2.437   6.024  0.3498 -0.0327  0.2908
16003TIP3    H169424   3.784   2.394   5.958 -0.4290 -1.6637  0.6521
16003TIP3    H269425   3.700   2.366   6.080 -0.4051  1.1004  1.3786
16004TIP3   OH269426   6.309   6.585   1.342 -0.1570 -0.2834  0.0716
16004TIP3    H169427   6.314   6.527   1.267  0.9742  1.6327 -1.4415
16004TIP3    H269428   6.372   6.655   1.323  1.0904 -0.2966  3.3573
16005TIP3   OH269429   5.361   1.803   4.047 -0.4127 -0.1631  0.0109
16005TIP3    H169430   5.383   1.866   4.117 -0.0634 -0.9438  0.6217
16005TIP3    H269431   5.391   1.719   4.081 -0.2817 -0.5642 -1.0805
16006TIP3   OH269432   4.728   3.205  13.086 -0.1091 -0.4902  0.0873
16006TIP3    H169433   4.662   3.144  13.054 -1.3541  1.1088 -0.5533
16006TIP3    H269434   4.700   3.227  13.175 -0.3745  0.0764 -0.1299
16007TIP3   OH269435   0.354   3.092   4.960 -0.0565  0.3612 -0.0768
16007TIP3    H169436   0.449   3.101   4.970  0.1511 -0.4333 -1.1144
16007TIP3    H269437   0.343   3.006   4.919 -1.3393 -0.2888  1.5343
16008TIP3   OH269438   4.507   0.783  13.482  0.0122 -0.3330 -0.0150
16008TIP3    H169439   4.557   0.718  13.432  1.9547 -0.1541  1.5483
16008TIP3    H269440   4.571   0.819  13.544 -1.4558  1.8540  0.3090
16009TIP3   OH269441   4.237   2.087  16.808 -0.4313  0.0800 -0.1452
16009TIP3    H169442   4.278   2.077  16.723  1.8507 -0.0652  0.9093
16009TIP3    H269443   4.229   2.182  16.820 -1.1941  0.0954 -0.6796
16010TIP3   OH269444   5.173   2.992  12.367 -0.1050 -0.4991  0.4323
16010TIP3    H169445   5.097   2.934  12.359  0.0638 -0.4954 -2.0029
16010TIP3    H269446   5.149   3.070  12.317 -0.4901  1.8744  3.9439
16011TIP3   OH269447   2.158   5.891   0.797  1.0129 -0.2002  0.7294
16011TIP3    H169448   2.244   5.879   0.758  0.1918  0.4813 -1.4179
16011TIP3    H269449   2.114   5.954   0.741 -0.5889  0.1776  2.2948
16012TIP3   OH269450   1.553   6.070  14.107 -0.4132  0.1679 -0.2193
16012TIP3    H169451   1.548   6.099  14.016  0.0067 -0.3676 -0.4121
16012TIP3    H269452   1.526   6.147  14.158 -1.5532  0.1897 -0.8250
16013TIP3   OH269453   5.270   2.678  16.490 -0.5514  0.0554 -0.2130
16013TIP3    H169454   5.196   2.626  16.458  0.1763  0.3396 -2.5360
16013TIP3    H269455   5.323   2.617  16.541 -0.2794 -1.2465 -1.9731
16014TIP3   OH269456   5.077   4.301   5.725 -0.2233 -0.0436  0.4741
16014TIP3    H169457   5.020   4.236   5.766  1.6951 -1.4022  1.1400
16014TIP3    H269458   5.165   4.278   5.756  1.0120  0.4817 -2.3570
16015TIP3   OH269459   5.712   4.755   2.457 -0.1015 -0.0523 -0.4532
16015TIP3    H169460   5.626   4.764   2.415  0.1017  1.4541 -0.6038
16015TIP3    H269461   5.693   4.762   2.551 -0.2472 -0.7160 -0.4287
16016TIP3   OH269462   0.661   0.710  12.221 -0.2192 -0.0639  0.0956
16016TIP3    H169463   0.598   0.669  12.161 -0.4045  0.1513  0.1427
16016TIP3    H269464   0.629   0.690  12.308  0.4290 -0.9664  0.1367
16017TIP3   OH269465   2.771   4.285  12.269  0.3176 -0.3715  0.1923
16017TIP3    H169466   2.832   4.217  12.299  2.2764  1.6830  1.1903
16017TIP3    H269467   2.786   4.290  12.174 -0.4178 -1.8009 -0.0261
16018TIP3   OH269468   5.061   1.059   4.841 -0.6409  0.5031 -0.2290
16018TIP3    H169469   5.114   0.984   4.815  0.7974  1.1680  0.7116
16018TIP3    H269470   5.015   1.085   4.760  0.1163 -0.3499 -0.9547
16019TIP3   OH269471   6.617   2.166  11.727  0.1334  0.4895 -0.3559
16019TIP3    H169472   6.603   2.248  11.680  2.1590  0.3155 -1.3789
16019TIP3    H269473   6.572   2.100  11.675 -3.3211  1.1155  1.5721
16020TIP3   OH269474   1.329   6.151  13.892 -0.2467 -0.8450  0.0698
16020TIP3    H169475   1.320   6.175  13.984  1.8745  0.2713  0.0560
16020TIP3    H269476   1.334   6.056  13.892 -0.4697 -0.8641  1.0852
16021TIP3   OH269477   1.373   5.219  14.121  0.0235  0.2913 -1.1311
16021TIP3    H169478   1.336   5.132  14.138  1.1991 -0.2348 -1.1928
16021TIP3    H269479   1.419   5.211  14.038  0.2853  0.9257 -1.0587
16022TIP3   OH269480   1.723   6.098  12.513  0.0203 -0.1288 -0.3120
16022TIP3    H169481   1.790   6.049  12.560 -0.6324  0.9386  1.8798
16022TIP3    H269482   1.745   6.190  12.529 -0.0708  0.3062 -2.4120
16023TIP3   OH269483   4.546   5.670  12.467 -0.0254 -0.1571 -0.7125
16023TIP3    H169484   4.473   5.700  12.414 -0.8579  0.6026  0.7795
16023TIP3    H269485   4.538   5.575  12.466 -0.7277 -0.1053 -1.0169
16024TIP3   OH269486   4.522   2.424   1.258  0.7711 -0.4844 -0.2217
16024TIP3    H169487   4.578   2.423   1.336  1.3281 -1.3505 -0.6124
16024TIP3    H269488   4.477   2.508   1.262  1.5060 -0.1094  0.5318
16025TIP3   OH269489   5.131   3.482  11.724 -0.0466  0.1126 -0.1349
16025TIP3    H169490   5.128   3.417  11.654  0.8538  0.6585 -0.7072
16025TIP3    H269491   5.223   3.488  11.748 -0.0337  1.4750 -0.4116
16026TIP3   OH269492   5.321   2.710   5.099  0.1588  0.0936  0.3053
16026TIP3    H169493   5.292   2.743   5.184 -0.5762 -0.1451  0.1547
16026TIP3    H269494   5.376   2.634   5.120 -0.0482  0.0158  0.5678
16027TIP3   OH269495   4.173   3.313   5.713  0.0749  0.1749  0.0966
16027TIP3    H169496   4.188   3.407   5.701  1.6366  0.0846  1.1913
16027TIP3    H269497   4.259   3.276   5.733 -0.5955 -1.4190  0.2261
16028TIP3   OH269498   5.936   0.709  14.865  0.1181 -0.5807 -0.2522
16028TIP3    H169499   5.868   0.655  14.824 -1.2211  0.0804  0.9976
16028TIP3    H269500   6.014   0.695  14.811 -0.5791 -2.5795 -0.8180
16029TIP3   OH269501   2.636   5.644   2.343 -0.2203  1.1004 -0.4082
16029TIP3    H169502   2.576   5.611   2.276 -1.5312 -1.3290  1.7529
16029TIP3    H269503   2.596   5.725   2.374 -0.8788  0.9886 -0.9476
16030TIP3   OH269504   6.023   0.606   2.262  0.0444 -0.1776  0.3078
16030TIP3    H169505   6.110   0.576   2.236  0.7030  2.3590 -0.6257
16030TIP3    H269506   6.039   0.664   2.337 -1.0273 -0.8258  1.0756
16031TIP3   OH269507   4.058   1.654  14.251  0.1620 -0.5979 -0.0647
16031TIP3    H169508   4.044   1.559  14.252 -1.0192 -0.4447  0.9427
16031TIP3    H269509   4.061   1.678  14.344 -0.9721  0.5134 -0.2877
16032TIP3   OH269510   5.604   2.958  15.850 -0.0162  0.4576  0.1334
16032TIP3    H169511   5.631   2.870  15.822  0.8365  0.2251  1.5777
16032TIP3    H269512   5.519   2.945  15.890  0.7488 -0.0027  1.6864
16033TIP3   OH269513   1.367   4.465   1.238  0.5862 -0.4082  0.5110
16033TIP3    H169514   1.299   4.413   1.195 -0.0654  0.4015  0.5246
16033TIP3    H269515   1.418   4.402   1.288  2.0735 -1.5982 -2.2356
16034TIP3   OH269516   6.594   1.971   4.694 -0.5645  0.0366 -0.2892
16034TIP3    H169517   6.514   1.919   4.686 -0.2749 -0.2174 -1.9780
16034TIP3    H269518   6.665   1.911   4.669  0.0402  0.5666  0.1050
16035TIP3   OH269519   4.591   2.983   2.308  0.7940  0.4699  0.1205
16035TIP3    H169520   4.524   3.051   2.314  0.1009  0.0974 -2.3359
16035TIP3    H269521   4.668   3.029   2.272  1.1222  0.4303  0.7605
16036TIP3   OH269522   2.903   3.105   4.453 -0.4950 -0.1562 -0.1382
16036TIP3    H169523   2.867   3.178   4.504  0.6878  1.2838 -1.2664
16036TIP3    H269524   2.997   3.107   4.472 -0.2986 -0.7133 -1.0240
16037TIP3   OH269525   1.963   1.652   2.096  0.4071  0.2411  0.2685
16037TIP3    H169526   1.896   1.674   2.162  0.4314  3.3974 -0.5598
16037TIP3    H269527   2.045   1.681   2.136  0.3911  2.4343 -1.0899
16038TIP3   OH269528   4.277   4.344  15.458  0.0476 -0.0178  0.2949
16038TIP3    H169529   4.348   4.401  15.428 -0.4712  0.3533 -0.2505
16038TIP3    H269530   4.261   4.372  15.548  1.3405 -0.8619  0.8197
16039TIP3   OH269531   4.896   5.986   2.842 -0.4836 -0.1135 -0.0476
16039TIP3    H169532   4.912   6.080   2.852 -1.3341  0.1967 -1.4153
16039TIP3    H269533   4.972   5.945   2.884  1.0544  1.2121 -1.3893
16040TIP3   OH269534   5.134   3.076  15.955 -0.2601 -0.0841 -0.3960
16040TIP3    H169535   5.152   3.110  15.868  0.7635  0.4895  0.0217
16040TIP3    H269536   5.089   3.148  16.000 -1.5778 -0.6876 -0.7056
16041TIP3   OH269537   0.520   3.160  12.701 -0.1563 -0.6094  0.1800
16041TIP3    H169538   0.479   3.079  12.732  2.6165 -2.6026 -0.9267
16041TIP3    H269539   0.576   3.188  12.774  0.8961 -1.2419 -0.3578
16042TIP3   OH269540   0.894   0.003   3.852  0.4362 -0.0075 -1.1447
16042TIP3    H169541   0.887  -0.077   3.904  0.3920  1.4457  1.2354
16042TIP3    H269542   0.920  -0.027   3.765  1.8392 -2.4919  0.0227
16043TIP3   OH269543   5.434   0.709   2.871  0.3303  0.0590 -0.1691
16043TIP3    H169544   5.484   0.759   2.807  1.9108 -1.2672 -0.0707
16043TIP3    H269545   5.416   0.771   2.942  1.8373  0.6316 -0.2398
16044TIP3   OH269546   3.842   0.783  15.672 -0.1206  0.0950  0.9037
16044TIP3    H169547   3.898   0.809  15.746 -0.3023  0.8527  0.7860
16044TIP3    H269548   3.900   0.731  15.616  0.2979  0.3554  1.0851
16045TIP3   OH269549   5.314   5.438  12.020  0.6666 -0.6882 -0.2098
16045TIP3    H169550   5.345   5.397  11.940  2.2917  1.2828 -0.6775
16045TIP3    H269551   5.370   5.402  12.089 -0.1140 -1.6880 -0.0826
16046TIP3   OH269552   2.811   4.555   2.717 -0.1531  0.3880 -0.2104
16046TIP3    H169553   2.769   4.563   2.803 -1.8767 -0.5669 -0.9097
16046TIP3    H269554   2.811   4.461   2.699  1.9107  0.3943 -0.4787
16047TIP3   OH269555   1.563   5.962  13.757  0.4322  0.0266  0.0122
16047TIP3    H169556   1.519   5.884  13.792  2.5903 -1.0867  0.4237
16047TIP3    H269557   1.549   5.957  13.662 -0.0454 -0.4850  0.1050
16048TIP3   OH269558   0.809   5.283  15.731  0.6783  0.0437  0.2742
16048TIP3    H169559   0.755   5.340  15.675 -0.8666 -0.7473  0.9121
16048TIP3    H269560   0.824   5.334  15.810 -1.0735 -0.5224  1.0291
16049TIP3   OH269561   0.197   1.189  12.560 -0.1685 -0.3771 -0.2470
16049TIP3    H169562   0.252   1.173  12.637 -1.2255  0.9104  0.8320
16049TIP3    H269563   0.137   1.115  12.557 -1.0879  0.2834  1.0802
16050TIP3   OH269564   3.284   0.427  17.149 -0.4352 -0.0914 -0.3464
16050TIP3    H169565   3.351   0.470  17.201 -0.2453 -0.1291 -0.5612
16050TIP3    H269566   3.316   0.431  17.059 -1.3368  1.0932 -0.6419
16051TIP3   OH269567   5.751   2.616   6.681  0.6183 -0.3235 -0.0702
16051TIP3    H169568   5.836   2.646   6.648 -0.1120 -0.7849 -2.6609
16051TIP3    H269569   5.706   2.696   6.708  1.9296 -0.1006  1.5712
16052TIP3   OH269570   5.308   6.098  16.290  0.2782  0.8170 -0.0798
16052TIP3    H169571   5.226   6.143  16.310  0.6312  1.2570  0.3961
16052TIP3    H269572   5.372   6.135  16.350  0.1075 -2.0032  2.0661
16053TIP3   OH269573   2.051   0.366   2.860  0.4905 -0.2859 -1.1519
16053TIP3    H169574   1.970   0.403   2.826  1.0860  1.4213 -0.8363
16053TIP3    H269575   2.048   0.383   2.954  0.9918 -0.6624 -1.0631
16054TIP3   OH269576   1.784   3.468   3.554  0.4062  0.4522  0.0758
16054TIP3    H169577   1.845   3.542   3.549  0.1896  0.7001  1.0591
16054TIP3    H269578   1.698   3.507   3.564  0.0692  0.0968 -1.2367
16055TIP3   OH269579   2.677   3.480   6.608  0.0777 -0.3513  0.4458
16055TIP3    H169580   2.611   3.456   6.543 -0.1950 -0.7916  0.8865
16055TIP3    H269581   2.757   3.494   6.557 -0.4077  0.4440 -0.1250
16056TIP3   OH269582   4.285   4.900   1.203  0.1714  0.3945 -0.3202
16056TIP3    H169583   4.370   4.942   1.209 -0.2143  1.1071  0.2717
16056TIP3    H269584   4.267   4.896   1.109  0.1963  1.6070 -0.3934
16057TIP3   OH269585   4.814   2.328   2.374 -0.6054 -0.0801 -0.5208
16057TIP3    H169586   4.894   2.381   2.377 -0.7107  0.1280 -1.2081
16057TIP3    H269587   4.743   2.392   2.378 -0.7629  0.0497 -3.2496
16058TIP3   OH269588   0.051   2.838  15.585 -0.2433 -0.0594 -0.5550
16058TIP3    H169589   0.018   2.829  15.674 -0.4721  2.2322 -0.3325
16058TIP3    H269590  -0.004   2.780  15.533  0.7917 -2.5162  0.9121
16059TIP3   OH269591   1.363   6.311   4.081 -0.6926 -0.6039  0.2295
16059TIP3    H169592   1.290   6.339   4.025 -0.8761 -1.0312  0.2549
16059TIP3    H269593   1.426   6.384   4.076 -1.7779  0.4703  1.4462
16060TIP3   OH269594   1.416   1.064   1.480  0.7272 -0.0482  0.2719
16060TIP3    H169595   1.456   1.004   1.417  0.8433  0.2148  0.0906
16060TIP3    H269596   1.433   1.025   1.565  1.7222  0.2622  0.2274
16061TIP3   OH269597   1.906   4.488  12.155  0.5836 -0.2909 -0.0050
16061TIP3    H169598   1.878   4.481  12.063  1.5423 -0.5332 -0.3034
16061TIP3    H269599   1.864   4.414  12.199  1.1755 -0.9846 -0.5618
16062TIP3   OH269600   0.496   3.522   0.311  0.3374  0.3234 -0.2764
16062TIP3    H169601   0.413   3.544   0.269  0.3515 -1.2055 -1.1976
16062TIP3    H269602   0.471   3.493   0.399  0.0363  1.0637 -0.1108
16063TIP3   OH269603   4.345   6.672  12.237  0.5051 -0.1587 -0.4201
16063TIP3    H169604   4.432   6.653  12.272 -0.1181 -0.0283  1.3315
16063TIP3    H269605   4.319   6.754  12.280  0.4209  1.0754 -2.6825
16064TIP3   OH269606   6.304   3.667  16.165 -0.4570 -0.7600 -0.3753
16064TIP3    H169607   6.373   3.731  16.178 -1.0717  0.0336 -0.9098
16064TIP3    H269608   6.343   3.601  16.108 -0.7844  0.8605 -2.6187
16065TIP3   OH269609   5.157   1.954  10.889 -0.4816  0.7490  0.5951
16065TIP3    H169610   5.182   1.916  10.805  0.9159  1.3899  0.6909
16065TIP3    H269611   5.239   1.991  10.923 -0.8478 -0.1954  2.6103
16066TIP3   OH269612   3.584   0.625  12.056  0.2341 -0.3670  0.3328
16066TIP3    H169613   3.638   0.556  12.018 -0.0256 -0.6924  0.5518
16066TIP3    H269614   3.502   0.581  12.080 -0.9491  0.4738 -1.8395
16067TIP3   OH269615   3.729   0.311  15.815 -0.2664  0.0804  0.3339
16067TIP3    H169616   3.659   0.252  15.786  0.1433  0.4420 -1.5068
16067TIP3    H269617   3.714   0.392  15.767  0.6397  0.6358  0.9428
16068TIP3   OH269618   3.839   0.243   0.895 -0.2411 -0.1548 -1.0507
16068TIP3    H169619   3.859   0.318   0.951 -1.2228  0.2625 -1.2378
16068TIP3    H269620   3.870   0.167   0.944 -1.1122  0.1988  0.0737
16069TIP3   OH269621   1.079   4.864  11.344 -0.3829  0.1822 -0.0013
16069TIP3    H169622   1.121   4.785  11.310  0.4191 -0.2425  1.8397
16069TIP3    H269623   1.089   4.929  11.274  0.3744 -0.8775 -0.9151
16070TIP3   OH269624   2.459   6.571  16.886 -0.2469  0.0548  0.3261
16070TIP3    H169625   2.490   6.661  16.888 -0.3639  0.0826  1.1790
16070TIP3    H269626   2.433   6.556  16.795 -2.9110  1.8105  0.6738
16071TIP3   OH269627   4.941   6.702   6.520 -0.7155  0.1356  0.3834
16071TIP3    H169628   4.948   6.797   6.518  1.6772  0.0081  0.2759
16071TIP3    H269629   5.012   6.673   6.577 -0.1600 -1.6407 -1.0930
16072TIP3   OH269630   2.434   2.763  10.813  0.3747  0.3579 -0.7567
16072TIP3    H169631   2.411   2.712  10.735  0.0801  1.5617 -1.4795
16072TIP3    H269632   2.485   2.837  10.779  1.3332  0.2199  0.3411
16073TIP3   OH269633   3.268   6.647   5.901  0.4397  0.5315  0.2228
16073TIP3    H169634   3.314   6.724   5.868  1.8870  0.0708  1.1004
16073TIP3    H269635   3.323   6.573   5.877 -0.0713 -0.0866  0.8869
16074TIP3   OH269636   2.583   3.994   4.549  0.0428 -0.2178 -0.2579
16074TIP3    H169637   2.504   3.945   4.529 -0.5625  1.0207 -1.0700
16074TIP3    H269638   2.579   4.070   4.491  1.6325  0.0775 -0.0293
16075TIP3   OH269639   0.783   0.561   4.881 -0.4312  0.7777  0.2748
16075TIP3    H169640   0.866   0.531   4.845 -0.9357 -1.2637  0.6736
16075TIP3    H269641   0.807   0.626   4.946  0.9118 -0.0887  0.6824
16076TIP3   OH269642   1.789   0.281  16.349 -0.0818  0.7526  0.0599
16076TIP3    H169643   1.777   0.374  16.328 -1.1419  0.0797 -2.9551
16076TIP3    H269644   1.702   0.252  16.379  0.0958  0.6368  0.4602
16077TIP3   OH269645   5.608   4.978  15.011  0.2414 -0.9206  0.2258
16077TIP3    H169646   5.666   4.933  14.949  1.7331  1.2823 -0.1125
16077TIP3    H269647   5.624   5.071  14.995 -3.5887 -0.1482  0.0293
16078TIP3   OH269648   5.524   6.568   5.676 -0.0773  0.4442 -0.2672
16078TIP3    H169649   5.601   6.513   5.662 -0.7331 -0.3242 -1.0241
16078TIP3    H269650   5.491   6.542   5.762  0.5663  0.8608  0.1104
16079TIP3   OH269651   2.426   3.512  15.423 -0.2960 -0.3161 -0.4154
16079TIP3    H169652   2.446   3.479  15.335  0.5503 -0.0258 -0.3336
16079TIP3    H269653   2.341   3.555  15.413 -0.0872 -0.0621 -1.1498
16080TIP3   OH269654   3.226   4.378  12.661  0.1665  1.0967  0.1918
16080TIP3    H169655   3.244   4.345  12.749  0.1250  2.2052  0.6308
16080TIP3    H269656   3.235   4.301  12.604  2.8644  0.8772  0.7937
16081TIP3   OH269657   4.937   1.822  13.947  0.7342 -0.2798  0.3938
16081TIP3    H169658   4.970   1.823  13.857  0.4069  2.1021  0.2238
16081TIP3    H269659   5.006   1.781  13.997  2.6169  1.6621 -0.4419
16082TIP3   OH269660   3.737   6.580  14.865 -0.0219 -0.2330 -0.1200
16082TIP3    H169661   3.729   6.668  14.828  2.0779 -0.4589 -1.2625
16082TIP3    H269662   3.673   6.578  14.936  0.7504  2.6927  0.8150
16083TIP3   OH269663   2.175   1.012   4.810  0.6517  0.8691 -0.1356
16083TIP3    H169664   2.245   1.058   4.764  1.3396 -1.4494 -1.5926
16083TIP3    H269665   2.165   0.930   4.762 -0.2208 -0.6976  2.5003
16084TIP3   OH269666   5.277   0.569  12.878 -0.1232 -0.8797  0.3374
16084TIP3    H169667   5.191   0.538  12.850 -0.9938 -0.1779  2.0669
16084TIP3    H269668   5.268   0.663  12.886  0.7644 -0.8069  0.6659
16085TIP3   OH269669   6.376   1.465   5.289 -0.2132  0.0354  0.6172
16085TIP3    H169670   6.397   1.428   5.375  0.4171  1.4593  1.1058
16085TIP3    H269671   6.313   1.404   5.252  0.2965 -1.1719  1.6497
16086TIP3   OH269672   3.080   1.685  15.414  0.0528 -0.1416 -0.2758
16086TIP3    H169673   3.075   1.603  15.365  0.0310 -0.0815 -0.3746
16086TIP3    H269674   3.071   1.659  15.506  0.3847 -0.2868 -0.2795
16087TIP3   OH269675   3.180   1.576  12.393  0.3951 -0.1801 -0.2155
16087TIP3    H169676   3.191   1.654  12.448  0.2476 -1.1909  1.3261
16087TIP3    H269677   3.259   1.525  12.408  0.7792 -0.0690 -1.7089
16088TIP3   OH269678   5.097   5.625   0.891 -0.0329 -0.2131 -0.1228
16088TIP3    H169679   5.142   5.547   0.924  1.0032 -0.1782 -1.3683
16088TIP3    H269680   5.083   5.606   0.798 -1.7360  0.1999  0.0191
16089TIP3   OH269681   3.426   6.281   0.053  0.0010  0.2477  0.2835
16089TIP3    H169682   3.364   6.324  -0.006  0.6174  1.2152  0.3139
16089TIP3    H269683   3.474   6.220  -0.003 -0.5157 -0.0235  0.1271
16090TIP3   OH269684   3.603   6.066   3.243 -0.2748 -0.5653  0.1139
16090TIP3    H169685   3.564   6.075   3.330  0.7699  0.6852  0.4845
16090TIP3    H269686   3.569   6.140   3.193  2.3139  1.2030  0.7707
16091TIP3   OH269687   6.597   5.982  11.412  0.1543  0.1637  0.2218
16091TIP3    H169688   6.567   5.913  11.353 -1.1639  1.5284 -0.7778
16091TIP3    H269689   6.551   6.061  11.382  2.2301  1.6741  0.7799
16092TIP3   OH269690   2.769   1.835  12.726  0.5964  0.0154 -0.2264
16092TIP3    H169691   2.786   1.742  12.707  0.7052  0.3050 -1.5892
16092TIP3    H269692   2.682   1.851  12.690  0.5376  0.4283  0.1000
16093TIP3   OH269693   5.592   1.220   3.094 -0.1724 -0.1743 -0.5060
16093TIP3    H169694   5.640   1.171   3.027 -1.4488 -0.4971 -1.2082
16093TIP3    H269695   5.653   1.226   3.168 -0.0284 -2.9852 -0.3205
16094TIP3   OH269696   1.990   5.542  16.401  0.4132 -0.0999 -0.2001
16094TIP3    H169697   1.946   5.596  16.336  0.5735  1.3987  0.8833
16094TIP3    H269698   1.920   5.494  16.444 -0.5115  3.1609  2.3445
16095TIP3   OH269699   2.097   2.270  15.861  0.1670 -0.1471  0.4858
16095TIP3    H169700   2.173   2.298  15.809  0.5822 -1.7298  0.1843
16095TIP3    H269701   2.134   2.217  15.931 -0.5007  0.9687  1.7226
16096TIP3   OH269702   2.679   3.811   5.178  0.5233  0.2078 -0.2241
16096TIP3    H169703   2.762   3.767   5.163  0.2881 -0.6037  0.7606
16096TIP3    H269704   2.687   3.849   5.266  0.5804  1.8357 -0.8913
16097TIP3   OH269705   4.175   6.775  12.925 -0.5167  0.0382 -0.3301
16097TIP3    H169706   4.162   6.771  13.019 -0.0648 -3.1034 -0.2952
16097TIP3    H269707   4.087   6.766  12.888 -0.5326 -0.4112 -0.1881
16098TIP3   OH269708   1.031   3.210   0.464 -0.3579  0.6066 -0.0910
16098TIP3    H169709   1.059   3.157   0.539 -0.7784 -0.2880 -0.5404
16098TIP3    H269710   1.008   3.295   0.502 -0.8893  0.0620  0.8554
16099TIP3   OH269711   2.225   3.704  11.106  0.4956 -0.2983  0.2211
16099TIP3    H169712   2.254   3.659  11.186 -1.1403 -1.5326  0.1813
16099TIP3    H269713   2.285   3.778  11.097  2.2257 -1.4888  1.2669
16100TIP3   OH269714   1.218   5.601   2.078 -0.2824 -0.2851 -0.4791
16100TIP3    H169715   1.232   5.524   2.023  0.0111 -1.0897  0.6669
16100TIP3    H269716   1.131   5.586   2.117 -0.5437  0.3339 -0.8214
16101TIP3   OH269717   1.435   5.060  13.323 -0.1924  0.1609 -0.0127
16101TIP3    H169718   1.358   5.116  13.327  1.2037  2.1431  3.4188
16101TIP3    H269719   1.501   5.112  13.278  0.3871  0.3034  0.9733
16102TIP3   OH269720   0.918   3.086  12.062  0.5026  0.6049  0.0070
16102TIP3    H169721   0.908   3.006  12.010  0.6472  0.5795  0.0166
16102TIP3    H269722   0.925   3.056  12.152  0.1913  0.6541  0.0470
16103TIP3   OH269723   5.699   0.548  11.436 -0.0508  0.5611  0.2150
16103TIP3    H169724   5.703   0.531  11.342 -1.3714 -2.4101  0.5634
16103TIP3    H269725   5.785   0.581  11.458  0.1117  1.9110 -2.0907
16104TIP3   OH269726   5.659   1.667  10.949 -0.7910 -0.0736 -0.2158
16104TIP3    H169727   5.706   1.592  10.914  0.4367  0.2701  0.6085
16104TIP3    H269728   5.591   1.629  11.006  1.2549 -0.6175  2.0219
16105TIP3   OH269729   0.269   6.605  11.341  0.6932 -0.2619  0.0250
16105TIP3    H169730   0.222   6.624  11.422 -0.8582 -0.0717 -0.8735
16105TIP3    H269731   0.339   6.671  11.337 -0.0005  0.5188  0.5901
16106TIP3   OH269732   4.031   4.592   2.211  0.1752 -0.6264 -0.1936
16106TIP3    H169733   3.963   4.600   2.279  1.9337  0.3174  1.5676
16106TIP3    H269734   4.108   4.635   2.249  1.4791 -0.7358 -2.5221
16107TIP3   OH269735   4.905   1.034   0.533 -0.3948 -0.5975  0.3400
16107TIP3    H169736   4.914   1.094   0.608  2.4634  0.9294 -1.0482
16107TIP3    H269737   4.811   1.023   0.522 -0.9399 -0.5353  3.8316
16108TIP3   OH269738   0.054   1.632   3.201  0.1647 -0.0552 -0.1768
16108TIP3    H169739   0.048   1.561   3.264  3.5710  0.4397  0.9132
16108TIP3    H269740   0.115   1.601   3.135  1.2267  1.5761 -0.0214
16109TIP3   OH269741   5.644   2.224   5.491  0.4511 -0.1514 -0.4031
16109TIP3    H169742   5.704   2.281   5.538  0.2902 -0.7535  0.5774
16109TIP3    H269743   5.687   2.206   5.408  0.6501  1.1220 -0.5902
16110TIP3   OH269744   3.270   5.101   2.926 -0.0419 -0.0234 -0.1483
16110TIP3    H169745   3.336   5.081   2.861 -1.2148 -0.1951 -1.3359
16110TIP3    H269746   3.195   5.132   2.875 -1.1210 -0.5133  1.0838
16111TIP3   OH269747   5.900   0.306  16.259 -0.4450  0.4557  0.3366
16111TIP3    H169748   5.993   0.331  16.258 -0.3897  0.2859  1.0142
16111TIP3    H269749   5.881   0.283  16.168  0.6043 -1.0741  0.4702
16112TIP3   OH269750   0.170   4.911   0.469 -0.2476 -0.2625 -0.2444
16112TIP3    H169751   0.172   4.890   0.562  2.3371 -1.0931 -0.4112
16112TIP3    H269752   0.245   4.967   0.455 -1.3782  0.9933 -1.6369
16113TIP3   OH269753   6.310   3.115   0.044  0.8289  0.3959  0.1216
16113TIP3    H169754   6.225   3.095   0.006  0.1783  0.1083  1.6673
16113TIP3    H269755   6.289   3.165   0.123  2.1161  0.6794  0.2982
16114TIP3   OH269756   5.238   0.241  12.829 -0.5184 -0.1599  0.0432
16114TIP3    H169757   5.177   0.312  12.808  0.5193  0.7164 -0.0452
16114TIP3    H269758   5.306   0.282  12.882  0.2030 -1.0455 -0.1777
16115TIP3   OH269759   2.346   0.825  16.705 -0.0094  0.2480 -0.3418
16115TIP3    H169760   2.252   0.813  16.689  0.0638 -0.2392 -0.4192
16115TIP3    H269761   2.388   0.788  16.627  0.2775 -0.3088  0.0771
16116TIP3   OH269762   5.829   2.797  14.737 -0.2993 -0.4934  0.2371
16116TIP3    H169763   5.865   2.710  14.720 -2.6308 -1.2007 -1.7769
16116TIP3    H269764   5.762   2.809  14.669 -1.6709  1.9169  1.8444
16117TIP3   OH269765   1.854   6.779  12.852 -0.1348  0.1692  0.3172
16117TIP3    H169766   1.833   6.790  12.944  0.8296 -1.2495  0.7515
16117TIP3    H269767   1.913   6.851  12.831 -0.5627  0.6436  0.7270
16118TIP3   OH269768   4.298   5.210  17.221 -0.1548  0.1834 -0.5995
16118TIP3    H169769   4.234   5.158  17.269  0.3107  0.3432  0.2194
16118TIP3    H269770   4.345   5.258  17.289 -1.6616  2.9986 -1.4010
16119TIP3   OH269771   4.197   1.676   1.804  0.2038  0.1252 -0.2383
16119TIP3    H169772   4.203   1.629   1.887 -0.0928 -0.2850 -0.4436
16119TIP3    H269773   4.196   1.768   1.828 -0.1382  0.0004  0.2348
16120TIP3   OH269774   1.166   3.876  15.867  0.1068  0.0606 -0.0120
16120TIP3    H169775   1.078   3.913  15.873 -0.3329 -1.1698  1.7714
16120TIP3    H269776   1.201   3.885  15.955  1.0710 -1.1398 -0.2542
16121TIP3   OH269777   1.448   3.003   3.065 -0.5736  0.3175  0.1053
16121TIP3    H169778   1.425   2.945   2.993 -0.1177 -0.2426  0.4026
16121TIP3    H269779   1.524   3.052   3.034 -0.8611  0.6477 -0.0857
16122TIP3   OH269780   0.244   3.359  11.780  0.4082  0.1457  0.3741
16122TIP3    H169781   0.337   3.341  11.765  0.6594  1.3976  0.3161
16122TIP3    H269782   0.243   3.445  11.822 -0.7491  0.3376 -0.0237
16123TIP3   OH269783   0.414   4.521   1.935  0.8301  0.5512  0.0775
16123TIP3    H169784   0.499   4.524   1.892  1.3227 -1.7584  0.7617
16123TIP3    H269785   0.421   4.448   1.998 -2.0075 -0.5468 -0.7229
16124TIP3   OH269786   6.359   6.717  16.384 -0.5225 -0.7688  0.0885
16124TIP3    H169787   6.445   6.741  16.350 -0.5460  0.9909  1.1578
16124TIP3    H269788   6.303   6.712  16.306 -0.0305  0.7210 -0.3835
16125TIP3   OH269789   6.465   3.433  14.302 -0.3200  0.4839  0.6337
16125TIP3    H169790   6.456   3.516  14.256 -2.1110 -0.0316 -0.0646
16125TIP3    H269791   6.472   3.457  14.394  0.8333  1.4482  0.3050
16126TIP3   OH269792   6.707   2.125   5.347  0.0043  0.0342 -0.4011
16126TIP3    H169793   6.663   2.206   5.323 -2.1036 -0.9193 -0.0031
16126TIP3    H269794   6.644   2.079   5.402  0.8735 -2.1544 -1.1293
16127TIP3   OH269795   2.870   6.268  14.348 -0.2736  0.2880 -0.2060
16127TIP3    H169796   2.792   6.299  14.300 -0.3118  0.3467 -0.1070
16127TIP3    H269797   2.942   6.317  14.309 -0.4188  1.0099  0.4074
16128TIP3   OH269798   2.057   0.048  14.503 -0.6843  0.2207 -0.1536
16128TIP3    H169799   2.036   0.110  14.573  1.2109 -0.1736  0.8380
16128TIP3    H269800   1.978   0.046  14.449 -1.0826  2.9423  0.1680
16129TIP3   OH269801   2.142   1.437   1.961 -0.1446  0.0152  0.3427
16129TIP3    H169802   2.146   1.389   1.879  0.3188 -0.0087  0.3770
16129TIP3    H269803   2.071   1.501   1.948 -1.3607 -1.2267  0.6029
16130TIP3   OH269804   2.157   3.053  16.466  0.4533 -0.4437  0.2011
16130TIP3    H169805   2.205   3.106  16.529  1.6635 -0.8742 -0.3326
16130TIP3    H269806   2.104   3.116  16.417 -0.3587 -0.0850  1.4937
16131TIP3   OH269807   2.604   0.610  14.153 -0.5607  0.3217  0.0154
16131TIP3    H169808   2.600   0.530  14.207  3.3905 -1.2279 -1.5976
16131TIP3    H269809   2.671   0.664  14.195  0.9619  0.0837 -1.9361
16132TIP3   OH269810   1.822   6.152   0.859  0.7711 -0.0112 -0.5367
16132TIP3    H169811   1.882   6.198   0.918  1.4840  0.3637 -1.5209
16132TIP3    H269812   1.788   6.220   0.801 -2.1839  0.1572  1.1928
16133TIP3   OH269813   2.054   0.824   5.284  0.5111  0.3266 -0.0518
16133TIP3    H169814   2.127   0.863   5.333  0.8334 -1.2307  0.7574
16133TIP3    H269815   2.095   0.785   5.207  0.6062 -0.8498  0.5770
16134TIP3   OH269816   2.927   3.594   0.226  0.0014 -0.4605 -0.1793
16134TIP3    H169817   2.855   3.532   0.237  0.3445 -0.6976  0.7918
16134TIP3    H269818   2.923   3.649   0.304  0.5257 -0.1081 -0.3981
16135TIP3   OH269819   0.051   0.533  15.652 -0.2496  0.2602  0.3210
16135TIP3    H169820   0.101   0.586  15.589 -0.9011  1.1097  0.4964
16135TIP3    H269821  -0.001   0.597  15.701 -2.6310 -0.6584 -0.8298
16136TIP3   OH269822   5.622   0.352  17.177 -0.2852  0.4132  0.1385
16136TIP3    H169823   5.660   0.440  17.166  0.4164 -0.1188 -2.4756
16136TIP3    H269824   5.610   0.320  17.087 -1.6040 -1.7280  1.0071
16137TIP3   OH269825   5.715   5.399  16.900  0.0189 -0.8242 -0.3900
16137TIP3    H169826   5.762   5.476  16.932 -0.1605 -0.4802 -0.9557
16137TIP3    H269827   5.780   5.352  16.848  0.2462 -1.2715  0.2760
16138TIP3   OH269828   1.626   4.183  16.219 -0.5395  0.4968 -0.6168
16138TIP3    H169829   1.563   4.159  16.287 -0.7563  1.6911 -0.3569
16138TIP3    H269830   1.575   4.177  16.137 -0.3984 -0.5264 -0.6373
16139TIP3   OH269831   6.526   4.607  15.537 -0.0332 -0.3366 -0.2577
16139TIP3    H169832   6.576   4.668  15.591 -0.3373  1.4345 -1.8719
16139TIP3    H269833   6.593   4.550  15.498  0.3564 -0.4314  0.5418
16140TIP3   OH269834   2.038   1.063  10.808 -0.0232  0.4563  0.3262
16140TIP3    H169835   2.045   1.076  10.902 -1.7633  1.7047  0.3304
16140TIP3    H269836   1.950   1.026  10.795  0.6680 -0.9293 -0.7128
16141TIP3   OH269837   3.243   3.841  13.375  0.2093 -0.0166  0.0864
16141TIP3    H169838   3.216   3.761  13.419  0.6628  0.2167  0.8072
16141TIP3    H269839   3.192   3.910  13.417  1.6751  0.3968  1.2854
16142TIP3   OH269840   6.381   4.699   3.119  0.4058 -0.5105 -0.6374
16142TIP3    H169841   6.365   4.677   3.211 -0.5923  3.3218  0.2872
16142TIP3    H269842   6.475   4.716   3.115  0.4953 -0.9230 -0.3864
16143TIP3   OH269843   4.264   2.867  12.497 -0.1630  0.0570  0.5466
16143TIP3    H169844   4.172   2.858  12.472 -1.0430 -1.6494  3.8036
16143TIP3    H269845   4.272   2.957  12.527 -1.0453 -0.0194  1.0500
16144TIP3   OH269846   1.826   5.495   6.022 -0.0658  0.3617  0.0686
16144TIP3    H169847   1.742   5.536   6.043  0.1183  0.2818  1.0171
16144TIP3    H269848   1.860   5.546   5.950 -1.2158  0.0070 -0.7639
16145TIP3   OH269849   2.470   3.591   4.715 -1.0999 -0.0619  0.4984
16145TIP3    H169850   2.513   3.638   4.787 -1.6890  0.0792  0.7629
16145TIP3    H269851   2.432   3.661   4.661 -0.3782 -0.1539 -0.1301
16146TIP3   OH269852   6.469   3.334   4.169 -0.1557 -0.0612  0.8225
16146TIP3    H169853   6.453   3.416   4.215  1.3388  1.2410 -0.8296
16146TIP3    H269854   6.503   3.360   4.084 -1.4669 -2.3672 -0.5412
16147TIP3   OH269855   0.577   5.600  14.218 -0.4455 -1.4065 -0.2524
16147TIP3    H169856   0.668   5.624  14.233 -0.3360 -2.1516  0.3356
16147TIP3    H269857   0.554   5.547  14.294 -1.5752 -0.6848 -0.0648
16148TIP3   OH269858   1.321   3.938   5.227 -0.4776 -0.0911  0.3248
16148TIP3    H169859   1.356   3.850   5.215  0.6491  0.3990 -0.2321
16148TIP3    H269860   1.285   3.962   5.141  0.9315  0.6678 -0.0963
16149TIP3   OH269861   6.112   4.362  14.855 -0.9966 -0.2099 -0.0360
16149TIP3    H169862   6.157   4.282  14.828  0.0233  1.5657 -4.4685
16149TIP3    H269863   6.133   4.370  14.948 -1.4137 -5.0833  0.7837
16150TIP3   OH269864   2.921   4.947   2.597 -0.1130  0.2811 -0.4913
16150TIP3    H169865   2.940   4.860   2.562  6.5005  0.9076  0.1336
16150TIP3    H269866   2.891   4.997   2.522 -0.6813 -1.6982 -1.6707
16151TIP3   OH269867   4.858   5.637   2.900  0.0507 -0.4243 -0.1911
16151TIP3    H169868   4.794   5.580   2.942 -0.0891  0.6819  1.1774
16151TIP3    H269869   4.903   5.680   2.973  0.9484  0.3302 -1.1637
16152TIP3   OH269870   3.322   1.807   3.932 -0.2401 -0.0558 -0.0371
16152TIP3    H169871   3.385   1.845   3.870 -1.1375 -0.3300 -1.1616
16152TIP3    H269872   3.286   1.883   3.979  0.7829  0.1160  0.5029
16153TIP3   OH269873   1.393   4.449   1.976  0.0050 -0.0186  0.1385
16153TIP3    H169874   1.396   4.381   1.909 -0.0683 -1.0511  1.1505
16153TIP3    H269875   1.479   4.445   2.019 -0.3719 -0.2058  0.8971
16154TIP3   OH269876   4.422   4.827   3.207  0.8131 -0.1515 -0.3340
16154TIP3    H169877   4.405   4.781   3.125 -0.5031 -0.1703 -0.0679
16154TIP3    H269878   4.445   4.758   3.269 -1.7360 -0.5935  0.2176
16155TIP3   OH269879   4.459   1.877  11.659  0.3113 -0.0732  0.2602
16155TIP3    H169880   4.423   1.798  11.699 -0.1047 -0.2272 -0.4028
16155TIP3    H269881   4.451   1.944  11.727  0.8816 -0.6486  0.9097
16156TIP3   OH269882   3.706   2.520  13.989  0.0463  0.2595  0.1751
16156TIP3    H169883   3.624   2.471  13.978  0.8982 -1.3541  0.6782
16156TIP3    H269884   3.679   2.610  14.008 -1.5799  0.3094 -2.0069
16157TIP3   OH269885   0.679   1.918   1.364 -0.1085  0.0045  0.1863
16157TIP3    H169886   0.625   1.843   1.342 -2.4661  1.5612  0.3416
16157TIP3    H269887   0.666   1.932   1.458 -1.1076  1.5760 -0.1388
16158TIP3   OH269888   6.591   4.486   1.806 -0.1552 -0.8623 -0.2482
16158TIP3    H169889   6.573   4.549   1.736 -0.9244 -2.8393 -1.9242
16158TIP3    H269890   6.685   4.495   1.823 -0.4114  1.3367  0.2201
16159TIP3   OH269891   2.538   2.202  11.123  0.4600  0.1929  0.8529
16159TIP3    H169892   2.628   2.233  11.129  1.2761 -1.6766 -0.6044
16159TIP3    H269893   2.519   2.204  11.029 -0.4607 -0.8825  0.9992
16160TIP3   OH269894   0.016   4.801   2.437  0.0074 -0.0626 -0.1867
16160TIP3    H169895  -0.068   4.791   2.392  0.7729  1.4869 -2.1117
16160TIP3    H269896   0.000   4.767   2.525 -3.1382  1.7201  0.0936
16161TIP3   OH269897   4.782   3.503  15.259 -0.4071 -0.2513 -0.3133
16161TIP3    H169898   4.794   3.408  15.265 -0.0718 -0.2573 -0.9820
16161TIP3    H269899   4.815   3.536  15.343 -1.8235 -0.8290  0.5026
16162TIP3   OH269900   0.416   1.970  14.891 -0.3693  0.1939 -0.7480
16162TIP3    H169901   0.383   2.060  14.894 -0.4210  0.2716  3.8732
16162TIP3    H269902   0.342   1.916  14.918  0.1492 -1.0724 -1.7586
16163TIP3   OH269903   0.875   0.212   5.893  0.4292 -0.5899 -0.6230
16163TIP3    H169904   0.791   0.174   5.917  0.6211 -1.0703 -0.6994
16163TIP3    H269905   0.856   0.267   5.817  0.4399 -1.8804 -1.5805
16164TIP3   OH269906   0.213   0.347  16.637 -0.0534  0.2203 -0.2902
16164TIP3    H169907   0.120   0.333  16.655 -0.3995 -0.2488 -2.2180
16164TIP3    H269908   0.233   0.432  16.677 -1.1211  0.0137  0.7216
16165TIP3   OH269909   5.958   4.220   4.367 -0.2836 -0.1833  0.5944
16165TIP3    H169910   6.038   4.203   4.417 -0.7747 -2.6937  0.6473
16165TIP3    H269911   5.888   4.212   4.431 -0.6549  1.1251  0.3668
16166TIP3   OH269912   2.105   1.847  14.992 -0.4973 -0.1161  0.0593
16166TIP3    H169913   2.135   1.936  14.976  0.9559 -0.4004  1.0191
16166TIP3    H269914   2.110   1.804  14.906  0.4100  0.2742 -0.0911
16167TIP3   OH269915   5.330   3.029  12.027 -0.3249 -0.0743  0.0360
16167TIP3    H169916   5.282   3.112  12.029 -0.6578 -0.2593  2.1608
16167TIP3    H269917   5.409   3.048  11.976 -1.4639  0.8872 -1.4679
16168TIP3   OH269918   0.137   4.397  13.496  0.0840  0.1342  0.5466
16168TIP3    H169919   0.118   4.310  13.461 -0.0129  0.2212  0.3739
16168TIP3    H269920   0.230   4.396  13.516  0.3400  0.3662 -0.5615
16169TIP3   OH269921   3.803   2.639  11.242  0.7392  0.4654  0.1230
16169TIP3    H169922   3.830   2.621  11.333 -1.7436  0.3501  0.9010
16169TIP3    H269923   3.741   2.570  11.221 -1.6067  2.5621 -0.2840
16170TIP3   OH269924   1.089   2.563   0.997  0.8119 -0.7768  0.2970
16170TIP3    H169925   1.178   2.594   0.980  0.4395 -0.4527 -1.1796
16170TIP3    H269926   1.044   2.637   1.036  1.2247 -0.9935  1.2004
16171TIP3   OH269927   5.203   5.123   1.232 -0.7112  0.3740  0.4530
16171TIP3    H169928   5.161   5.159   1.154  0.8607 -0.2682 -0.7636
16171TIP3    H269929   5.296   5.146   1.221  0.0833 -2.4411  0.4606
16172TIP3   OH269930   0.017   5.756  14.387 -0.1965  0.4259 -0.0665
16172TIP3    H169931   0.091   5.752  14.326  0.2012 -2.4475  0.4329
16172TIP3    H269932   0.046   5.816  14.456  1.4519 -0.1522 -0.2008
16173TIP3   OH269933   1.027   4.806  16.828 -0.2422  0.3817  0.4256
16173TIP3    H169934   1.001   4.893  16.860 -0.8995 -0.0943  1.1910
16173TIP3    H269935   1.066   4.763  16.904  0.8107  0.2719 -0.1484
16174TIP3   OH269936   5.156   2.621  15.299  0.1573 -0.6554 -0.1851
16174TIP3    H169937   5.117   2.644  15.383 -0.2246  2.8299 -1.1465
16174TIP3    H269938   5.082   2.591  15.246  0.1243 -1.3327  0.2412
16175TIP3   OH269939   3.221   0.786   5.846 -0.1405 -0.2912  0.1112
16175TIP3    H169940   3.242   0.822   5.932 -1.1362 -0.4762  0.4426
16175TIP3    H269941   3.130   0.810   5.831 -0.6971 -2.1905  0.1182
16176TIP3   OH269942   2.764   0.209  12.332 -0.0157  1.0246 -1.0816
16176TIP3    H169943   2.740   0.188  12.423  1.2933  2.6831 -0.2978
16176TIP3    H269944   2.744   0.302  12.324  3.0143  1.7287 -1.3847
16177TIP3   OH269945   6.611   2.905   5.947  0.0930 -0.3422  0.5441
16177TIP3    H169946   6.563   2.841   5.895 -0.1879  0.2668  0.0335
16177TIP3    H269947   6.549   2.935   6.013  0.1683 -0.4758  0.6737
16178TIP3   OH269948   4.622   2.105  12.147  0.4407 -0.3458 -0.5881
16178TIP3    H169949   4.692   2.051  12.183 -1.0331 -2.1002 -0.2112
16178TIP3    H269950   4.585   2.052  12.076 -1.1013  0.1015 -0.1537
16179TIP3   OH269951   0.508   3.234  15.175 -0.0049  0.2517  0.0062
16179TIP3    H169952   0.582   3.293  15.190  0.5450  0.1256 -1.9829
16179TIP3    H269953   0.446   3.286  15.124 -0.2717 -0.3711 -0.3119
16180TIP3   OH269954   4.892   2.090   3.389  0.1586 -0.5467  0.4976
16180TIP3    H169955   4.824   2.031   3.356  0.1687 -0.0656 -0.4211
16180TIP3    H269956   4.947   2.108   3.312 -0.6758  1.7891  0.3718
16181TIP3   OH269957   3.654   0.687   1.141 -0.6121  0.1790 -0.5927
16181TIP3    H169958   3.723   0.690   1.074 -1.2107  2.2170 -1.1858
16181TIP3    H269959   3.575   0.660   1.093 -0.2871 -2.2628  0.1049
16182TIP3   OH269960   2.631   4.667   4.644 -0.2791  0.1452  0.2531
16182TIP3    H169961   2.687   4.744   4.656  2.3332 -1.2690 -1.6785
16182TIP3    H269962   2.666   4.603   4.706 -1.1593 -0.1153  0.4900
16183TIP3   OH269963   2.791   4.822  16.352 -0.2326 -0.0776  0.0799
16183TIP3    H169964   2.733   4.787  16.285 -0.3702 -1.0501  0.6799
16183TIP3    H269965   2.844   4.887  16.306 -1.0432  0.0414 -0.7219
16184TIP3   OH269966   4.088   0.889  11.222 -0.0924  0.3415 -0.1764
16184TIP3    H169967   4.095   0.948  11.147 -1.6964  0.3394 -0.3642
16184TIP3    H269968   3.994   0.883  11.239  0.1451 -0.9280  0.8306
16185TIP3   OH269969   0.103   2.973  12.745  0.7562 -0.0912  0.1235
16185TIP3    H169970   0.172   2.997  12.807 -0.3435 -1.2847  1.9041
16185TIP3    H269971   0.026   2.954  12.800 -0.3432 -1.0050 -1.6165
16186TIP3   OH269972   5.983   6.708  11.306  0.9595  0.1937  0.1095
16186TIP3    H169973   6.059   6.660  11.340  1.0298  1.4646  1.8865
16186TIP3    H269974   5.985   6.792  11.353 -0.8379  0.7512 -0.7397
16187TIP3   OH269975   0.335   4.536   6.402 -0.0390 -0.2498  0.1477
16187TIP3    H169976   0.302   4.495   6.482 -1.1728 -0.7133 -0.5396
16187TIP3    H269977   0.378   4.616   6.433 -1.9608  0.4778  1.0755
16188TIP3   OH269978   0.600   0.468   1.132 -0.1520 -0.4931  0.3516
16188TIP3    H169979   0.620   0.392   1.187  1.2827 -0.2050  0.2665
16188TIP3    H269980   0.685   0.507   1.114 -0.8970  1.4823  0.8610
16189TIP3   OH269981   2.619   2.469  14.366  0.1166 -0.2596 -0.0679
16189TIP3    H169982   2.538   2.516  14.345  0.2548  0.7351  1.4800
16189TIP3    H269983   2.688   2.526  14.334  0.2314 -0.6082 -0.4413
16190TIP3   OH269984   2.862   4.015   4.456  0.7156  0.4688  0.1789
16190TIP3    H169985   2.772   3.991   4.481 -0.1361 -0.7318 -3.4148
16190TIP3    H269986   2.908   3.931   4.452  0.4211  0.3250 -3.0392
16191TIP3   OH269987   3.242   2.859   3.655  0.2364  0.1656  0.0562
16191TIP3    H169988   3.270   2.919   3.586 -1.1669  2.3595  1.2576
16191TIP3    H269989   3.262   2.905   3.737 -0.2150 -1.3398  1.0601
16192TIP3   OH269990   3.673   1.955  13.117 -0.0757 -0.4187  0.3453
16192TIP3    H169991   3.578   1.944  13.119 -0.0670 -0.6198 -0.2055
16192TIP3    H269992   3.686   2.042  13.079 -0.0215 -0.7846 -0.4877
16193TIP3   OH269993   6.022   2.765   5.117 -0.2698 -0.1793  0.1135
16193TIP3    H169994   5.941   2.764   5.167 -0.0170 -1.3188  0.5290
16193TIP3    H269995   6.023   2.850   5.074 -0.5425  0.7853  1.9520
16194TIP3   OH269996   2.913   4.008  13.822 -0.0954 -0.2347  0.0528
16194TIP3    H169997   3.003   3.981  13.803  0.5434  1.0139  1.1398
16194TIP3    H269998   2.906   4.003  13.917 -0.1622  2.5419  0.2839
16195TIP3   OH269999   2.037   0.518  14.651  0.4998 -0.0661  0.7260
16195TIP3    H170000   2.032   0.523  14.747  1.0449 -0.1959  0.7661
16195TIP3    H270001   2.009   0.605  14.621 -2.2553 -0.8150  0.8743
16196TIP3   OH270002   1.015   1.062  12.501  0.0381  0.0187 -0.3997
16196TIP3    H170003   1.056   1.058  12.587  2.1481 -1.8209 -1.3569
16196TIP3    H270004   1.084   1.033  12.441 -1.5346  0.6334 -2.6487
16197TIP3   OH270005   4.191   4.104  12.048 -0.2434 -0.0366  0.5786
16197TIP3    H170006   4.217   4.023  12.093  2.1292 -0.1215 -0.7675
16197TIP3    H270007   4.253   4.170  12.079  0.9157  0.0934 -1.8052
16198TIP3   OH270008   6.713   0.844  12.954 -0.3305  0.5662  0.1836
16198TIP3    H170009   6.774   0.883  13.017 -0.7257  0.7480  0.4604
16198TIP3    H270010   6.632   0.894  12.965 -1.3583 -1.2526  1.6226
16199TIP3   OH270011   2.372   3.003   1.990  0.8096  0.3572  0.2923
16199TIP3    H170012   2.443   3.025   2.050  0.1521  0.5802  1.0110
16199TIP3    H270013   2.329   3.087   1.972  0.8884  0.2610 -0.3358
16200TIP3   OH270014   2.568   1.931   3.660  0.3983  0.3694 -0.0732
16200TIP3    H170015   2.574   1.837   3.675 -1.7958  0.0490 -0.9273
16200TIP3    H270016   2.645   1.952   3.608  0.0498 -1.2847 -1.3220
16201TIP3   OH270017   4.929   2.499  15.193  0.2734 -0.5566 -0.0964
16201TIP3    H170018   4.966   2.430  15.248  1.6810  0.4342  0.2512
16201TIP3    H270019   4.835   2.495  15.209  0.6201 -0.3087  2.4134
16202TIP3   OH270020   3.687   0.475   5.144  0.5475  0.4894  0.0790
16202TIP3    H170021   3.647   0.389   5.130  0.5245  0.3992  0.6687
16202TIP3    H270022   3.623   0.522   5.197  1.4160  0.1700  1.4577
16203TIP3   OH270023   3.903   4.427   6.237 -0.0732  0.1700  0.3884
16203TIP3    H170024   3.830   4.463   6.289 -0.9460  0.3277 -0.8923
16203TIP3    H270025   3.941   4.359   6.293 -1.8816 -0.6591  0.6792
16204TIP3   OH270026   4.891   4.371   1.876 -0.3686 -0.2189 -0.4078
16204TIP3    H170027   4.797   4.380   1.891  0.0435  1.8994  1.3730
16204TIP3    H270028   4.929   4.370   1.963  1.4624  2.3514 -1.0586
16205TIP3   OH270029   4.528   5.406   2.085  0.5684 -0.1311  0.5619
16205TIP3    H170030   4.543   5.493   2.122  0.3701  0.0473  0.2306
16205TIP3    H270031   4.549   5.415   1.992  1.1361 -0.5925  0.6432
16206TIP3   OH270032   3.097   2.563   1.739  0.4976  0.7802  0.1995
16206TIP3    H170033   3.069   2.520   1.659  2.4777  1.2433 -0.7999
16206TIP3    H270034   3.017   2.604   1.774 -0.5545 -0.1170 -1.0691
16207TIP3   OH270035   1.250   1.093   4.626 -0.4163  0.8323 -0.7335
16207TIP3    H170036   1.308   1.062   4.695 -1.2185 -1.8363 -1.1541
16207TIP3    H270037   1.306   1.104   4.550  0.1037  1.7244 -0.2376
16208TIP3   OH270038   0.028   2.610  13.630  0.1825 -0.1373 -0.5212
16208TIP3    H170039   0.119   2.578  13.629 -0.2905 -1.5656 -0.6099
16208TIP3    H270040   0.025   2.671  13.703  1.4681  0.7547 -1.1719
16209TIP3   OH270041   5.320   6.076  12.740  0.1347 -0.0156  0.0715
16209TIP3    H170042   5.381   6.007  12.716 -0.7358 -0.3283 -1.3653
16209TIP3    H270043   5.256   6.077  12.669  0.3806  2.5834 -0.2166
16210TIP3   OH270044   0.212   5.204  14.458 -0.5524  0.2032  0.0284
16210TIP3    H170045   0.308   5.204  14.448 -0.5433 -1.6724 -0.2664
16210TIP3    H270046   0.197   5.251  14.540  0.7237 -0.6108  0.7700
16211TIP3   OH270047   6.585   1.192  11.386  0.8054 -0.1764  0.0117
16211TIP3    H170048   6.506   1.157  11.346  0.0303  0.5319  0.8776
16211TIP3    H270049   6.628   1.240  11.316 -1.2055  2.1712  0.2581
16212TIP3   OH270050   0.875   1.795  14.653 -0.5332 -0.3785  0.3173
16212TIP3    H170051   0.878   1.707  14.615 -0.9111  0.2898 -1.3087
16212TIP3    H270052   0.790   1.830  14.628 -0.6210  0.2639  1.4386
16213TIP3   OH270053   2.127   5.306   3.561 -0.1008  0.1278  0.3651
16213TIP3    H170054   2.117   5.230   3.504 -0.5993  0.0837  0.5096
16213TIP3    H270055   2.205   5.287   3.614  0.1632  0.0150 -0.0566
16214TIP3   OH270056   0.392   6.097  13.025 -0.6872 -0.4262 -0.0026
16214TIP3    H170057   0.392   6.138  12.939  0.4141 -0.7681 -0.1796
16214TIP3    H270058   0.381   6.004  13.007 -0.8613 -0.4566  0.2558
16215TIP3   OH270059   6.175   6.745   3.431 -0.0072  0.0429 -0.0829
16215TIP3    H170060   6.092   6.698   3.437  0.6850 -1.1660  0.5164
16215TIP3    H270061   6.173   6.788   3.346 -1.1736 -0.0967 -0.1382
16216TIP3   OH270062   0.198   6.244  15.800 -0.4842 -1.1513  0.7694
16216TIP3    H170063   0.228   6.299  15.872  0.8821 -1.5340  0.5177
16216TIP3    H270064   0.113   6.280  15.776  1.0123  1.9154 -0.4566
16217TIP3   OH270065   6.494   2.387  14.581 -0.0212  0.6834 -0.2395
16217TIP3    H170066   6.506   2.332  14.659 -5.5152 -2.4876 -1.0906
16217TIP3    H270067   6.566   2.363  14.523  1.9666  0.1324  2.2734
16218TIP3   OH270068   4.888   3.635  16.955 -0.0882  1.1220 -0.6747
16218TIP3    H170069   4.976   3.597  16.945 -0.1902  0.6816  0.0527
16218TIP3    H270070   4.873   3.636  17.049 -1.4387 -0.1216 -0.8346
16219TIP3   OH270071   4.770   6.220  11.681 -0.9370  0.3525  0.5232
16219TIP3    H170072   4.698   6.234  11.742 -1.4863 -1.0764  0.2322
16219TIP3    H270073   4.778   6.303  11.633 -1.3263  1.0583  1.6365
16220TIP3   OH270074   6.597   5.326   3.794  0.5752  0.2118  0.4999
16220TIP3    H170075   6.628   5.366   3.875  0.2199 -0.0157  0.7484
16220TIP3    H270076   6.601   5.397   3.730  0.3460  0.5336  0.8422
16221TIP3   OH270077   3.010   3.841  15.797  0.1338 -0.4981 -0.1338
16221TIP3    H170078   2.960   3.760  15.802  0.5387 -0.7611 -0.2846
16221TIP3    H270079   3.046   3.841  15.708  0.4432 -0.3412 -0.0098
16222TIP3   OH270080   6.400   1.105  12.665 -0.1642 -0.1390  0.1341
16222TIP3    H170081   6.351   1.125  12.745  1.5340 -1.2948  1.5601
16222TIP3    H270082   6.335   1.071  12.604 -1.8807  2.7415  0.1848
16223TIP3   OH270083   6.031   1.538   6.127  0.0037 -0.0430  0.5313
16223TIP3    H170084   6.033   1.497   6.213 -2.9162 -1.4507  0.0532
16223TIP3    H270085   5.960   1.601   6.132 -0.5588 -0.5125 -0.9372
16224TIP3   OH270086   0.365   2.633   5.104  0.1342 -0.3485  0.0939
16224TIP3    H170087   0.349   2.692   5.178 -1.3487 -0.3487 -0.1986
16224TIP3    H270088   0.322   2.551   5.128  1.2903 -1.0020  0.0391
16225TIP3   OH270089   2.227   3.938   0.169  0.7480 -0.6906 -0.1245
16225TIP3    H170090   2.186   4.025   0.174 -0.9139 -1.3890 -0.9915
16225TIP3    H270091   2.316   3.956   0.140  0.3927  0.7244 -0.4356
16226TIP3   OH270092   4.480   4.160   1.969 -0.9088 -0.0107  0.1538
16226TIP3    H170093   4.391   4.195   1.982 -1.0301  0.3319 -1.4631
16226TIP3    H270094   4.471   4.097   1.898 -0.2898 -1.8764  1.6301
16227TIP3   OH270095   6.680   4.980   4.769  0.7800 -0.1565  0.1911
16227TIP3    H170096   6.635   4.919   4.829  1.3730  1.6825  2.6614
16227TIP3    H270097   6.621   5.054   4.762  1.8524  0.7831  0.6871
16228TIP3   OH270098   4.235   0.960   1.922 -0.2856 -0.6032  0.4278
16228TIP3    H170099   4.255   0.927   1.835  0.5140  2.7869 -0.8399
16228TIP3    H270100   4.320   0.970   1.965 -0.0170  3.0538 -0.6639
16229TIP3   OH270101   0.241   2.031  15.734  0.2194  0.1317 -0.0853
16229TIP3    H170102   0.304   2.091  15.695 -0.5684  1.5198  0.7180
16229TIP3    H270103   0.158   2.078  15.731 -0.6162 -1.2808 -0.2445
16230TIP3   OH270104   6.682   3.605   0.608 -0.4410 -0.8564 -0.2285
16230TIP3    H170105   6.638   3.649   0.680  1.2996  0.4838  0.0879
16230TIP3    H270106   6.737   3.539   0.651  0.5371 -0.1090 -0.3105
16231TIP3   OH270107   0.372   2.368   3.525 -0.0694 -0.0452  0.1209
16231TIP3    H170108   0.456   2.325   3.539 -0.3564 -1.3616 -1.7775
16231TIP3    H270109   0.308   2.297   3.528 -0.8272  0.5732 -0.8728
16232TIP3   OH270110   0.079   2.657   4.998  0.2217  0.4096 -0.1860
16232TIP3    H170111   0.114   2.718   4.933 -2.3612  0.7628 -1.3457
16232TIP3    H270112   0.089   2.704   5.081  2.0966  0.6181 -0.4862
16233TIP3   OH270113   4.079   4.096   5.962 -0.3724 -0.1384 -0.0843
16233TIP3    H170114   4.057   4.011   5.923  0.4855  0.0413 -0.9972
16233TIP3    H270115   4.099   4.076   6.053 -0.1674 -0.9227 -0.2950
16234TIP3   OH270116   1.208   6.766  12.551  0.2484  0.9937 -0.2349
16234TIP3    H170117   1.114   6.756  12.563  0.4691 -0.0281  0.8069
16234TIP3    H270118   1.241   6.786  12.639  1.0215  1.1878 -0.5621
16235TIP3   OH270119   0.150   0.717  12.804 -0.3282 -0.0462  0.4319
16235TIP3    H170120   0.098   0.789  12.840 -0.7698 -0.5028  0.7153
16235TIP3    H270121   0.231   0.718  12.856 -0.5265 -0.0400  0.7451
16236TIP3   OH270122   3.668   3.379   0.233  0.2718 -0.0852  0.2548
16236TIP3    H170123   3.581   3.419   0.233  0.1623 -0.1832 -1.7727
16236TIP3    H270124   3.661   3.306   0.294 -0.5061  0.9854  1.4959
16237TIP3   OH270125   1.363   3.434   5.504  0.3003  0.0311  0.3322
16237TIP3    H170126   1.379   3.364   5.567  1.4411 -0.1846 -0.1506
16237TIP3    H270127   1.393   3.397   5.420  2.3544  1.5753  0.3122
16238TIP3   OH270128   1.893   4.944  14.532  0.5305 -0.6791  0.0431
16238TIP3    H170129   1.913   5.013  14.469  4.6971  0.4711  2.2195
16238TIP3    H270130   1.806   4.965  14.566  0.2090  1.3878 -1.8802
16239TIP3   OH270131   0.600   1.726  11.255 -0.2372 -0.5101 -0.0853
16239TIP3    H170132   0.528   1.682  11.210  0.9010 -1.7926 -0.7219
16239TIP3    H270133   0.561   1.761  11.335 -1.6157 -0.9359 -0.5473
16240TIP3   OH270134   5.744   3.472   6.532 -0.3819  0.0231 -0.3754
16240TIP3    H170135   5.825   3.508   6.568  0.8106 -1.5209 -1.3827
16240TIP3    H270136   5.694   3.549   6.504  0.5389  1.0306  0.6144
16241TIP3   OH270137   4.772   3.398  12.222  0.1771 -0.3335  0.0232
16241TIP3    H170138   4.690   3.400  12.173  0.2774 -0.2801 -0.1428
16241TIP3    H270139   4.758   3.459  12.294  0.5210  0.6309 -0.7179
16242TIP3   OH270140   1.185   3.728   2.918 -0.0452 -0.2148 -0.4773
16242TIP3    H170141   1.275   3.720   2.886  0.7810 -0.1237  1.6698
16242TIP3    H270142   1.194   3.736   3.013 -2.3817 -1.3249 -0.0894
16243TIP3   OH270143   1.227   2.572  15.619 -0.2956 -0.0747  0.3953
16243TIP3    H170144   1.212   2.619  15.537 -0.1345 -1.5265 -0.4916
16243TIP3    H270145   1.322   2.572  15.629 -0.3700  1.9637  1.7453
16244TIP3   OH270146   1.355   4.788  15.645  0.0603  0.0889 -0.1489
16244TIP3    H170147   1.345   4.695  15.663  0.5450  0.2911  1.2477
16244TIP3    H270148   1.267   4.818  15.623 -0.5427 -0.2622  1.6223
16245TIP3   OH270149   5.886   4.746   5.243  0.0758 -0.2020 -0.0141
16245TIP3    H170150   5.813   4.720   5.299  0.1590  1.0927  0.7154
16245TIP3    H270151   5.845   4.779   5.163 -0.0470 -1.7468 -0.6421
16246TIP3   OH270152   6.715   1.481  11.874 -0.5549 -0.1470 -0.2569
16246TIP3    H170153   6.800   1.488  11.917  0.2138 -0.2429 -1.6740
16246TIP3    H270154   6.701   1.387  11.864 -0.2525 -0.1193 -1.0528
16247TIP3   OH270155   2.148   0.931  11.430 -0.1815  0.0824 -0.1689
16247TIP3    H170156   2.112   1.019  11.422  1.3835  0.9638  1.6832
16247TIP3    H270157   2.110   0.896  11.511  0.0037 -0.5285 -0.3347
16248TIP3   OH270158   6.111   0.861  15.035  0.6672  0.2837  0.4197
16248TIP3    H170159   6.056   0.854  14.957  0.6714  1.4034  0.3051
16248TIP3    H270160   6.151   0.774  15.044 -1.3127 -0.6786  0.6622
16249TIP3   OH270161   0.857   6.620  12.126  0.8390  0.2632 -0.2722
16249TIP3    H170162   0.815   6.544  12.086  1.9576 -0.6179  0.1749
16249TIP3    H270163   0.869   6.596  12.218  1.2780  0.9441 -0.1448
16250TIP3   OH270164   1.295   0.625   5.963 -0.6356 -0.7827 -0.2820
16250TIP3    H170165   1.302   0.665   6.049  0.3593 -0.3361 -0.5531
16250TIP3    H270166   1.232   0.679   5.916 -1.2122 -1.0542  0.1700
16251TIP3   OH270167   1.265   2.424  16.634  0.4112  0.0591 -0.2530
16251TIP3    H170168   1.274   2.405  16.541 -2.6887 -0.6676 -0.5004
16251TIP3    H270169   1.220   2.508  16.637 -0.6568 -0.5270  0.5591
16252TIP3   OH270170   5.394   4.464   5.995 -0.3001  0.6680  0.7245
16252TIP3    H170171   5.447   4.501   5.925 -1.4853 -0.5285 -0.8962
16252TIP3    H270172   5.321   4.525   6.006 -1.6976 -0.5301 -1.2236
16253TIP3   OH270173   4.629   0.733  12.991  0.3416 -0.2006  0.5298
16253TIP3    H170174   4.632   0.675  13.067 -0.9254 -1.5658 -0.4102
16253TIP3    H270175   4.570   0.803  13.016  1.0156  0.1136  1.2805
16254TIP3   OH270176   6.672   2.919   2.914 -0.2727 -0.2185 -0.2872
16254TIP3    H170177   6.742   2.972   2.951 -0.9216 -0.3509  1.2219
16254TIP3    H270178   6.716   2.838   2.886  0.1175 -0.5471  1.1832
16255TIP3   OH270179   0.948   1.419  11.536  0.1179 -0.1421 -0.2240
16255TIP3    H170180   1.001   1.383  11.464  1.2907 -2.5361  1.7198
16255TIP3    H270181   0.861   1.430  11.498  0.7335 -1.1457 -2.0741
16256TIP3   OH270182   1.926   0.357  17.031  0.4954  0.2129 -0.3830
16256TIP3    H170183   1.879   0.361  16.948  0.6909 -0.1155 -0.5118
16256TIP3    H270184   1.905   0.440  17.075 -0.9231 -0.2961 -0.0471
16257TIP3   OH270185   6.640   0.311  14.244  0.3342  0.6645 -0.0650
16257TIP3    H170186   6.568   0.344  14.297 -0.7371 -0.2739 -0.8857
16257TIP3    H270187   6.620   0.218  14.231  0.3112  0.9427 -2.4624
16258TIP3   OH270188   5.756   2.335  11.091  0.0076  0.1664 -0.6211
16258TIP3    H170189   5.816   2.364  11.022  0.0279 -2.4572 -1.8522
16258TIP3    H270190   5.678   2.306  11.045 -0.5468 -0.3379  0.5833
16259TIP3   OH270191   3.468   3.072  10.699  0.1025  0.3983 -0.7632
16259TIP3    H170192   3.544   3.091  10.643  1.4606  0.0749  0.8874
16259TIP3    H270193   3.506   3.037  10.780 -1.9206 -2.5730 -0.9250
16260TIP3   OH270194   5.832   3.290   1.734 -0.3547  0.5804  0.1445
16260TIP3    H170195   5.758   3.324   1.785 -1.1324 -1.0020  0.1217
16260TIP3    H270196   5.821   3.328   1.647 -0.2038  1.6247  0.5561
16261TIP3   OH270197   6.517   4.766  17.165  0.3009 -0.1893 -0.3884
16261TIP3    H170198   6.492   4.674  17.176  0.4833 -0.2446 -0.4291
16261TIP3    H270199   6.541   4.795  17.254 -2.5939  0.6842  0.2287
16262TIP3   OH270200   3.941   2.428   2.643 -0.3552 -0.0557 -0.0795
16262TIP3    H170201   3.896   2.355   2.601  1.8398 -1.3178 -0.4066
16262TIP3    H270202   3.907   2.428   2.733 -1.7737 -0.2280 -0.5811
16263TIP3   OH270203   0.892   3.320   5.511 -0.2890 -0.2408 -0.7121
16263TIP3    H170204   0.977   3.278   5.526 -1.2748 -1.7405  1.1595
16263TIP3    H270205   0.842   3.255   5.462 -1.2543 -0.6040  0.6878
16264TIP3   OH270206   1.652   2.953   0.624 -0.2112  0.3701 -0.3631
16264TIP3    H170207   1.713   2.984   0.691 -0.8802 -0.3494  0.6033
16264TIP3    H270208   1.587   3.023   0.617  0.0474  0.5969 -0.5069
16265TIP3   OH270209   1.942   0.252   1.271 -0.5693  0.0142 -0.0202
16265TIP3    H170210   2.007   0.264   1.340 -0.6604  0.6511 -0.0396
16265TIP3    H270211   1.902   0.338   1.260 -0.8738 -0.1875 -0.5510
16266TIP3   OH270212   0.677   2.225  11.112 -0.1195 -0.1585  0.4310
16266TIP3    H170213   0.593   2.191  11.143 -1.2081  0.9791 -1.1222
16266TIP3    H270214   0.668   2.226  11.016  2.1833 -1.2886  0.1329
16267TIP3   OH270215   3.665   5.732  14.626 -0.1831 -0.8407  0.3911
16267TIP3    H170216   3.754   5.698  14.630 -0.2421 -0.9606  0.8265
16267TIP3    H270217   3.642   5.749  14.718  0.3691  1.7901  0.1186
16268TIP3   OH270218   3.451   1.188  12.109  0.7006 -0.1674 -0.9594
16268TIP3    H170219   3.386   1.122  12.087  0.3760  0.1213 -0.8793
16268TIP3    H270220   3.435   1.207  12.202  1.1313 -0.3496 -0.8433
16269TIP3   OH270221   4.746   5.481  12.246  0.2013  0.0528  0.7402
16269TIP3    H170222   4.728   5.571  12.273  1.2419  1.3105 -2.3346
16269TIP3    H270223   4.668   5.454  12.199  0.2112 -0.3751  0.9625
16270TIP3   OH270224   2.628   4.234  12.533 -0.0637  0.0319  0.0235
16270TIP3    H170225   2.641   4.200  12.444 -1.0107 -2.1567  0.6498
16270TIP3    H270226   2.565   4.305  12.522  2.2357  2.0449 -1.3792
16271TIP3   OH270227   1.848   1.586   3.542 -0.0815 -0.2124  0.2046
16271TIP3    H170228   1.940   1.611   3.530  0.1597 -1.5085 -0.9380
16271TIP3    H270229   1.847   1.492   3.526 -1.3066 -0.5730  2.1646
16272TIP3   OH270230   2.842   4.754   4.900  0.2838 -0.1249  0.3667
16272TIP3    H170231   2.876   4.767   4.812  0.3113 -2.0312  0.0590
16272TIP3    H270232   2.900   4.805   4.956  0.0002  1.4811 -0.7221
16273TIP3   OH270233   3.689   5.280  14.726 -0.2445 -0.1094 -0.4184
16273TIP3    H170234   3.597   5.266  14.746 -0.0825 -0.1257  0.3419
16273TIP3    H270235   3.709   5.216  14.658 -0.4726 -0.9916  0.3181
16274TIP3   OH270236   4.730   2.198  17.228  0.3368 -0.4025 -0.2823
16274TIP3    H170237   4.706   2.289  17.247  0.3813 -0.7602  1.7283
16274TIP3    H270238   4.819   2.189  17.263  0.6800 -1.0022 -1.2679
16275TIP3   OH270239   4.180   5.117  11.742  0.0143  0.4899 -0.1833
16275TIP3    H170240   4.165   5.194  11.687  0.3759 -0.1827 -1.2587
16275TIP3    H270241   4.094   5.074  11.747  0.3420 -0.4587 -1.8426
16276TIP3   OH270242   0.258   1.675  16.138  0.0271 -0.1211 -0.2641
16276TIP3    H170243   0.305   1.596  16.110 -1.2151  0.3324 -4.2916
16276TIP3    H270244   0.314   1.747  16.111 -0.4683  0.4079  0.1023
16277TIP3   OH270245   5.388   6.479   2.968 -0.0681  0.0833 -0.0025
16277TIP3    H170246   5.457   6.458   3.030  1.3433  0.6294 -1.3380
16277TIP3    H270247   5.329   6.536   3.016  0.7936  0.1871  0.9520
16278TIP3   OH270248   5.658   3.754   1.403  0.7490 -0.2784  0.2490
16278TIP3    H170249   5.574   3.765   1.359  0.4106  0.3877  1.0452
16278TIP3    H270250   5.723   3.759   1.332  0.2637  1.5705 -0.1073
16279TIP3   OH270251   5.090   4.667   4.373  0.2376  0.2087  0.0190
16279TIP3    H170252   5.098   4.761   4.389  2.8261 -0.1616  1.4487
16279TIP3    H270253   5.173   4.631   4.402 -1.6621 -2.8898  2.0979
16280TIP3   OH270254   5.690   5.797   2.419  0.4379 -0.1903  0.1892
16280TIP3    H170255   5.675   5.882   2.378  0.6331 -0.8559 -1.3581
16280TIP3    H270256   5.776   5.770   2.387 -0.7136 -2.1202 -1.5427
16281TIP3   OH270257   4.107   1.722  12.990  0.4287  0.6513  0.4096
16281TIP3    H170258   4.175   1.788  13.003  0.5494  0.1939  2.3981
16281TIP3    H270259   4.027   1.764  13.025  0.1808  0.3276  0.2327
16282TIP3   OH270260   2.673   2.115   4.145  0.0685 -0.0292  0.0550
16282TIP3    H170261   2.700   2.037   4.193 -2.2819 -0.3997  0.9000
16282TIP3    H270262   2.629   2.081   4.067  0.0572  0.4913 -0.1700
16283TIP3   OH270263   0.604   1.215  13.715 -0.4270 -0.4763  0.6506
16283TIP3    H170264   0.686   1.248  13.753 -0.3906 -0.0617  0.2263
16283TIP3    H270265   0.543   1.210  13.789  0.0000 -0.8491  0.9799
16284TIP3   OH270266   6.196   1.093  15.194 -0.5727 -0.2632 -0.2099
16284TIP3    H170267   6.167   1.009  15.159 -0.8421 -0.4260  0.4066
16284TIP3    H270268   6.220   1.143  15.116 -0.3076 -0.9431 -0.5764
16285TIP3   OH270269   3.863   2.151   5.446  0.3631  0.0019 -0.4863
16285TIP3    H170270   3.929   2.169   5.380  1.6886  0.1734  0.8414
16285TIP3    H270271   3.809   2.230   5.449  0.3345  0.0205 -1.2833
16286TIP3   OH270272   1.055   1.370   4.397  0.3508  0.0069  0.2150
16286TIP3    H170273   1.034   1.335   4.483  0.3856 -1.4434 -0.3438
16286TIP3    H270274   1.148   1.393   4.402  1.3365 -3.2740 -0.3835
16287TIP3   OH270275   0.625   5.723   1.320  0.2694  0.1597  0.0955
16287TIP3    H170276   0.636   5.633   1.351 -2.0124 -0.4368 -0.6448
16287TIP3    H270277   0.639   5.717   1.225 -0.8079  0.3795 -0.0895
16288TIP3   OH270278   4.669   2.540   1.823 -0.4104 -0.3506 -0.1545
16288TIP3    H170279   4.637   2.630   1.836 -1.2347 -0.6680  0.1227
16288TIP3    H270280   4.753   2.538   1.869 -2.0859 -0.7310  3.2429
16289TIP3   OH270281   2.513   0.074  11.409  0.0359  0.0753  0.1472
16289TIP3    H170282   2.453   0.032  11.347 -0.8683 -1.5608  2.0053
16289TIP3    H270283   2.483   0.165  11.414 -2.8839 -0.8295  1.5477
16290TIP3   OH270284   0.776   0.496   0.238  0.3573 -0.2849 -0.4460
16290TIP3    H170285   0.803   0.406   0.260  1.2097 -0.0405 -0.4655
16290TIP3    H270286   0.680   0.493   0.239  0.3773 -0.9934  0.3745
16291TIP3   OH270287   5.025   4.382  14.780 -0.2135  0.2558 -0.7369
16291TIP3    H170288   4.939   4.386  14.738  0.0947 -0.5050 -1.4637
16291TIP3    H270289   5.039   4.289  14.797  0.9038  0.2698 -1.5457
16292TIP3   OH270290   4.900   4.294   4.436 -1.0050 -0.3335  0.2487
16292TIP3    H170291   4.810   4.302   4.405 -0.8127 -2.0332 -0.8759
16292TIP3    H270292   4.954   4.318   4.361 -0.5216  0.0232  0.7033
16293TIP3   OH270293   0.081   2.854  13.785  0.0481 -0.2357 -0.3421
16293TIP3    H170294   0.001   2.898  13.814  0.0386  0.2163 -1.0275
16293TIP3    H270295   0.144   2.925  13.772  0.0170 -0.4072 -1.5139
16294TIP3   OH270296   4.304   6.245   2.097  0.3999  0.0871 -0.5845
16294TIP3    H170297   4.376   6.190   2.068  0.5564 -0.9412  1.5520
16294TIP3    H270298   4.335   6.284   2.179 -1.0005  0.6310 -0.2801
16295TIP3   OH270299   1.360   2.204  14.870 -0.1567  0.8237 -0.1571
16295TIP3    H170300   1.329   2.294  14.867 -1.3608  0.6005  2.8091
16295TIP3    H270301   1.435   2.206  14.929  0.3285 -0.0083 -0.7166
16296TIP3   OH270302   0.789   0.167   0.981 -0.1647  0.0023  0.2659
16296TIP3    H170303   0.860   0.231   0.979  0.6967 -0.9231 -0.7925
16296TIP3    H270304   0.777   0.143   0.889 -1.2846 -0.4762  0.5258
16297TIP3   OH270305   4.514   4.817  11.619 -0.3045  0.4537 -0.3460
16297TIP3    H170306   4.515   4.815  11.715  0.4724  0.8885 -0.3420
16297TIP3    H270307   4.466   4.737  11.594 -0.8136  0.5119  0.4011
16298TIP3   OH270308   2.521   5.071   6.014 -0.0057 -0.3565  0.8314
16298TIP3    H170309   2.496   5.117   6.095  1.6126 -0.8005  1.6294
16298TIP3    H270310   2.546   4.984   6.043  3.2580  0.2935  0.3153
16299TIP3   OH270311   5.279   6.785  10.888  0.5485 -0.0188 -0.2646
16299TIP3    H170312   5.358   6.805  10.839  0.1207  1.3093 -0.4682
16299TIP3    H270313   5.220   6.859  10.870 -0.1740 -0.2237  1.0667
16300TIP3   OH270314   1.473   5.508   5.856 -1.0157  0.0376 -0.1441
16300TIP3    H170315   1.516   5.551   5.782  0.3606 -2.9235 -1.1792
16300TIP3    H270316   1.520   5.539   5.933  1.6254 -1.4037 -1.0737
16301TIP3   OH270317   4.336   0.902   5.440  0.1142 -0.3059  0.3792
16301TIP3    H170318   4.428   0.927   5.451  0.3660 -1.0540  0.0581
16301TIP3    H270319   4.322   0.901   5.345 -0.0881 -0.6678  0.4103
16302TIP3   OH270320   5.448   4.436   0.842  0.4446 -0.6503 -0.4085
16302TIP3    H170321   5.488   4.522   0.825  2.6805 -1.6785 -0.7095
16302TIP3    H270322   5.487   4.407   0.924 -2.6199 -0.1327  1.3657
16303TIP3   OH270323   3.736   3.610  16.405  0.1421  0.6291  0.1061
16303TIP3    H170324   3.731   3.624  16.310  1.8657  2.1962  0.2066
16303TIP3    H270325   3.823   3.640  16.429  0.7281 -2.1045  1.8493
16304TIP3   OH270326   6.726   0.949  12.219 -0.4185 -0.1002  0.3345
16304TIP3    H170327   6.784   0.873  12.215 -0.9253 -0.4801  0.0046
16304TIP3    H270328   6.639   0.914  12.200 -0.7241  0.4980  0.5868
16305TIP3   OH270329   6.565   3.329  11.918  0.5984 -0.2834 -0.3123
16305TIP3    H170330   6.610   3.348  11.835 -0.1413  1.7321 -0.2987
16305TIP3    H270331   6.612   3.254  11.953  0.8958 -1.2536 -2.5737
16306TIP3   OH270332   0.956   0.992   6.383  0.3072  0.0361 -0.0452
16306TIP3    H170333   0.955   1.088   6.382  1.0827  0.0572 -1.3999
16306TIP3    H270334   0.885   0.967   6.324 -1.0394 -0.2866  1.6252
16307TIP3   OH270335   4.325   2.237   0.040  0.9600 -0.0878 -0.1797
16307TIP3    H170336   4.396   2.184   0.076  2.1023 -0.7186 -3.0348
16307TIP3    H270337   4.347   2.246  -0.053 -0.1998  3.7992 -0.2553
16308TIP3   OH270338   4.920   0.360  14.989  0.2319  0.0496 -0.0157
16308TIP3    H170339   4.920   0.270  15.022  1.1212 -0.5886 -1.6063
16308TIP3    H270340   4.986   0.405  15.041  0.3024 -0.4251  0.3093
16309TIP3   OH270341   0.658   1.547   3.936 -0.6957  0.3911  0.3574
16309TIP3    H170342   0.662   1.636   3.902  0.5575 -0.0510 -0.7355
16309TIP3    H270343   0.620   1.556   4.024 -0.1250  2.0544  0.4614
16310TIP3   OH270344   0.185   2.035  16.796 -0.2702  0.7459  0.0183
16310TIP3    H170345   0.140   1.967  16.746 -0.2019  0.1955  0.6899
16310TIP3    H270346   0.159   2.117  16.754 -2.0294  0.4592  0.4857
16311TIP3   OH270347   4.418   6.410   3.567  0.3900  0.2173  0.3352
16311TIP3    H170348   4.462   6.462   3.500  2.0033  1.4275  2.2208
16311TIP3    H270349   4.343   6.463   3.593 -0.7434 -0.6430 -1.0327
16312TIP3   OH270350   2.746   1.167  12.346 -0.2736 -0.2729  0.5455
16312TIP3    H170351   2.825   1.169  12.293 -0.5688  2.3462  0.0437
16312TIP3    H270352   2.773   1.200  12.431 -1.0961  2.9736 -0.2897
16313TIP3   OH270353   5.100   4.771  11.946  0.4730  0.2897  0.1244
16313TIP3    H170354   5.173   4.829  11.969  0.7156 -0.6569  1.9553
16313TIP3    H270355   5.054   4.757  12.029 -1.1360 -0.0481 -0.7848
16314TIP3   OH270356   6.311   5.946  14.428 -0.1057  0.2796 -0.0743
16314TIP3    H170357   6.388   5.901  14.392  0.2843  1.5288 -0.8755
16314TIP3    H270358   6.344   6.031  14.456 -0.9047  0.2435  1.0293
16315TIP3   OH270359   5.879   6.086  17.167 -0.5707  0.1685 -0.2557
16315TIP3    H170360   5.852   6.172  17.199  0.2423  1.0455 -1.8298
16315TIP3    H270361   5.967   6.100  17.132  1.3746 -2.1715  3.0278
16316TIP3   OH270362   1.088   0.303  16.080 -0.5599  0.7663  0.0458
16316TIP3    H170363   1.166   0.248  16.087 -1.1850 -0.2468 -0.6384
16316TIP3    H270364   1.015   0.242  16.096 -1.3784  0.9903 -2.4989
16317TIP3   OH270365   2.797   0.894   1.130 -0.0737 -0.1781  0.0795
16317TIP3    H170366   2.880   0.874   1.087 -0.5483  1.1841 -1.5942
16317TIP3    H270367   2.821   0.923   1.218  1.5274  2.6367 -1.1520
16318TIP3   OH270368   0.144   6.149  11.727  0.1758 -0.1806 -0.5056
16318TIP3    H170369   0.147   6.107  11.641  2.3741  1.5346 -1.3755
16318TIP3    H270370   0.236   6.162  11.750 -0.3994  1.0923  1.2457
16319TIP3   OH270371   0.318   5.683  14.577 -0.0220  0.1828 -0.3394
16319TIP3    H170372   0.373   5.708  14.652  0.7267  2.5527 -1.5873
16319TIP3    H270373   0.234   5.659  14.616  0.1177  2.0420  1.2563
16320TIP3   OH270374   0.749   4.998  15.592 -0.0352 -0.5977  0.1507
16320TIP3    H170375   0.800   4.940  15.535  1.4633  1.2989 -0.5257
16320TIP3    H270376   0.782   4.979  15.680  0.4032 -0.8104 -0.0529
16321TIP3   OH270377   0.071   6.459  13.595 -0.1927  0.3443 -0.0599
16321TIP3    H170378   0.034   6.435  13.510 -2.7230  0.1103  1.0159
16321TIP3    H270379   0.014   6.529  13.627 -0.1078 -0.4297  1.9703
16322TIP3   OH270380   6.729   2.006   2.147  0.0839 -0.0158  0.2238
16322TIP3    H170381   6.788   2.035   2.216  0.3078  2.3713 -0.8691
16322TIP3    H270382   6.644   1.995   2.190  0.5182  0.0746  1.1199
16323TIP3   OH270383   4.820   3.787   2.095  0.2593  0.0683 -0.1505
16323TIP3    H170384   4.828   3.745   2.181 -0.2405 -3.5993 -1.7002
16323TIP3    H270385   4.752   3.853   2.108 -1.2043 -1.6469  1.9300
16324TIP3   OH270386   5.048   3.505   4.576 -0.1848 -0.4480 -0.2826
16324TIP3    H170387   5.143   3.493   4.574 -0.1032  0.2045 -0.5028
16324TIP3    H270388   5.013   3.416   4.583  0.3535 -1.0217 -3.3424
16325TIP3   OH270389   5.192   0.987  14.987  0.0927  0.4224  0.1510
16325TIP3    H170390   5.190   0.979  14.892  2.5095 -0.5616  0.1174
16325TIP3    H270391   5.114   0.940  15.017 -0.3746  0.2398 -1.2885
16326TIP3   OH270392   2.732   3.710   2.749  0.4762 -0.1287  0.0228
16326TIP3    H170393   2.651   3.663   2.768  0.9187 -1.2081 -0.6132
16326TIP3    H270394   2.772   3.725   2.834 -0.0757 -0.1760  0.2931
16327TIP3   OH270395   0.434   3.419  12.325 -0.1727  0.3084  0.3367
16327TIP3    H170396   0.461   3.406  12.235  0.6415 -2.2471  0.8619
16327TIP3    H270397   0.338   3.419  12.322 -0.1528 -0.1187 -0.4901
16328TIP3   OH270398   0.849   5.016  16.190  0.2238 -0.2598 -0.0565
16328TIP3    H170399   0.836   5.110  16.177  2.0703  0.5537  2.9378
16328TIP3    H270400   0.771   4.988  16.238  0.7768  0.3752  1.2751
16329TIP3   OH270401   5.468   5.351   0.751 -0.6021 -0.0056 -1.0722
16329TIP3    H170402   5.537   5.372   0.815  0.3966 -0.4055 -1.9831
16329TIP3    H270403   5.386   5.361   0.800  0.0774  0.9030 -0.0747
16330TIP3   OH270404   3.812   4.634  12.611 -0.2067  0.1012  0.3015
16330TIP3    H170405   3.866   4.601  12.682  0.0474  0.9717  0.5226
16330TIP3    H270406   3.871   4.640  12.536 -0.0730  0.7206  0.4510
16331TIP3   OH270407   3.554   3.126   3.838  0.3477 -0.4326  0.0778
16331TIP3    H170408   3.594   3.078   3.765 -1.4807 -4.0182  1.2046
16331TIP3    H270409   3.623   3.132   3.904  0.8053 -0.9183 -0.3558
16332TIP3   OH270410   5.182   1.186  13.797 -0.4114 -0.2343  0.2942
16332TIP3    H170411   5.150   1.246  13.865 -1.8959 -2.0235  1.2537
16332TIP3    H270412   5.244   1.129  13.842 -0.7654 -0.8992 -0.0544
16333TIP3   OH270413   1.635   4.849  15.212 -0.2215 -0.0412  0.1824
16333TIP3    H170414   1.651   4.788  15.284  1.3588  0.6126  0.4182
16333TIP3    H270415   1.685   4.927  15.235  0.5585  0.0860 -1.7791
16334TIP3   OH270416   2.552   3.223  12.994 -0.0158 -1.0209 -0.0055
16334TIP3    H170417   2.600   3.203  12.913 -0.9569 -0.1061 -0.8255
16334TIP3    H270418   2.462   3.195  12.975 -0.3345 -0.4071  0.5640
16335TIP3   OH270419   4.762   0.990  12.977  0.0915  0.2378 -0.2422
16335TIP3    H170420   4.844   1.022  12.941 -0.2537  1.3450 -0.0762
16335TIP3    H270421   4.781   0.901  13.006  2.1538  1.5313  2.8198
16336TIP3   OH270422   6.671   3.532   0.349  0.0003 -0.0286  0.8447
16336TIP3    H170423   6.733   3.461   0.368  0.5868  0.7437  1.9620
16336TIP3    H270424   6.663   3.580   0.432 -1.2712  0.5354  0.4254
16337TIP3   OH270425   2.622   1.290  11.225  0.3314 -0.2262 -0.1133
16337TIP3    H170426   2.678   1.337  11.286 -0.9686  0.2917  0.7263
16337TIP3    H270427   2.676   1.218  11.193  1.4978  0.3244  0.5667
16338TIP3   OH270428   5.118   5.832  12.934  0.1866  0.5055 -0.2029
16338TIP3    H170429   5.076   5.917  12.939 -0.8880  0.1792 -2.5486
16338TIP3    H270430   5.098   5.800  12.846 -1.6029 -3.2559  1.3578
16339TIP3   OH270431   0.334   5.657   3.735  0.9684 -0.4869 -0.2540
16339TIP3    H170432   0.289   5.655   3.820  1.5419  2.5670  0.2389
16339TIP3    H270433   0.416   5.704   3.753  0.8098  0.8096 -2.5868
16340TIP3   OH270434   0.932   2.585  10.281 -0.5016 -0.4641  0.0485
16340TIP3    H170435   0.993   2.577  10.355  1.0776  0.0630 -1.1291
16340TIP3    H270436   0.851   2.547  10.312  0.0547 -0.0657  2.1252
16341TIP3   OH270437   3.162   3.248   5.483 -0.8659  0.5796  0.1023
16341TIP3    H170438   3.132   3.269   5.394 -1.5952  1.6873  0.5925
16341TIP3    H270439   3.251   3.217   5.471 -1.5672 -1.0547 -1.2050
16342TIP3   OH270440   1.822   3.054  10.610  0.0249 -0.2835 -0.6441
16342TIP3    H170441   1.831   3.042  10.516 -0.0498  0.5005 -0.7615
16342TIP3    H270442   1.817   3.149  10.621  1.8636 -0.2512  0.3032
16343TIP3   OH270443   1.387   3.480   2.384  0.1713  0.4126 -0.0941
16343TIP3    H170444   1.364   3.389   2.403 -2.8942  0.7926 -1.4179
16343TIP3    H270445   1.375   3.489   2.290 -0.7619  2.4422  0.1549
16344TIP3   OH270446   4.429   5.406   1.823 -0.4458  1.0837 -0.4081
16344TIP3    H170447   4.461   5.335   1.767  0.1892  0.7452  0.3562
16344TIP3    H270448   4.378   5.462   1.765 -0.6053  0.2238 -1.1117
16345TIP3   OH270449   1.509   2.390   0.538  0.1176  0.3367  1.1902
16345TIP3    H170450   1.561   2.461   0.501  1.3834 -2.0582 -2.0917
16345TIP3    H270451   1.572   2.338   0.588  0.8001 -1.7567 -1.5880
16346TIP3   OH270452   2.799   5.539  14.942 -0.1344  0.0879  0.0723
16346TIP3    H170453   2.793   5.570  14.852  0.4944  2.2854  0.7180
16346TIP3    H270454   2.714   5.499  14.959 -0.7453  0.8242 -1.0981
16347TIP3   OH270455   5.429   0.532   1.869  0.5192  0.1055  0.6938
16347TIP3    H170456   5.432   0.580   1.787  0.2282  1.2326  1.3165
16347TIP3    H270457   5.488   0.458   1.856 -0.0386 -0.1248 -0.7462
16348TIP3   OH270458   4.793   1.966   0.199 -0.1407  0.0875  0.3507
16348TIP3    H170459   4.884   1.940   0.210 -0.0140  0.2292 -0.3528
16348TIP3    H270460   4.743   1.885   0.206  0.2892 -0.4990 -2.3944
16349TIP3   OH270461   4.861   0.945   2.938  0.4479  0.2603 -0.2952
16349TIP3    H170462   4.922   0.893   2.885 -0.9888 -0.4828 -1.2805
16349TIP3    H270463   4.779   0.897   2.933 -0.3738  1.5390  0.5508
16350TIP3   OH270464   6.653   5.367   0.767  0.2706 -0.7543 -0.3170
16350TIP3    H170465   6.662   5.273   0.785  0.5876 -0.7405 -0.3938
16350TIP3    H270466   6.583   5.372   0.702 -0.5008 -0.8466  0.4954
16351TIP3   OH270467   1.285   6.647   4.985 -0.1102  0.2259  0.0945
16351TIP3    H170468   1.374   6.619   4.963  0.6289  0.5464  2.3558
16351TIP3    H270469   1.289   6.743   4.984 -0.1148  0.2531  1.1851
16352TIP3   OH270470   1.196   6.648  15.538 -0.9005  0.2888  0.0420
16352TIP3    H170471   1.159   6.603  15.461  0.7313  3.7539 -3.0950
16352TIP3    H270472   1.120   6.686  15.582 -1.7875 -0.3007 -0.9108
16353TIP3   OH270473   5.836   3.092  16.956 -0.4325  0.2951 -0.1687
16353TIP3    H170474   5.829   3.035  16.879  1.0710  0.7820 -0.6885
16353TIP3    H270475   5.815   3.179  16.923  1.9503  0.8163 -0.4875
16354TIP3   OH270476   2.024   6.493  16.377 -0.4750  0.2199  0.3907
16354TIP3    H170477   1.960   6.428  16.348 -2.0006  2.2878 -1.1476
16354TIP3    H270478   1.989   6.525  16.460  0.9537 -1.7130  1.8337
16355TIP3   OH270479   0.541   0.484  13.560  0.7210  0.3196 -0.3263
16355TIP3    H170480   0.564   0.400  13.522 -0.1227 -0.1719  0.2258
16355TIP3    H270481   0.568   0.478  13.652 -0.4082  0.2052  0.0077
16356TIP3   OH270482   6.651   1.567   5.261 -0.6633 -0.0308 -0.3612
16356TIP3    H170483   6.614   1.642   5.216 -0.4206  0.0965 -0.3474
16356TIP3    H270484   6.574   1.520   5.295 -0.8572 -0.1891 -0.9917
16357TIP3   OH270485   6.149   5.936   6.180  0.2237 -0.1965  0.1270
16357TIP3    H170486   6.067   5.980   6.161  0.4730  0.7217  1.0705
16357TIP3    H270487   6.129   5.877   6.254  0.6850  1.0366  1.2797
16358TIP3   OH270488   3.439   5.956   4.586 -0.4595 -0.3110 -0.2313
16358TIP3    H170489   3.497   6.013   4.636 -0.4395  1.3706 -2.0657
16358TIP3    H270490   3.378   5.922   4.651 -1.3817  2.9402  0.7757
16359TIP3   OH270491   2.625   6.048  16.576  0.3546  0.0543 -0.1721
16359TIP3    H170492   2.647   6.139  16.595  1.2941 -0.4681  1.3801
16359TIP3    H270493   2.673   6.029  16.495  0.7986  0.7109 -0.0717
16360TIP3   OH270494   0.767   5.500   0.394 -0.6294  0.4295 -0.0498
16360TIP3    H170495   0.685   5.512   0.442 -1.3510  0.4089 -1.2578
16360TIP3    H270496   0.764   5.565   0.324 -0.1210 -0.3032 -0.7727
16361TIP3   OH270497   5.239   6.478   1.942 -0.4599 -0.4025 -0.1388
16361TIP3    H170498   5.147   6.485   1.968 -0.5125 -1.6138  0.0674
16361TIP3    H270499   5.282   6.551   1.987 -1.4189  0.5821 -0.7760
16362TIP3   OH270500   0.401   2.255  15.990 -0.0624  0.0689 -0.2230
16362TIP3    H170501   0.461   2.214  15.927  1.4107  0.8770  0.5968
16362TIP3    H270502   0.458   2.283  16.062 -1.4236  0.9948  0.5288
16363TIP3   OH270503   6.003   6.194  13.210 -0.2472 -0.0056 -0.2389
16363TIP3    H170504   6.011   6.231  13.297  0.0396 -2.3348  0.8037
16363TIP3    H270505   5.940   6.123  13.219 -1.1077  0.4240 -2.2162
16364TIP3   OH270506   4.350   6.460   6.513 -0.4823 -0.4619  0.1033
16364TIP3    H170507   4.371   6.525   6.446 -2.8618  0.1191 -0.1612
16364TIP3    H270508   4.257   6.473   6.531 -1.4126 -4.4918 -0.7688
16365TIP3   OH270509   1.012   5.308  17.151 -0.6289 -0.0190 -0.5718
16365TIP3    H170510   0.984   5.366  17.221  1.2477  0.3365 -0.0612
16365TIP3    H270511   0.959   5.334  17.075 -3.3326 -0.9980  0.8304
16366TIP3   OH270512   4.703   3.741   4.671  0.4656 -0.2644 -0.2572
16366TIP3    H170513   4.747   3.789   4.600  1.7570 -1.1884 -0.1002
16366TIP3    H270514   4.745   3.655   4.672 -2.5001 -1.8545 -1.2246
16367TIP3   OH270515   4.849   6.010   0.152 -0.0339 -0.3169  0.4962
16367TIP3    H170516   4.869   5.982   0.241  2.4077  0.3677  0.2466
16367TIP3    H270517   4.826   5.929   0.106  1.8079 -1.2085  1.0416
16368TIP3   OH270518   3.023   5.795   1.477  0.4446 -0.4447  0.1772
16368TIP3    H170519   3.112   5.776   1.508  1.1876  0.3280 -1.3262
16368TIP3    H270520   2.989   5.710   1.449  1.2498 -0.5746 -0.4728
16369TIP3   OH270521   1.113   3.721  14.182  0.1861  0.4993  0.1026
16369TIP3    H170522   1.095   3.700  14.273 -0.7986  0.3101 -0.1290
16369TIP3    H270523   1.181   3.788  14.186 -0.2287  0.8814  0.9841
16370TIP3   OH270524   6.042   6.442  12.355  0.6268 -0.1520 -0.3824
16370TIP3    H170525   6.066   6.534  12.354 -0.5778  0.1994  0.7324
16370TIP3    H270526   5.947   6.442  12.341  0.8961 -1.3750 -2.8148
16371TIP3   OH270527   6.373   2.833   4.255 -0.1419 -0.5562  0.6103
16371TIP3    H170528   6.431   2.828   4.179 -0.9177  0.4520 -0.0670
16371TIP3    H270529   6.285   2.840   4.218 -0.7600 -2.3558  1.6294
16372TIP3   OH270530   2.433   2.881   0.647 -0.2151  0.1904 -0.3425
16372TIP3    H170531   2.414   2.892   0.740 -1.6001  0.4104 -0.6280
16372TIP3    H270532   2.361   2.828   0.614  1.0652 -1.2289 -1.0101
16373TIP3   OH270533   3.287   6.538   6.158  0.8020 -0.5699  0.0044
16373TIP3    H170534   3.229   6.462   6.149  2.4320 -1.8491 -0.1835
16373TIP3    H270535   3.304   6.565   6.068 -0.1982  0.4108  0.0787
16374TIP3   OH270536   2.457   0.864   1.629  0.1699 -0.6343 -0.2491
16374TIP3    H170537   2.457   0.777   1.588  0.2693 -0.5240 -0.4818
16374TIP3    H270538   2.376   0.866   1.680 -0.8161 -0.1512 -1.7587
16375TIP3   OH270539   1.128   3.266  16.141  0.0558  0.0314 -0.0559
16375TIP3    H170540   1.134   3.172  16.157 -1.3905 -0.0162  0.3414
16375TIP3    H270541   1.190   3.305  16.201  0.1577 -0.6248  0.2735
16376TIP3   OH270542   6.739   6.032   3.992  0.2878 -0.2906  1.1550
16376TIP3    H170543   6.762   6.073   4.075 -1.6470  1.3647  0.9503
16376TIP3    H270544   6.674   5.965   4.015  2.6690 -2.6672  1.3646
16377TIP3   OH270545   4.390   1.996   1.810 -0.6904  0.0080 -0.1509
16377TIP3    H170546   4.366   1.968   1.722 -0.3525 -2.5703  0.4887
16377TIP3    H270547   4.329   2.067   1.830 -1.6752 -0.2636 -1.9355
16378TIP3   OH270548   0.431   3.710  12.762 -0.5146 -0.2050 -0.6325
16378TIP3    H170549   0.358   3.648  12.752  0.2292 -1.1102 -0.5904
16378TIP3    H270550   0.508   3.661  12.733  0.1838  0.5135 -0.0386
16379TIP3   OH270551   1.385   0.875  11.438 -0.0743  0.1427 -0.1053
16379TIP3    H170552   1.472   0.901  11.467  0.6641 -1.0645 -1.1607
16379TIP3    H270553   1.336   0.859  11.518  1.2104 -0.8783  0.4885
16380TIP3   OH270554   2.829   5.844   6.232 -0.7835 -0.0646  0.0095
16380TIP3    H170555   2.858   5.818   6.319  1.0335  1.2088 -0.1657
16380TIP3    H270556   2.792   5.931   6.243 -0.1164  0.3026 -0.5441
16381TIP3   OH270557   0.889   2.744  15.497  0.1016 -0.8888  0.4034
16381TIP3    H170558   0.901   2.824  15.549 -1.3384  1.3462 -2.3716
16381TIP3    H270559   0.978   2.712  15.481  1.1911  2.5202 -1.5421
16382TIP3   OH270560   2.270   5.865  13.764 -0.0013  0.9034 -0.1047
16382TIP3    H170561   2.303   5.778  13.742 -0.2198  0.3783  1.4748
16382TIP3    H270562   2.174   5.855  13.763 -0.0366  1.2700 -0.4483
16383TIP3   OH270563   1.940   1.562  12.621 -0.8172 -0.9768  0.3123
16383TIP3    H170564   2.000   1.631  12.592 -1.1661  0.3225  2.4406
16383TIP3    H270565   1.984   1.481  12.597  0.1238 -0.0402 -1.3069
16384TIP3   OH270566   2.076   1.088   3.990  0.3107  0.2145  0.5110
16384TIP3    H170567   2.028   1.024   3.936 -0.6220  0.2349  1.2769
16384TIP3    H270568   2.161   1.096   3.947 -0.6340  0.7837 -1.3725
16385TIP3   OH270569   3.838   5.281  12.900 -0.3313 -0.0452 -0.1552
16385TIP3    H170570   3.817   5.188  12.907 -1.7176  0.1310 -1.3572
16385TIP3    H270571   3.928   5.284  12.869 -0.6180 -1.0369 -1.1511
16386TIP3   OH270572   5.355   0.356  12.523 -0.6390  0.5329  0.2053
16386TIP3    H170573   5.406   0.355  12.604  0.1335  0.5583 -0.2691
16386TIP3    H270574   5.399   0.419  12.467 -0.4499 -0.3504 -0.6783
16387TIP3   OH270575   2.864   4.639  10.553 -0.0257  0.0103 -0.0936
16387TIP3    H170576   2.800   4.709  10.560  1.3284  1.2972 -0.1213
16387TIP3    H270577   2.900   4.649  10.465 -1.5227 -2.3066 -1.0701
16388TIP3   OH270578   4.738   3.113  15.002  0.2453 -0.0611  0.1059
16388TIP3    H170579   4.652   3.132  14.963 -1.0629 -2.7964  1.4282
16388TIP3    H270580   4.792   3.088  14.927  0.2256  2.4328 -0.8535
16389TIP3   OH270581   0.167   5.045  13.939  0.3470  1.2642  0.1536
16389TIP3    H170582   0.104   4.983  13.904 -0.2655  1.7621  0.3549
16389TIP3    H270583   0.180   5.019  14.030 -1.2251  2.4383  0.7480
16390TIP3   OH270584   4.372   1.292   0.926 -0.0639  0.0727 -0.2687
16390TIP3    H170585   4.437   1.295   0.997  0.6752 -2.1667 -0.7639
16390TIP3    H270586   4.319   1.370   0.939  0.5963  0.1884  2.2220
16391TIP3   OH270587   1.020   3.935   2.367  1.1759 -0.3424  0.3354
16391TIP3    H170588   0.942   3.904   2.412  0.3913 -0.2159 -0.9166
16391TIP3    H270589   0.991   3.956   2.279  3.0405 -2.4008 -0.8778
16392TIP3   OH270590   3.022   0.487  13.989  0.2696  0.1090  0.1957
16392TIP3    H170591   3.116   0.499  13.981  0.2593  0.2321  0.2657
16392TIP3    H270592   3.013   0.407  14.041  0.3734  1.8602  3.1526
16393TIP3   OH270593   5.304   3.413   4.493 -0.1976  0.0969  0.0104
16393TIP3    H170594   5.303   3.485   4.431  0.2568 -0.0163 -0.1287
16393TIP3    H270595   5.248   3.346   4.453 -2.0432  1.0121  0.9316
16394TIP3   OH270596   2.869   5.828  14.111 -0.2165  0.1789  0.3509
16394TIP3    H170597   2.898   5.753  14.058 -0.8449 -0.4419  0.8561
16394TIP3    H270598   2.779   5.842  14.085 -0.2649  0.4141  0.6452
16395TIP3   OH270599   1.864   1.788   2.849 -0.6007  0.6102  0.4754
16395TIP3    H170600   1.836   1.820   2.763  1.8349  1.0099 -0.2506
16395TIP3    H270601   1.869   1.866   2.904  0.2142  0.7364  0.2386
16396TIP3   OH270602   6.097   0.470  15.170  0.0062 -0.0391  0.5809
16396TIP3    H170603   6.121   0.516  15.090  0.4836 -1.1704  0.0525
16396TIP3    H270604   6.134   0.382  15.159 -0.1028 -0.2771  1.9478
16397TIP3   OH270605   5.377   3.108   1.480 -0.0760 -0.0644 -0.3681
16397TIP3    H170606   5.358   3.160   1.558  0.1947 -0.2032 -0.2053
16397TIP3    H270607   5.293   3.068   1.456 -0.4875  1.1661 -1.0418
16398TIP3   OH270608   4.788   5.758   1.442 -0.0506  0.0193 -0.1697
16398TIP3    H170609   4.836   5.830   1.403  0.8985 -1.1230 -1.1821
16398TIP3    H270610   4.839   5.734   1.519 -0.3064  0.3410  0.1043
16399TIP3   OH270611   6.434   6.097   5.184  0.3454 -0.8294 -0.5004
16399TIP3    H170612   6.510   6.092   5.125  0.6323 -1.8792 -0.0853
16399TIP3    H270613   6.383   6.170   5.152  1.1435 -0.5911 -1.2788
16400TIP3   OH270614   6.117   3.573  15.103 -0.3337  0.1957  0.5544
16400TIP3    H170615   6.154   3.621  15.177 -0.5516  1.2046  0.0201
16400TIP3    H270616   6.041   3.624  15.077  0.3652  0.4576 -1.0605
16401TIP3   OH270617   5.400   4.245  15.396 -0.1956 -0.2893  0.3448
16401TIP3    H170618   5.311   4.235  15.362 -0.5334  0.3747  0.9974
16401TIP3    H270619   5.426   4.333  15.371  1.1623 -1.1973 -1.7620
16402TIP3   OH270620   3.083   2.480   3.516 -0.0078 -0.0495  0.1895
16402TIP3    H170621   2.995   2.498   3.482 -0.3598  0.9503  1.5408
16402TIP3    H270622   3.067   2.436   3.600  0.8359 -2.0094 -0.6020
16403TIP3   OH270623   2.245   1.974   5.224  0.2962 -0.0596  0.2080
16403TIP3    H170624   2.237   1.920   5.145 -0.9724 -0.4652  0.5863
16403TIP3    H270625   2.207   2.058   5.199  1.4466  0.3800 -0.1085
16404TIP3   OH270626   6.110   4.485  15.515 -0.1744 -0.1567 -0.0505
16404TIP3    H170627   6.111   4.573  15.478  1.6296 -0.1955 -0.2069
16404TIP3    H270628   6.076   4.496  15.604 -0.4257  0.6220 -0.2443
16405TIP3   OH270629   1.664   4.056   6.029 -0.3658 -0.3247 -0.0005
16405TIP3    H170630   1.739   4.109   6.004  0.6881 -1.0826  1.3669
16405TIP3    H270631   1.661   3.985   5.964 -0.4828  0.2238 -0.5971
16406TIP3   OH270632   1.272   3.262   0.006 -0.0924 -0.1814  0.5420
16406TIP3    H170633   1.211   3.205  -0.040  0.1058 -1.0670  1.3349
16406TIP3    H270634   1.227   3.286   0.087 -0.2075  0.8757  0.1783
16407TIP3   OH270635   0.398   4.142   5.615 -0.3551 -0.1643  0.1340
16407TIP3    H170636   0.303   4.138   5.624 -0.3720 -1.1228 -0.3855
16407TIP3    H270637   0.423   4.058   5.577  0.5510  0.6324 -1.1419
16408TIP3   OH270638   5.270   2.633  14.186  0.0784  0.0758 -0.0008
16408TIP3    H170639   5.228   2.585  14.258 -0.5601 -0.8967 -1.0003
16408TIP3    H270640   5.251   2.582  14.108  0.1949  1.4643 -0.9818
16409TIP3   OH270641   2.753   6.788  15.366 -0.3087 -0.6484  0.5067
16409TIP3    H170642   2.833   6.834  15.390  0.2093 -0.6668 -1.0862
16409TIP3    H270643   2.717   6.839  15.292  0.4679 -2.9201 -1.5681
16410TIP3   OH270644   1.011   0.024  16.574 -0.1181  0.2469  0.0120
16410TIP3    H170645   1.101   0.055  16.575 -0.0673  0.0980  0.7025
16410TIP3    H270646   0.959   0.102  16.558  0.0606  0.5612  0.8944
16411TIP3   OH270647   4.065   3.727   2.795  0.0629 -0.6093 -0.1366
16411TIP3    H170648   4.128   3.659   2.772 -0.6644 -0.8596 -1.4917
16411TIP3    H270649   4.031   3.701   2.880  1.0569 -0.9933  0.1632
16412TIP3   OH270650   2.057   4.929   4.445  0.0217 -0.4074 -0.7722
16412TIP3    H170651   2.092   4.980   4.518 -1.4559 -0.2331 -0.1645
16412TIP3    H270652   2.128   4.868   4.423  0.2927 -0.8666  1.1999
16413TIP3   OH270653   0.365   2.845  14.215  0.5635  0.6161 -0.6266
16413TIP3    H170654   0.353   2.899  14.294 -0.4029  0.2174 -0.4782
16413TIP3    H270655   0.322   2.895  14.146  0.5505  0.5048 -0.6983
16414TIP3   OH270656   3.535   0.134  15.830  0.0935 -0.2075 -0.5353
16414TIP3    H170657   3.527   0.122  15.925 -1.6486 -0.6005 -0.6940
16414TIP3    H270658   3.445   0.139  15.799  0.4971  4.8690 -1.6331
16415TIP3   OH270659   2.303   6.147  12.740  0.5862  0.2332 -0.4264
16415TIP3    H170660   2.268   6.208  12.676  2.7290  1.1883 -0.7857
16415TIP3    H270661   2.258   6.168  12.822  0.9067  1.9581 -0.6686
16416TIP3   OH270662   2.214   0.859   1.738  0.1504 -0.3887  0.4636
16416TIP3    H170663   2.147   0.888   1.675  0.7357 -1.8491 -0.8999
16416TIP3    H270664   2.186   0.770   1.762  0.8935 -0.5026  0.9115
16417TIP3   OH270665   5.656   6.473   1.455 -0.5154  0.0513  0.2717
16417TIP3    H170666   5.585   6.472   1.390 -1.3494 -1.3933  1.1460
16417TIP3    H270667   5.736   6.478   1.403 -1.1835 -0.4443 -0.8366
16418TIP3   OH270668   5.009   4.588  16.678 -0.1313  0.3447 -0.5822
16418TIP3    H170669   4.923   4.622  16.701 -0.7394 -1.6356  0.2800
16418TIP3    H270670   5.070   4.648  16.720 -1.1781 -0.8216  3.0214
16419TIP3   OH270671   3.563   3.346   2.501  0.2911 -0.3200 -0.4805
16419TIP3    H170672   3.620   3.354   2.577 -1.6324 -0.7333  1.1166
16419TIP3    H270673   3.584   3.261   2.464  1.7257  0.1777 -0.8539
16420TIP3   OH270674   1.135   6.145   4.209  0.3570  0.6609 -0.3922
16420TIP3    H170675   1.114   6.142   4.302 -1.4568  0.7591 -0.7672
16420TIP3    H270676   1.200   6.215   4.201 -1.2228  2.3224  0.5167
16421TIP3   OH270677   5.403   6.078  13.494 -0.4925  0.4527  0.3184
16421TIP3    H170678   5.353   5.997  13.510 -1.0598  0.7999  0.3412
16421TIP3    H270679   5.416   6.081  13.400  0.0917  0.0115  0.3791
16422TIP3   OH270680   0.640   6.426   4.946  0.2349  0.1172 -0.0474
16422TIP3    H170681   0.554   6.465   4.928  0.4555  1.1024  0.9493
16422TIP3    H270682   0.626   6.371   5.022  0.7423  1.2977  0.9265
16423TIP3   OH270683   5.928   2.215  16.542  1.0536 -0.1185  0.2392
16423TIP3    H170684   5.974   2.281  16.491 -0.5161 -0.7788 -2.2293
16423TIP3    H270685   5.997   2.167  16.587  2.4294  1.4028 -0.1390
16424TIP3   OH270686   0.386   0.349  14.474 -0.2389  0.0427 -0.3580
16424TIP3    H170687   0.294   0.359  14.448 -0.5746  0.3676  0.9022
16424TIP3    H270688   0.429   0.318  14.395 -1.5668 -0.8179 -0.7964
16425TIP3   OH270689   6.139   0.525  14.706  0.8820  0.0419  0.7080
16425TIP3    H170690   6.168   0.595  14.647  0.4051  0.3677  0.8545
16425TIP3    H270691   6.050   0.505  14.677  1.4612 -1.4439 -0.1934
16426TIP3   OH270692   5.751   4.860   1.586  0.1479 -0.3040 -0.0309
16426TIP3    H170693   5.776   4.931   1.645  0.2316 -0.8254  0.5679
16426TIP3    H270694   5.789   4.781   1.625 -0.2720 -0.7389 -0.4801
16427TIP3   OH270695   5.441   4.366  11.077  0.4122 -0.2074  0.1786
16427TIP3    H170696   5.433   4.444  11.022  0.0052  1.3548  2.3245
16427TIP3    H270697   5.529   4.333  11.059 -0.4451 -1.1472 -3.0278
16428TIP3   OH270698   1.567   5.347  12.359 -0.3456  0.2549 -0.8848
16428TIP3    H170699   1.650   5.336  12.314  0.4862  1.0844  0.3973
16428TIP3    H270700   1.509   5.386  12.293  0.6430  0.8040 -1.4416
16429TIP3   OH270701   1.942   4.189   4.715  0.3816  0.0231 -0.1204
16429TIP3    H170702   1.888   4.268   4.712 -0.6854 -0.6884 -0.2810
16429TIP3    H270703   1.969   4.182   4.807 -1.4783 -0.6648  0.4353
16430TIP3   OH270704   0.249   3.968   0.440  0.0772  0.2871  0.0882
16430TIP3    H170705   0.274   4.014   0.521  1.4268 -0.7804  0.3201
16430TIP3    H270706   0.309   3.893   0.436 -2.1420 -1.6000 -0.1577
16431TIP3   OH270707   0.975   6.523  17.161 -0.2579 -0.5911  0.5481
16431TIP3    H170708   1.001   6.437  17.126  0.8681 -0.0039 -0.1188
16431TIP3    H270709   0.907   6.554  17.101  0.6070 -0.2436 -0.2733
16432TIP3   OH270710   5.083   4.991  11.531  0.1109  0.3723 -0.1161
16432TIP3    H170711   5.032   4.960  11.456 -0.1813  0.6879 -0.0539
16432TIP3    H270712   5.035   4.959  11.607  1.5031 -1.7243 -0.0309
16433TIP3   OH270713   2.357   2.556  12.320 -0.3470  0.2565 -0.0506
16433TIP3    H170714   2.323   2.641  12.346 -1.2081  0.0549 -0.4868
16433TIP3    H270715   2.377   2.565  12.227  2.4021  0.8726  0.5105
16434TIP3   OH270716   1.210   6.693  16.111  0.5626 -0.3709 -0.0398
16434TIP3    H170717   1.128   6.721  16.152  0.3512 -2.0045  0.7400
16434TIP3    H270718   1.195   6.705  16.017 -1.3978 -2.5603 -0.0912
16435TIP3   OH270719   2.343   0.797  10.534 -0.5810 -0.0102  0.1285
16435TIP3    H170720   2.327   0.773  10.443  2.9951  0.9469 -0.9328
16435TIP3    H270721   2.399   0.728  10.568  0.0087  0.7988  0.8509
16436TIP3   OH270722   2.851   5.658   2.164 -0.2684 -0.1960  0.5640
16436TIP3    H170723   2.853   5.729   2.101  1.8843  0.4658  1.2903
16436TIP3    H270724   2.779   5.680   2.223 -0.3728  0.7559  0.1009
16437TIP3   OH270725   6.151   1.155   4.196  0.7759 -0.2614 -0.3711
16437TIP3    H170726   6.072   1.192   4.156  1.3876  1.2770 -0.2257
16437TIP3    H270727   6.143   1.060   4.181 -0.9607 -0.1262 -0.5788
16438TIP3   OH270728   2.552   5.342   4.262 -0.2273  0.6635 -0.0262
16438TIP3    H170729   2.533   5.398   4.338  0.6084  0.5638  0.2651
16438TIP3    H270730   2.568   5.256   4.300 -0.0131  0.5659 -0.3363
16439TIP3   OH270731   2.152   6.172   5.805 -0.3238  0.5070  0.9968
16439TIP3    H170732   2.166   6.267   5.795 -1.8429  0.5960 -1.2216
16439TIP3    H270733   2.203   6.133   5.734 -2.0145 -0.0378  0.0164
16440TIP3   OH270734   1.866   0.256  14.613  0.5767 -0.1295  0.1865
16440TIP3    H170735   1.878   0.350  14.622  0.0866 -0.1546  1.2562
16440TIP3    H270736   1.795   0.235  14.674  1.7805 -1.4419  1.2019
16441TIP3   OH270737   0.039   3.991   3.676 -0.0195  0.3572  0.0898
16441TIP3    H170738   0.125   4.029   3.659  0.6456 -0.7817  0.8353
16441TIP3    H270739  -0.003   3.988   3.590  1.4859 -0.9684 -0.6404
16442TIP3   OH270740   3.575   3.221  12.567  0.7797 -0.3694 -0.1047
16442TIP3    H170741   3.484   3.227  12.536  0.3575 -0.1037  1.1230
16442TIP3    H270742   3.606   3.312  12.564  1.2559 -0.5606 -1.2181
16443TIP3   OH270743   1.494   3.107  11.808  0.4723 -0.2700  0.5120
16443TIP3    H170744   1.540   3.039  11.758  0.0546 -0.4737  0.3946
16443TIP3    H270745   1.534   3.104  11.895  0.5383 -0.5883  0.4728
16444TIP3   OH270746   0.416   1.472   0.151 -0.2550  0.3555 -0.2401
16444TIP3    H170747   0.389   1.471   0.243  0.3539 -0.2983 -0.0626
16444TIP3    H270748   0.448   1.561   0.137  0.8916  0.0945  0.5579
16445TIP3   OH270749   3.233   2.279  15.212  0.5383  0.5916 -0.1232
16445TIP3    H170750   3.238   2.372  15.234  0.4642  0.4838  0.3735
16445TIP3    H270751   3.231   2.277  15.117  0.4989  1.1015 -0.1379
16446TIP3   OH270752   0.700   2.094  17.073  0.4126  0.0324  0.4855
16446TIP3    H170753   0.650   2.081  16.992 -1.9334 -1.6071  2.0432
16446TIP3    H270754   0.790   2.110  17.045 -0.5599  0.8841 -2.4399
16447TIP3   OH270755   3.680   1.337   4.030  0.1251  0.1969 -0.2457
16447TIP3    H170756   3.673   1.418   4.081 -1.7858 -0.3462  0.4626
16447TIP3    H270757   3.624   1.353   3.953  1.0050  0.0975 -0.9238
16448TIP3   OH270758   1.566   6.690   4.838 -0.0014  0.3476 -0.8621
16448TIP3    H170759   1.558   6.744   4.760 -0.0548 -0.1134 -1.1807
16448TIP3    H270760   1.559   6.600   4.806 -1.5462  0.1779 -0.1428
16449TIP3   OH270761   2.024   0.048   1.074  0.2724 -0.3039 -0.0344
16449TIP3    H170762   2.017   0.128   1.126 -1.0058 -0.8227  0.6492
16449TIP3    H270763   2.015   0.077   0.983  0.3552  0.3802  0.1720
16450TIP3   OH270764   1.999   6.689  13.757  0.0902 -0.4477 -0.6100
16450TIP3    H170765   2.088   6.655  13.756  0.1046 -0.4007 -0.8462
16450TIP3    H270766   2.008   6.777  13.794  0.1146 -0.5144 -0.4534
16451TIP3   OH270767   6.293   1.944   1.037  0.5604 -0.3302  0.0978
16451TIP3    H170768   6.331   1.937   1.125  2.0647 -0.5507 -0.5523
16451TIP3    H270769   6.344   1.884   0.984 -1.2097 -1.2217 -0.6734
16452TIP3   OH270770   1.791   3.054  13.253 -0.3059  0.5519 -0.0997
16452TIP3    H170771   1.820   2.972  13.292  0.3585  1.3337  1.1467
16452TIP3    H270772   1.705   3.035  13.215  0.5038 -1.0739 -1.1895
16453TIP3   OH270773   1.127   0.283  13.974 -0.5243 -0.6622  0.3268
16453TIP3    H170774   1.123   0.283  13.879 -1.1960  2.4472  0.2380
16453TIP3    H270775   1.220   0.295  13.994 -0.7489  3.0277 -0.1955
16454TIP3   OH270776   4.945   1.338  13.688 -0.2921  0.1784 -0.6307
16454TIP3    H170777   4.863   1.307  13.726 -0.0525  0.5092  0.1645
16454TIP3    H270778   4.969   1.415  13.739 -0.4941  1.2720 -2.1097
16455TIP3   OH270779   5.303   3.651   5.147  0.2841  0.2313  0.7694
16455TIP3    H170780   5.250   3.728   5.168 -0.3747 -0.5524  2.1292
16455TIP3    H270781   5.343   3.627   5.231  2.0810  0.2603 -0.0470
16456TIP3   OH270782   4.116   4.066  11.625  0.9365  1.3032 -0.0711
16456TIP3    H170783   4.079   4.000  11.567 -0.5173  0.7513  1.4136
16456TIP3    H270784   4.158   4.129  11.566  1.0911 -0.1640 -1.5964
16457TIP3   OH270785   6.461   5.585   1.565  0.2573  0.4138 -0.1342
16457TIP3    H170786   6.456   5.633   1.483 -0.3998 -0.8136 -0.8280
16457TIP3    H270787   6.548   5.607   1.600 -0.2085  2.4686 -0.1679
16458TIP3   OH270788   0.115   4.677  14.654 -0.3775 -0.1882  0.0282
16458TIP3    H170789   0.067   4.617  14.596  0.5721 -0.0902 -0.8889
16458TIP3    H270790   0.053   4.696  14.725 -0.3310 -3.1519  1.0067
16459TIP3   OH270791   0.564   2.831   2.273 -0.3121  0.4198 -0.2705
16459TIP3    H170792   0.470   2.815   2.261 -0.2414 -0.6790  0.4844
16459TIP3    H270793   0.571   2.867   2.361 -0.2018  2.4255 -1.0498
16460TIP3   OH270794   1.960   3.343   0.953  0.2783  0.2604  0.1679
16460TIP3    H170795   2.016   3.310   0.883  0.5939 -2.4736  1.5892
16460TIP3    H270796   2.020   3.360   1.026 -0.3563  0.6012  0.6254
16461TIP3   OH270797   0.225   5.747  16.045  0.1301  0.2747 -0.1502
16461TIP3    H170798   0.202   5.692  15.970 -1.4974 -0.4970  0.8655
16461TIP3    H270799   0.314   5.721  16.067  0.2857 -0.1600 -1.2216
16462TIP3   OH270800   5.029   1.379  15.198 -0.0676 -0.5544  0.3825
16462TIP3    H170801   4.987   1.401  15.114 -1.4840 -2.8091  0.3902
16462TIP3    H270802   5.054   1.287  15.188  3.0834  0.1061  1.1958
16463TIP3   OH270803   5.613   4.410  14.451  0.4105  0.1049 -0.2572
16463TIP3    H170804   5.653   4.491  14.481  0.7573 -0.5235  1.0704
16463TIP3    H270805   5.598   4.360  14.531  3.2808 -2.5515 -1.1829
16464TIP3   OH270806   6.328   4.194  15.055 -0.3188  0.7424  0.2650
16464TIP3    H170807   6.245   4.167  15.094 -0.7605 -0.2877 -1.2356
16464TIP3    H270808   6.327   4.153  14.968  1.2765  1.6190 -0.2085
16465TIP3   OH270809   3.762   3.336  17.182 -0.8018  0.3656 -0.0241
16465TIP3    H170810   3.750   3.291  17.266 -2.6882  0.8849  0.0320
16465TIP3    H270811   3.741   3.271  17.116 -1.2570  0.5092 -0.0219
16466TIP3   OH270812   4.039   0.093   1.057  0.1390  0.0507 -0.6364
16466TIP3    H170813   4.089   0.131   1.129 -0.1357  0.4455 -0.6488
16466TIP3    H270814   4.086   0.014   1.034  0.1505 -0.1594  0.0796
16467TIP3   OH270815   3.530   0.959   3.610  0.3905 -0.1540  0.0126
16467TIP3    H170816   3.617   0.939   3.573  0.0876 -1.6709  0.0328
16467TIP3    H270817   3.527   0.908   3.691 -0.7398 -0.5990 -0.2937
16468TIP3   OH270818   6.340   6.143  16.923  0.1796 -0.1310  0.0289
16468TIP3    H170819   6.363   6.226  16.964 -1.7712  1.4567 -1.9006
16468TIP3    H270820   6.425   6.103  16.903  1.2237  1.9472 -0.0269
16469TIP3   OH270821   1.867   3.527  13.424 -0.7397  0.6216  0.6233
16469TIP3    H170822   1.923   3.475  13.368  0.0205 -1.1025  2.8285
16469TIP3    H270823   1.879   3.617  13.394 -1.4975 -0.2671 -2.8099
16470TIP3   OH270824   3.263   6.720  16.105  0.0193 -0.5120  0.5157
16470TIP3    H170825   3.354   6.693  16.092 -0.4798 -2.1994  0.3441
16470TIP3    H270826   3.243   6.695  16.196 -0.8799 -2.1025 -0.0815
16471TIP3   OH270827   5.591   1.571  11.948  0.4127 -0.9870  0.1269
16471TIP3    H170828   5.656   1.639  11.931 -0.2648 -0.1798  0.6183
16471TIP3    H270829   5.583   1.523  11.866 -0.3094  0.6066 -0.7851
16472TIP3   OH270830   1.746   6.670   2.321 -0.2627  1.1494  0.0784
16472TIP3    H170831   1.695   6.732   2.269 -0.9251 -0.1018 -0.8539
16472TIP3    H270832   1.830   6.664   2.276  0.8549  3.3376  1.7100
16473TIP3   OH270833   6.188   2.838   3.580 -0.6203 -0.4758 -0.3444
16473TIP3    H170834   6.217   2.757   3.621 -0.0819 -0.5231 -0.8024
16473TIP3    H270835   6.204   2.824   3.486 -2.3570 -0.6059 -0.6653
16474TIP3   OH270836   5.397   3.517  14.519  0.0704  0.0062  0.3914
16474TIP3    H170837   5.337   3.574  14.567 -1.0412 -0.0236 -0.9080
16474TIP3    H270838   5.341   3.467  14.459  1.3170 -0.4598 -0.4365
16475TIP3   OH270839   3.075   5.115   4.312 -0.0996 -0.1679 -0.1779
16475TIP3    H170840   3.151   5.172   4.315 -0.0402 -0.2717  0.7205
16475TIP3    H270841   3.110   5.027   4.325 -0.3543 -0.2211  0.1956
16476TIP3   OH270842   3.488   3.084   1.292 -0.0010 -0.0014 -0.1297
16476TIP3    H170843   3.559   3.030   1.328  0.8298  0.9184 -0.3668
16476TIP3    H270844   3.531   3.146   1.234 -0.9735  0.7927 -0.0302
16477TIP3   OH270845   0.814   3.131   1.447 -0.5144  0.1899 -0.0863
16477TIP3    H170846   0.808   3.051   1.396 -1.8287  1.1364 -1.5175
16477TIP3    H270847   0.907   3.140   1.467 -0.1974 -1.0800 -0.8947
16478TIP3   OH270848   1.998   1.353   0.367 -0.3780  0.1034 -0.5657
16478TIP3    H170849   2.057   1.283   0.340  0.1038  0.0202  0.6343
16478TIP3    H270850   1.916   1.334   0.322 -0.4507 -1.6000  0.2173
16479TIP3   OH270851   1.519   5.049  12.272  0.0950  0.0364  0.0554
16479TIP3    H170852   1.451   5.079  12.211 -1.2140  0.0188  1.4336
16479TIP3    H270853   1.550   5.129  12.315  0.1487 -0.0659  0.2077
16480TIP3   OH270854   4.662   1.433  13.503  0.1915 -0.1241  0.0527
16480TIP3    H170855   4.695   1.383  13.428 -0.0768 -0.3498  0.0862
16480TIP3    H270856   4.696   1.387  13.580  1.6456  0.9005  0.0662
16481TIP3   OH270857   1.328   5.785  16.179  0.0526  0.1246  0.3467
16481TIP3    H170858   1.401   5.834  16.142 -0.7822  0.8784 -0.3738
16481TIP3    H270859   1.253   5.812  16.127 -0.5940 -1.2910  0.5045
16482TIP3   OH270860   2.421   2.374  16.159  0.2064  0.2525  0.5263
16482TIP3    H170861   2.331   2.403  16.147 -0.1263  0.1930  2.5761
16482TIP3    H270862   2.414   2.286  16.193  1.0494  0.2947  0.8377
16483TIP3   OH270863   1.611   4.989   3.415  0.0875 -0.0491  0.0186
16483TIP3    H170864   1.694   4.954   3.448 -1.1146 -2.1563  0.9716
16483TIP3    H270865   1.587   4.931   3.343  0.3420  1.7266 -1.6010
16484TIP3   OH270866   0.020   2.084  11.143  0.3426  0.1064  0.0467
16484TIP3    H170867  -0.009   2.094  11.234  1.1494  0.5061  0.2705
16484TIP3    H270868  -0.059   2.093  11.091  0.1052  1.5306  0.6224
16485TIP3   OH270869   1.055   3.566   0.298  0.4839 -0.7098  0.4981
16485TIP3    H170870   1.133   3.618   0.318 -1.6316  3.8692 -1.8097
16485TIP3    H270871   1.017   3.607   0.221 -3.6863 -3.3703  0.7999
16486TIP3   OH270872   6.143   4.376  12.012 -0.1286  0.3718 -0.6359
16486TIP3    H170873   6.133   4.313  12.084  1.1400  1.3458  0.4292
16486TIP3    H270874   6.128   4.461  12.052 -4.0181  0.7941 -2.4812
16487TIP3   OH270875   5.093   1.386  12.200  0.1540  0.0176  0.0580
16487TIP3    H170876   5.071   1.334  12.123  0.1172  0.1835 -0.0447
16487TIP3    H270877   5.067   1.333  12.275 -2.1159  0.8729 -0.0584
16488TIP3   OH270878   1.347   0.460   2.487  0.2610 -0.1785 -0.7255
16488TIP3    H170879   1.267   0.408   2.489  0.8585 -1.1085  1.0315
16488TIP3    H270880   1.352   0.499   2.574  0.9977  1.0224 -1.2834
16489TIP3   OH270881   0.314   3.528  13.687  0.3712 -0.4487 -0.3973
16489TIP3    H170882   0.361   3.446  13.700  1.2194 -0.0325 -0.7534
16489TIP3    H270883   0.382   3.592  13.666 -0.5406 -0.3168 -3.3166
16490TIP3   OH270884   2.419   5.215   5.184  0.4864 -0.1999  0.4687
16490TIP3    H170885   2.454   5.259   5.107 -0.2859 -0.1235  0.1557
16490TIP3    H270886   2.488   5.225   5.250  1.4754 -0.8987 -0.4162
16491TIP3   OH270887   3.855   3.602  14.622  0.3890 -0.8404 -0.3751
16491TIP3    H170888   3.865   3.697  14.612  0.0072 -0.7771 -0.2008
16491TIP3    H270889   3.940   3.572  14.653  0.3576 -0.4774  0.0779
16492TIP3   OH270890   4.447   4.551   3.297 -0.0857  0.5484 -0.0737
16492TIP3    H170891   4.361   4.576   3.330 -0.0946  0.4226  0.0011
16492TIP3    H270892   4.470   4.473   3.348 -1.1559 -1.1350 -2.0049
16493TIP3   OH270893   4.611   4.138   5.164  0.7108  0.3162 -0.4400
16493TIP3    H170894   4.680   4.154   5.100 -0.0101 -0.4203 -1.4296
16493TIP3    H270895   4.578   4.051   5.143 -0.4604  0.6134  0.0653
16494TIP3   OH270896   3.919   3.635   1.409  0.0752 -0.4133 -0.0765
16494TIP3    H170897   3.824   3.651   1.412  0.3902  2.8376 -2.2881
16494TIP3    H270898   3.942   3.641   1.316  2.7870  2.1032  0.5830
16495TIP3   OH270899   0.385   0.774  15.178 -0.2667 -0.2863  0.2057
16495TIP3    H170900   0.309   0.831  15.171  0.4164  0.7198  0.6583
16495TIP3    H270901   0.351   0.693  15.215 -1.3533 -0.4005 -0.9577
16496TIP3   OH270902   2.216   3.570  11.660  0.7692 -0.1351  0.5146
16496TIP3    H170903   2.137   3.518  11.641  1.6450 -1.1762 -0.3941
16496TIP3    H270904   2.281   3.506  11.688  2.4281  0.1657 -2.3120
16497TIP3   OH270905   3.382   6.333  10.405  0.5003 -0.2477  0.1173
16497TIP3    H170906   3.323   6.260  10.421  1.0124 -0.6644  0.1229
16497TIP3    H270907   3.469   6.297  10.415  0.7833  0.9903  2.9007
16498TIP3   OH270908   1.112   2.936   5.487  0.6703  0.4777  0.4211
16498TIP3    H170909   1.182   2.898   5.541  1.2232 -0.8797 -1.1683
16498TIP3    H270910   1.032   2.895   5.518  0.9462 -0.0655  0.4192
16499TIP3   OH270911   4.188   6.042   2.561  0.5499  0.2864  0.1594
16499TIP3    H170912   4.194   6.115   2.499 -1.0818 -2.3591 -3.4371
16499TIP3    H270913   4.277   6.007   2.565  0.4953 -0.1750 -1.7214
16500TIP3   OH270914   6.216   1.071   2.540 -0.6691  0.3316  0.3012
16500TIP3    H170915   6.287   1.008   2.535  0.5965  1.7026  0.2612
16500TIP3    H270916   6.247   1.138   2.601 -1.0144  2.0124 -1.2778
16501TIP3   OH270917   1.438   1.352   0.553  0.2725  0.1718 -0.3744
16501TIP3    H170918   1.476   1.281   0.501 -2.0176 -1.2142 -0.2717
16501TIP3    H270919   1.347   1.358   0.524 -0.3017  1.3007  1.4649
16502TIP3   OH270920   1.609   4.437  16.122  0.3814 -0.0967 -0.1115
16502TIP3    H170921   1.573   4.498  16.186 -0.7427 -0.6360 -0.2020
16502TIP3    H270922   1.629   4.358  16.172  1.6528  0.2487 -0.0296
16503TIP3   OH270923   4.405   2.126  11.899 -0.0748  0.3553  0.3433
16503TIP3    H170924   4.348   2.171  11.962 -0.4485  0.6541 -0.1986
16503TIP3    H270925   4.423   2.042  11.939 -2.7463 -0.6928 -0.4245
16504TIP3   OH270926   6.215   2.907   6.677 -0.9763 -0.5267  0.1698
16504TIP3    H170927   6.310   2.919   6.675 -0.9973 -0.4078 -0.0375
16504TIP3    H270928   6.180   2.991   6.706 -1.0503 -0.4180 -0.2321
16505TIP3   OH270929   0.494   5.717   2.702 -0.2349  0.5345  0.5284
16505TIP3    H170930   0.523   5.630   2.731 -1.3451  0.4038  1.3173
16505TIP3    H270931   0.419   5.737   2.758 -0.5898  1.5991 -0.2934
16506TIP3   OH270932   4.946   4.888   6.461 -0.2020  0.1537 -0.0712
16506TIP3    H170933   4.922   4.853   6.375  0.6806 -0.0717 -0.2308
16506TIP3    H270934   5.027   4.843   6.484  1.1168  2.2497 -0.3864
16507TIP3   OH270935   1.383   1.267  12.265 -0.0841 -0.1173  0.4537
16507TIP3    H170936   1.316   1.332  12.286  0.6472  0.0501  2.4450
16507TIP3    H270937   1.443   1.269  12.340  0.5276 -2.3516  0.0883
16508TIP3   OH270938   5.848   4.526   0.099  0.3601 -0.2604  0.2917
16508TIP3    H170939   5.831   4.498   0.189 -0.3711  0.7102  0.4768
16508TIP3    H270940   5.943   4.524   0.091  0.4211 -0.6180  1.0084
16509TIP3   OH270941   5.257   6.598  16.808 -0.0134 -0.0200 -0.5762
16509TIP3    H170942   5.239   6.524  16.867  1.6153  0.8559  1.0978
16509TIP3    H270943   5.344   6.580  16.773  0.3615  1.0527 -0.2179
16510TIP3   OH270944   6.606   0.937  12.654 -0.3592 -0.4970 -0.1373
16510TIP3    H170945   6.655   0.928  12.736  0.4714 -0.4713 -0.6198
16510TIP3    H270946   6.527   0.986  12.678 -1.0525 -2.0930  0.9958
16511TIP3   OH270947   3.361   2.388  17.043  0.3733  0.1953 -0.3507
16511TIP3    H170948   3.342   2.297  17.066 -0.0778  0.3456 -0.1194
16511TIP3    H270949   3.409   2.422  17.118  0.3264  0.2190 -0.3318
16512TIP3   OH270950   2.760   2.049   5.729 -0.0445  0.4859 -0.5572
16512TIP3    H170951   2.766   2.006   5.814 -0.0263 -1.7362 -1.6065
16512TIP3    H270952   2.719   1.984   5.672  0.6567  1.6127 -2.4430
16513TIP3   OH270953   4.642   5.055  13.325 -0.5049  0.6811  0.0282
16513TIP3    H170954   4.588   5.129  13.353 -0.9856  0.2011  0.3789
16513TIP3    H270955   4.653   5.002  13.404 -0.3297  0.2701 -0.2711
16514TIP3   OH270956   5.550   5.697   0.536  0.2278 -0.3029  0.4968
16514TIP3    H170957   5.537   5.604   0.516 -0.9243 -0.5566  2.2338
16514TIP3    H270958   5.585   5.734   0.455  0.5597 -2.2072 -0.2926
16515TIP3   OH270959   3.137   2.599   2.927 -0.5538 -0.0921 -0.0079
16515TIP3    H170960   3.232   2.598   2.936 -0.4373  1.9034 -0.3858
16515TIP3    H270961   3.104   2.585   3.016  0.0520 -1.5073  0.0147
16516TIP3   OH270962   0.120   1.469  14.368  0.8009  0.1962 -0.4204
16516TIP3    H170963   0.082   1.557  14.371 -0.5747 -0.2725 -1.9446
16516TIP3    H270964   0.112   1.437  14.457 -2.8714  0.0392 -0.6157
16517TIP3   OH270965   2.252   5.484   2.458 -0.1112  0.3080  0.7459
16517TIP3    H170966   2.297   5.401   2.473  0.2425  0.3180 -0.2028
16517TIP3    H270967   2.235   5.486   2.364 -0.2300  1.2497  0.7759
16518TIP3   OH270968   3.216   1.838  13.854 -0.1948 -1.2526 -0.1751
16518TIP3    H170969   3.218   1.914  13.913  1.8351 -1.4465  0.0843
16518TIP3    H270970   3.222   1.762  13.913  2.1639 -1.4392 -0.5609
16519TIP3   OH270971   1.106   1.327  13.938  0.2420 -0.4936 -0.3212
16519TIP3    H170972   1.137   1.290  14.021 -0.0038 -2.6427 -1.1280
16519TIP3    H270973   1.183   1.369  13.901  0.5838 -0.2908  0.5817
16520TIP3   OH270974   0.022   1.771  11.988 -0.2027 -0.6885  0.0597
16520TIP3    H170975   0.062   1.852  12.017  1.8648 -2.1124  1.4382
16520TIP3    H270976  -0.007   1.789  11.899  1.9627  0.9815 -0.3894
16521TIP3   OH270977   0.898   0.948   3.916 -0.1085  0.3190  0.6403
16521TIP3    H170978   0.803   0.954   3.928 -0.3142 -0.9040 -0.1478
16521TIP3    H270979   0.913   0.985   3.829  0.1567  0.5561  0.7845
16522TIP3   OH270980   3.456   3.363  16.434 -0.3198  0.4644 -0.0154
16522TIP3    H170981   3.378   3.416  16.452 -1.0902 -0.5460 -0.2859
16522TIP3    H270982   3.498   3.353  16.520 -1.0364  0.1893  0.3153
16523TIP3   OH270983   0.859   1.244  14.469  0.0669  0.2916 -0.0940
16523TIP3    H170984   0.903   1.301  14.532  0.2029 -0.0608  0.1347
16523TIP3    H270985   0.858   1.158  14.512  3.4739 -0.9040 -2.0321
16524TIP3   OH270986   2.401   2.667   5.678 -0.2082  0.4824 -0.2137
16524TIP3    H170987   2.371   2.576   5.672  0.0341  0.4242 -0.5731
16524TIP3    H270988   2.356   2.702   5.755  0.5895 -0.2787  0.6160
16525TIP3   OH270989   1.313   4.508   1.536 -0.3097  0.5397 -0.1057
16525TIP3    H170990   1.267   4.442   1.589  2.2966 -0.6610  0.8655
16525TIP3    H270991   1.277   4.498   1.448  0.1355 -2.4254 -0.0433
16526TIP3   OH270992   2.899   2.019   0.854  0.0971  0.1244  0.4007
16526TIP3    H170993   2.849   1.950   0.811 -0.2412  0.3638  0.4133
16526TIP3    H270994   2.985   1.979   0.869  0.4904  0.2732 -1.1931
16527TIP3   OH270995   2.169   1.674  14.734  0.4057  0.1818  0.2844
16527TIP3    H170996   2.133   1.604  14.679 -1.7709  1.1476  0.3584
16527TIP3    H270997   2.187   1.745  14.672 -0.3505  0.6339  0.5700
16528TIP3   OH270998   1.585   3.929  17.048  0.5764 -0.3755  0.1092
16528TIP3    H170999   1.605   3.929  17.141  2.8328  1.5276 -0.2932
16528TIP3    H271000   1.660   3.884  17.008  1.2161  1.5869 -0.9975
16529TIP3   OH271001   3.197   4.656  12.871  0.5588 -0.7311  0.1335
16529TIP3    H171002   3.267   4.623  12.814 -0.9790 -4.6468  0.2515
16529TIP3    H271003   3.223   4.630  12.959 -0.1169 -0.4112  0.4359
16530TIP3   OH271004   6.078   1.060   1.620  0.2338  0.5147  0.1798
16530TIP3    H171005   6.019   1.060   1.695  1.8903 -1.7684  1.6354
16530TIP3    H271006   6.056   1.139   1.572 -1.7366  1.4433  2.4079
16531TIP3   OH271007   0.150   0.349  14.250  0.1822 -0.0406 -0.2432
16531TIP3    H171008   0.054   0.347  14.241 -0.0112  1.6460  0.8860
16531TIP3    H271009   0.172   0.264  14.289 -1.0923  0.2066  1.1253
16532TIP3   OH271010   4.386   6.141  16.764 -0.6286  0.1537 -0.3379
16532TIP3    H171011   4.420   6.058  16.798 -0.7672 -0.1425 -0.9041
16532TIP3    H271012   4.443   6.162  16.690  0.1337  1.1760  0.5017
16533TIP3   OH271013   3.818   5.451  13.175  1.0039  0.1655 -0.2718
16533TIP3    H171014   3.781   5.372  13.135  2.7747 -1.3395  0.8817
16533TIP3    H271015   3.908   5.453  13.142  1.1925  1.3126  0.2941
16534TIP3   OH271016   2.722   1.056   2.832 -0.1485 -0.2886 -0.1564
16534TIP3    H171017   2.738   1.064   2.926  0.6265 -2.2182 -0.0937
16534TIP3    H271018   2.806   1.078   2.791 -0.2548 -0.2544 -0.3595
16535TIP3   OH271019   4.025   4.272   2.963 -0.1230 -0.1441 -0.2818
16535TIP3    H171020   4.006   4.179   2.980  0.9789 -0.5849 -1.3976
16535TIP3    H271021   4.093   4.294   3.026 -2.0819  0.6410  1.7028
16536TIP3   OH271022   0.582   1.591  13.696 -0.2576 -0.1549  0.3331
16536TIP3    H171023   0.607   1.554  13.781  1.3414 -0.6511 -0.3237
16536TIP3    H271024   0.664   1.626  13.660 -0.3766 -2.0658 -2.0493
16537TIP3   OH271025   4.700   5.834   4.796 -0.0171  0.4338  0.8674
16537TIP3    H171026   4.716   5.825   4.702  0.8833  2.9452  0.7152
16537TIP3    H271027   4.629   5.898   4.802  0.6316  1.0826  1.9115
16538TIP3   OH271028   4.729   4.341  12.192  0.3800  0.0053 -0.8830
16538TIP3    H171029   4.786   4.268  12.215  0.7185  0.3590 -0.5922
16538TIP3    H271030   4.649   4.300  12.158  0.4929 -0.4984 -0.5376
16539TIP3   OH271031   4.277   0.404   4.303  0.2579  0.0798  0.0749
16539TIP3    H171032   4.249   0.383   4.393 -2.2379  2.3783 -0.0573
16539TIP3    H271033   4.321   0.488   4.311  1.4585 -0.4496 -0.6895
16540TIP3   OH271034   1.649   1.767   0.422 -0.3849  0.3437 -0.2241
16540TIP3    H171035   1.693   1.700   0.371  0.7885  0.4144  0.6432
16540TIP3    H271036   1.577   1.721   0.465 -1.3975  0.2942 -1.9100
16541TIP3   OH271037   4.294   3.686   4.887 -0.2360 -0.1222 -0.1156
16541TIP3    H171038   4.284   3.771   4.930 -0.3349  0.2770 -0.9108
16541TIP3    H271039   4.292   3.706   4.794 -2.1499 -1.1802 -0.3505
16542TIP3   OH271040   2.040   3.845   4.088  0.0842 -0.0656 -0.2740
16542TIP3    H171041   2.092   3.791   4.148 -0.9632 -1.3680 -0.5021
16542TIP3    H271042   2.040   3.932   4.129 -0.2252 -0.8024  1.3852
16543TIP3   OH271043   3.169   4.028  14.856 -0.3308  0.4056 -0.3085
16543TIP3    H171044   3.223   4.107  14.862 -0.3230  0.3494  0.4754
16543TIP3    H271045   3.103   4.049  14.790  1.4317 -0.0030 -2.3263
16544TIP3   OH271046   3.902   4.567   3.358 -0.1943  0.6796  0.6564
16544TIP3    H171047   3.924   4.487   3.406  0.5576  0.9081  0.7107
16544TIP3    H271048   3.933   4.550   3.269  0.5177  1.1337  0.8114
16545TIP3   OH271049   3.784   5.685  10.613 -0.1794 -0.4504 -0.0240
16545TIP3    H171050   3.800   5.632  10.534 -0.1502  0.1573 -0.4325
16545TIP3    H271051   3.802   5.625  10.685 -0.2479 -1.0331 -0.4761
16546TIP3   OH271052   1.015   3.616  16.850 -0.6344 -0.6541  0.0328
16546TIP3    H171053   1.081   3.599  16.918 -0.1724  0.3460 -0.1459
16546TIP3    H271054   1.000   3.530  16.810  0.1964 -0.9913  0.4056
16547TIP3   OH271055   0.653   0.120   2.524 -0.0701  0.3659 -0.3719
16547TIP3    H171056   0.652   0.153   2.434  1.3454 -1.3436 -1.0836
16547TIP3    H271057   0.562   0.092   2.540 -0.3486  0.7264 -1.2577
16548TIP3   OH271058   4.057   5.312  12.086 -0.4321  0.1794  0.2989
16548TIP3    H171059   4.030   5.247  12.151 -0.0724  0.0073  0.2781
16548TIP3    H271060   3.982   5.370  12.078 -1.3592 -1.0900 -0.7873
16549TIP3   OH271061   4.865   2.221  14.016 -0.3792 -0.1038  0.0121
16549TIP3    H171062   4.928   2.226  13.945 -2.2567  0.3998 -1.7299
16549TIP3    H271063   4.853   2.311  14.045  0.9799 -0.3925  1.5892
16550TIP3   OH271064   6.373   0.833   1.125  0.3159  0.4071  0.0473
16550TIP3    H171065   6.459   0.799   1.146  0.4253  0.1818 -0.7172
16550TIP3    H271066   6.390   0.915   1.077  0.1169  0.2547 -0.2902
16551TIP3   OH271067   2.491   2.268  10.850  0.4857 -0.7165 -0.1421
16551TIP3    H171068   2.542   2.214  10.790  0.7877  2.1787 -2.7743
16551TIP3    H271069   2.400   2.250  10.829  0.5715 -0.7152 -0.5134
16552TIP3   OH271070   3.798   3.711  11.895 -0.1758 -0.0303  0.1626
16552TIP3    H171071   3.772   3.628  11.935 -0.1976  0.2495  0.7333
16552TIP3    H271072   3.886   3.694  11.860 -0.1026 -0.2356  0.4442
16553TIP3   OH271073   5.116   4.227  12.142 -0.5624 -0.4556 -0.3522
16553TIP3    H171074   5.150   4.166  12.076  0.2933 -0.9644  0.5343
16553TIP3    H271075   5.181   4.296  12.147 -1.3154  0.3187 -1.0315
16554TIP3   OH271076   6.377   5.057   3.224 -0.3141 -0.7301  0.1954
16554TIP3    H171077   6.283   5.059   3.209 -0.5597 -1.4875  1.5084
16554TIP3    H271078   6.390   4.988   3.290  1.0630 -0.1209  0.6038
16555TIP3   OH271079   3.037   3.781   4.454 -0.0389  0.2703  0.0853
16555TIP3    H171080   3.042   3.686   4.444 -1.2138  0.0117  1.5662
16555TIP3    H271081   3.038   3.815   4.365 -3.6946 -1.3839 -0.7515
16556TIP3   OH271082   3.377   2.166  11.525  0.3887 -0.2603 -0.3221
16556TIP3    H171083   3.364   2.228  11.596  1.6301 -0.3886  0.0396
16556TIP3    H271084   3.388   2.081  11.568  1.0327 -0.3561 -0.6512
16557TIP3   OH271085   4.431   6.666  13.006 -0.1411  0.1263  0.1844
16557TIP3    H171086   4.430   6.602  13.077  0.3350  1.1704  1.1660
16557TIP3    H271087   4.342   6.666  12.972 -0.7805  0.6605  1.7830
16558TIP3   OH271088   1.452   2.258   2.199  0.0958  0.3211  0.0120
16558TIP3    H171089   1.495   2.277   2.115 -0.0153  0.6806  0.0343
16558TIP3    H271090   1.509   2.195   2.242 -0.8917 -1.5554 -1.2542
16559TIP3   OH271091   2.444   2.281  14.982  0.3042  0.0002 -0.9167
16559TIP3    H171092   2.538   2.298  14.984  0.2895  0.1540 -1.4118
16559TIP3    H271093   2.429   2.240  14.897  0.2091 -1.7899 -0.0709
16560TIP3   OH271094   6.356   5.017   4.765 -0.3485  0.7846 -0.3685
16560TIP3    H171095   6.370   4.948   4.701  0.4415  0.9265 -0.3663
16560TIP3    H271096   6.358   4.973   4.850  0.4301  0.8412 -0.3528
16561TIP3   OH271097   0.841   1.252  12.651 -0.0251 -0.3137 -0.0563
16561TIP3    H171098   0.882   1.204  12.580  1.4073 -0.5862  0.9257
16561TIP3    H271099   0.760   1.204  12.669 -0.6298 -0.0020 -1.7368
16562TIP3   OH271100   3.924   5.233  15.199 -1.2079  0.3578  0.2471
16562TIP3    H171101   3.976   5.313  15.198  0.2329 -0.5521  0.5150
16562TIP3    H271102   3.864   5.245  15.273 -0.1519  0.6594  1.0721
16563TIP3   OH271103   4.823   0.531   4.300 -0.4254  0.1895  0.1932
16563TIP3    H171104   4.839   0.623   4.322 -1.0620  1.5197 -4.1322
16563TIP3    H271105   4.755   0.504   4.362 -0.6193  2.7539  1.2380
16564TIP3   OH271106   6.021   3.900  17.218 -0.0790 -0.2879  0.8543
16564TIP3    H171107   5.947   3.838  17.222  0.5125 -1.1467 -0.5646
16564TIP3    H271108   6.075   3.877  17.293 -1.1953  0.3179  1.8891
16565TIP3   OH271109   3.905   5.867   0.277  0.6197  0.2644  0.1315
16565TIP3    H171110   3.900   5.913   0.361  0.4063  0.7113 -0.1199
16565TIP3    H271111   3.847   5.917   0.219  3.0660  1.8350 -1.1330
16566TIP3   OH271112   0.226   2.772  15.198  0.2719  0.1425 -0.2433
16566TIP3    H171113   0.168   2.711  15.244  0.3678  0.6951  0.6496
16566TIP3    H271114   0.166   2.832  15.153  0.1323  0.4898  0.3784
16567TIP3   OH271115   5.611   4.450   2.704  0.4072  0.2260 -0.1309
16567TIP3    H171116   5.598   4.388   2.776 -1.6957 -0.8089 -1.3055
16567TIP3    H271117   5.670   4.516   2.740 -0.1266 -0.5421  2.3613
16568TIP3   OH271118   4.202   3.329  11.242  0.8112  0.1488 -0.1568
16568TIP3    H171119   4.214   3.239  11.210  0.7915 -0.2683  0.9652
16568TIP3    H271120   4.214   3.383  11.164 -0.0954 -0.8687 -1.0595
16569TIP3   OH271121   5.121   1.219  14.357 -0.2613  0.6205  0.2523
16569TIP3    H171122   5.101   1.191  14.267  0.3918 -0.2194  0.3600
16569TIP3    H271123   5.037   1.249  14.392 -0.8497 -0.5260 -0.1214
16570TIP3   OH271124   2.532   1.095  13.620  0.0209  0.1508 -0.0465
16570TIP3    H171125   2.532   1.001  13.604  0.7171 -0.0777  1.1481
16570TIP3    H271126   2.621   1.122  13.596  0.0174  0.3905  0.2157
16571TIP3   OH271127   2.907   1.911  14.265  0.7019 -0.6591 -0.2747
16571TIP3    H171128   2.907   1.919  14.170 -0.2165  0.8099 -0.1877
16571TIP3    H271129   2.814   1.909  14.289  0.8705  1.0904  0.7023
16572TIP3   OH271130   5.814   4.306  11.960  0.2631  0.1039 -0.2650
16572TIP3    H171131   5.793   4.396  11.985 -1.7700 -0.2501 -0.5141
16572TIP3    H271132   5.846   4.266  12.041 -0.9039  0.4871  0.4156
16573TIP3   OH271133   2.264   1.678  10.988 -0.4997 -0.2889 -0.2508
16573TIP3    H171134   2.350   1.669  11.029 -0.0985  0.2237 -0.9580
16573TIP3    H271135   2.208   1.618  11.037 -0.0688  0.3571  1.1092
16574TIP3   OH271136   6.059   6.726   1.693  0.3423  0.1603 -0.0583
16574TIP3    H171137   6.135   6.785   1.694  1.1987 -0.8978 -0.4261
16574TIP3    H271138   6.080   6.661   1.625 -0.6300 -0.4896  0.2434
16575TIP3   OH271139   1.185   0.516   1.919 -0.2092 -0.1943  0.9052
16575TIP3    H171140   1.208   0.499   1.828  0.6562  1.2291  0.8300
16575TIP3    H271141   1.094   0.487   1.926 -0.2451 -0.4653 -0.3708
16576TIP3   OH271142   6.506   5.360  12.827 -0.5048  0.2115 -0.3196
16576TIP3    H171143   6.548   5.430  12.877 -2.0485  1.4407 -0.6296
16576TIP3    H271144   6.413   5.367  12.851 -0.5943 -2.4148  0.4028
16577TIP3   OH271145   0.870   5.916   3.777  0.5131  0.5632  0.1694
16577TIP3    H171146   0.964   5.897   3.770  0.7287  1.4332  0.5980
16577TIP3    H271147   0.863   5.976   3.851 -0.4902 -0.1725  0.6935
16578TIP3   OH271148   1.435   3.675  17.175  0.1432  0.3163 -0.3244
16578TIP3    H171149   1.464   3.586  17.154 -0.7023 -0.3276  1.0494
16578TIP3    H271150   1.516   3.724  17.190  0.6124 -0.3234 -0.7420
16579TIP3   OH271151   6.126   2.954   4.129 -0.9400 -0.3272 -0.1168
16579TIP3    H171152   6.155   2.943   4.039 -1.1722  0.0022 -0.2339
16579TIP3    H271153   6.130   3.049   4.145 -0.0338 -0.4649  0.5134
16580TIP3   OH271154   4.194   0.282  16.686  0.0856  0.1555 -0.7495
16580TIP3    H171155   4.170   0.207  16.631  1.2020 -0.7307 -0.0702
16580TIP3    H271156   4.218   0.243  16.770  1.1177  1.2277 -0.5227
16581TIP3   OH271157   0.947   4.312  16.838 -0.2879 -0.0972 -0.5445
16581TIP3    H171158   0.974   4.275  16.754 -1.1782  1.2173 -1.4549
16581TIP3    H271159   0.937   4.406  16.820  0.6656  0.4006  1.3420
16582TIP3   OH271160   4.120   5.510   0.415  0.1215 -0.5982 -0.0556
16582TIP3    H171161   4.186   5.572   0.444 -0.3876 -0.6299  1.2283
16582TIP3    H271162   4.075   5.555   0.343  1.3943 -0.5165 -0.8349
16583TIP3   OH271163   4.229   1.098  15.697 -0.1409  0.5175 -0.2041
16583TIP3    H171164   4.192   1.013  15.721 -0.8855  1.4466  2.3271
16583TIP3    H271165   4.297   1.078  15.634 -0.5516 -1.9223  0.0374
16584TIP3   OH271166   1.489   0.606  12.243  0.0606 -0.9290  0.8172
16584TIP3    H171167   1.433   0.627  12.317  0.7726  1.1744  0.8410
16584TIP3    H271168   1.432   0.611  12.167 -0.3914 -1.8056  1.0857
16585TIP3   OH271169   4.768   5.148   3.207  0.2573  0.1475 -0.7269
16585TIP3    H171170   4.778   5.228   3.258  0.0959 -0.8976  1.0438
16585TIP3    H271171   4.715   5.091   3.263  0.9961 -1.4680 -1.5954
16586TIP3   OH271172   6.549   5.853  14.313 -0.1591 -0.0435  0.1105
16586TIP3    H171173   6.636   5.845  14.351 -0.3785  1.1869  0.9109
16586TIP3    H271174   6.533   5.768  14.271  1.6513 -0.0931 -0.5697
16587TIP3   OH271175   1.943   4.676   1.682 -0.4050 -0.1617 -0.3605
16587TIP3    H171176   1.859   4.681   1.638 -1.0213 -0.3992  0.7460
16587TIP3    H271177   1.957   4.765   1.716  0.0942  0.0362 -1.0539
16588TIP3   OH271178   2.622   2.910   4.504  0.4836  1.1820  0.1248
16588TIP3    H171179   2.539   2.954   4.524 -0.3166 -0.1462 -0.1656
16588TIP3    H271180   2.669   2.972   4.448 -0.6317  1.6534 -0.3198
16589TIP3   OH271181   3.160   5.368   1.040  0.3061 -0.2445 -0.0453
16589TIP3    H171182   3.228   5.387   0.976  0.6903 -0.3346  0.3286
16589TIP3    H271183   3.208   5.344   1.119  0.0794  5.3500  2.1843
16590TIP3   OH271184   6.182   0.120   1.388 -0.4172 -0.2757  0.0169
16590TIP3    H171185   6.101   0.077   1.360 -0.3500 -0.1462 -0.3845
16590TIP3    H271186   6.200   0.184   1.319  0.0260 -0.3064  0.1026
16591TIP3   OH271187   3.438   1.789  11.250  0.5454  0.1787  0.5774
16591TIP3    H171188   3.501   1.823  11.186 -1.0848 -2.4188 -2.7130
16591TIP3    H271189   3.356   1.833  11.228 -0.3047 -1.6214 -0.0224
16592TIP3   OH271190   6.021   1.998  12.051 -0.3775  0.1465  0.1366
16592TIP3    H171191   5.955   1.932  12.031  1.2058 -1.4531 -0.0932
16592TIP3    H271192   5.973   2.067  12.097 -1.9785 -1.5112  1.0790
16593TIP3   OH271193   1.613   6.306   3.380 -0.1312 -0.1902  0.3920
16593TIP3    H171194   1.624   6.396   3.410  0.8088 -0.8566  2.2742
16593TIP3    H271195   1.695   6.285   3.335 -1.1234  0.4649 -1.8604
16594TIP3   OH271196   6.584   5.216   4.992 -0.2418  0.1478  0.0945
16594TIP3    H171197   6.507   5.227   4.937  0.1874  2.2111 -0.1744
16594TIP3    H271198   6.654   5.190   4.932 -0.1025  1.0294 -0.1442
16595TIP3   OH271199   2.401   0.902   4.194 -0.0693 -0.0703 -0.3628
16595TIP3    H171200   2.364   0.870   4.111 -0.9547  0.6340 -0.2575
16595TIP3    H271201   2.369   0.840   4.259  0.6769 -0.6599 -0.5376
16596TIP3   OH271202   4.645   4.485   1.161 -0.1355 -0.0837 -0.5605
16596TIP3    H171203   4.560   4.510   1.123 -0.5203 -0.1940  0.2075
16596TIP3    H271204   4.709   4.518   1.099 -0.6861  1.3313 -0.4203
16597TIP3   OH271205   0.780   3.366   3.530  0.7844  0.0975  0.2756
16597TIP3    H171206   0.751   3.316   3.453  0.8436 -0.9258  0.9049
16597TIP3    H271207   0.727   3.446   3.526  0.2862 -0.2458 -0.4531
16598TIP3   OH271208   0.213   2.225  10.582  0.1093  0.3571 -0.2505
16598TIP3    H171209   0.183   2.269  10.661  1.4626 -0.9474  1.0581
16598TIP3    H271210   0.134   2.188  10.543 -0.3955 -0.6328  1.5751
16599TIP3   OH271211   2.412   5.229  11.568 -0.0060  0.1103  0.2109
16599TIP3    H171212   2.327   5.263  11.540 -0.2698 -0.7241 -0.0464
16599TIP3    H271213   2.408   5.232  11.664 -0.5359 -0.3967  0.2122
16600TIP3   OH271214   0.255   4.395   0.289 -0.0792 -0.0438 -0.6366
16600TIP3    H171215   0.174   4.344   0.290  0.3568 -0.7442  0.0073
16600TIP3    H271216   0.297   4.371   0.206  1.7117 -3.3707  1.0554
16601TIP3   OH271217   4.864   3.134  16.895 -0.0857 -0.1270 -0.4826
16601TIP3    H171218   4.938   3.176  16.938 -1.1246  0.7675  0.5375
16601TIP3    H271219   4.796   3.202  16.893 -1.1443 -1.1478 -0.6348
16602TIP3   OH271220   0.137   1.772  14.062  0.0228  0.2248  0.8640
16602TIP3    H171221   0.168   1.790  13.973 -0.1037  0.0534  0.7837
16602TIP3    H271222   0.131   1.858  14.103  1.2678  0.2231  1.1020
16603TIP3   OH271223   0.657   5.719  11.412  0.0007 -0.0450  0.2302
16603TIP3    H171224   0.624   5.692  11.326  0.8880 -0.8537  0.1342
16603TIP3    H271225   0.745   5.752  11.395 -0.8132  2.3983  0.4430
16604TIP3   OH271226   5.502   0.064  15.850 -0.1655 -0.3212  0.2841
16604TIP3    H171227   5.448   0.062  15.771 -1.8937 -1.5236  1.4194
16604TIP3    H271228   5.583   0.108  15.823 -0.0607 -1.9893 -2.5369
16605TIP3   OH271229   6.635   3.733   3.192 -0.0612 -0.1426 -0.1895
16605TIP3    H171230   6.544   3.752   3.170  0.5866  1.5212 -1.7716
16605TIP3    H271231   6.661   3.665   3.130 -0.6923 -1.9678  1.4763
16606TIP3   OH271232   5.480   5.983  15.790  0.3748 -0.6522 -0.0740
16606TIP3    H171233   5.445   6.017  15.873  0.9643 -3.3262  1.3877
16606TIP3    H271234   5.574   5.978  15.805  0.5581 -0.5712 -1.1594
16607TIP3   OH271235   5.667   6.681   5.125 -0.4154  0.0088  0.5010
16607TIP3    H171236   5.613   6.705   5.200 -0.4363  2.1915 -0.1555
16607TIP3    H271237   5.636   6.737   5.054  2.2632  0.8735 -0.0814
16608TIP3   OH271238   5.742   2.819   3.427  0.3513 -0.0406 -0.1491
16608TIP3    H171239   5.695   2.877   3.367 -0.3028 -0.4679 -0.0580
16608TIP3    H271240   5.696   2.829   3.511 -0.8637 -1.9360 -0.5249
16609TIP3   OH271241   6.260   1.270   3.606  0.6439  0.1944 -0.1605
16609TIP3    H171242   6.165   1.272   3.607  0.5740  0.8296 -2.6369
16609TIP3    H271243   6.286   1.309   3.690 -1.2194 -1.2493  1.1588
16610TIP3   OH271244   4.886   4.855  13.632  0.1603 -0.0099  0.9214
16610TIP3    H171245   4.851   4.814  13.553  0.3463  0.4137  0.6150
16610TIP3    H271246   4.918   4.782  13.685  0.7956 -0.2397  0.2345
16611TIP3   OH271247   0.380   4.472   2.681 -0.0643  0.1520  0.3697
16611TIP3    H171248   0.325   4.514   2.747 -0.7228 -0.1234  0.0054
16611TIP3    H271249   0.407   4.543   2.623  1.9336  0.7075  1.8667
16612TIP3   OH271250   0.644   2.577  12.818 -0.3140 -0.8414  0.1874
16612TIP3    H171251   0.609   2.565  12.906  1.6762 -0.5529  1.0704
16612TIP3    H271252   0.696   2.657  12.824  1.6458 -1.9859 -0.6279
16613TIP3   OH271253   2.130   5.587   2.149  0.3862  0.7909  0.6227
16613TIP3    H171254   2.155   5.506   2.104  0.8237 -0.6913  3.2964
16613TIP3    H271255   2.167   5.657   2.095  0.8955 -0.8320 -1.2535
16614TIP3   OH271256   3.974   4.253   5.555 -0.0907  0.2835  0.5750
16614TIP3    H171257   3.986   4.159   5.564 -1.3743  0.0852  0.4268
16614TIP3    H271258   4.003   4.273   5.466 -0.2463 -0.0421  0.4508
16615TIP3   OH271259   1.076   5.933   0.540  0.0586 -0.6142 -0.7245
16615TIP3    H171260   1.011   5.947   0.610 -0.1438  0.8734 -1.1648
16615TIP3    H271261   1.050   5.851   0.499 -0.7228 -0.7476  0.0066
16616TIP3   OH271262   5.673   4.517  12.813  0.0042 -0.3573 -0.5848
16616TIP3    H171263   5.663   4.421  12.816 -0.0366 -0.5256 -3.7025
16616TIP3    H271264   5.760   4.531  12.778  0.2935  0.8204  0.5314
16617TIP3   OH271265   2.257   2.446   0.485  0.1388  0.4172  0.2822
16617TIP3    H171266   2.312   2.369   0.501  0.3133  0.4710 -0.0527
16617TIP3    H271267   2.172   2.411   0.461  0.9101  0.2504 -2.5501
16618TIP3   OH271268   1.239   1.247  14.620  0.2224  0.4648 -0.1454
16618TIP3    H171269   1.157   1.272  14.662 -1.3513 -0.6899 -2.3740
16618TIP3    H271270   1.237   1.151  14.616 -0.1240  0.5065 -3.4643
16619TIP3   OH271271   5.783   6.059  15.676  0.3274  0.0223 -0.0840
16619TIP3    H171272   5.799   5.992  15.609  0.0374 -0.5408  0.3989
16619TIP3    H271273   5.847   6.041  15.744 -1.6684 -1.7481  1.4844
16620TIP3   OH271274   1.270   2.879  15.725 -0.1208  0.2020  0.8198
16620TIP3    H171275   1.365   2.883  15.731 -0.0142 -1.8828  1.2259
16620TIP3    H271276   1.249   2.928  15.645  1.5168 -1.3008 -0.6040
16621TIP3   OH271277   4.660   3.830  12.563  0.0131  0.8348  0.2991
16621TIP3    H171278   4.692   3.865  12.480 -1.2303 -0.8160 -0.9457
16621TIP3    H271279   4.730   3.771  12.593 -0.2070  0.1787 -0.4443
16622TIP3   OH271280   4.343   1.381  16.948 -0.3510  0.5164  0.3351
16622TIP3    H171281   4.362   1.316  16.880  0.2038  1.6089 -0.5859
16622TIP3    H271282   4.260   1.352  16.986 -0.3645 -0.4513 -0.3895
16623TIP3   OH271283   3.431   4.420   5.390 -0.0680 -0.0817 -0.0433
16623TIP3    H171284   3.397   4.503   5.358 -1.3652  0.6957  3.0572
16623TIP3    H271285   3.526   4.425   5.373 -0.1428  1.9415 -0.0582
16624TIP3   OH271286   6.603   4.060  17.173  0.5110 -0.6034 -0.1578
16624TIP3    H171287   6.685   4.105  17.150 -1.3034  1.8091 -2.4002
16624TIP3    H271288   6.535   4.125  17.161 -1.8351 -2.5016  1.7142
16625TIP3   OH271289   6.091   0.669   6.835 -0.4239  0.0149 -0.1659
16625TIP3    H171290   6.051   0.631   6.756  0.4341 -0.0425 -0.5903
16625TIP3    H271291   6.112   0.594   6.890 -0.1582 -0.0166 -0.3083
16626TIP3   OH271292   4.687   4.653  13.899  0.0005 -0.1532 -0.3298
16626TIP3    H171293   4.747   4.602  13.845  0.2102 -0.6938  0.3882
16626TIP3    H271294   4.680   4.602  13.980 -1.3361 -0.0312 -0.3566
16627TIP3   OH271295   6.632   2.082  17.170  0.1455  0.1841  0.0400
16627TIP3    H171296   6.683   2.143  17.117 -1.4013  0.6985 -0.9302
16627TIP3    H271297   6.551   2.129  17.189  0.0315 -0.5644  1.6172
16628TIP3   OH271298   1.976   3.100   5.676 -0.0434 -0.0376 -0.5416
16628TIP3    H171299   1.976   3.144   5.591 -0.5336  0.0176 -0.5161
16628TIP3    H271300   2.058   3.051   5.678 -0.2986 -0.5111 -1.2904
16629TIP3   OH271301   6.593   6.664   2.279 -0.2552  0.2253 -0.3859
16629TIP3    H171302   6.556   6.748   2.250 -1.6704  0.1063  0.9938
16629TIP3    H271303   6.687   6.679   2.279 -0.4523  1.6291 -0.7424
16630TIP3   OH271304   5.192   5.371  15.976 -0.1285 -0.2711  0.2364
16630TIP3    H171305   5.280   5.401  15.953 -0.2001 -1.9486 -2.7649
16630TIP3    H271306   5.143   5.452  15.994  1.1847  0.9957 -1.5043
16631TIP3   OH271307   3.021   2.480  12.832 -0.2544  0.0760 -0.5726
16631TIP3    H171308   3.061   2.484  12.744  0.5205  0.4023 -0.2176
16631TIP3    H271309   3.089   2.440  12.886 -1.3351 -1.6752 -0.4387
16632TIP3   OH271310   0.165   6.647   2.063 -0.4032 -0.3530 -0.3472
16632TIP3    H171311   0.253   6.635   2.027 -0.0144  0.9468  0.1064
16632TIP3    H271312   0.110   6.585   2.014  0.5994 -0.5621 -1.2437
16633TIP3   OH271313   0.706   6.281  11.446  0.2819 -0.5654 -0.4401
16633TIP3    H171314   0.713   6.375  11.434  0.1129 -0.7655 -2.3131
16633TIP3    H271315   0.775   6.243  11.392 -1.0619 -1.5878 -1.5132
16634TIP3   OH271316   1.754   3.316  15.540 -0.3958  0.9478 -0.3076
16634TIP3    H171317   1.817   3.247  15.561 -1.9689 -0.0454  1.3711
16634TIP3    H271318   1.809   3.390  15.515  1.4622  0.0534  0.8419
16635TIP3   OH271319   2.982   5.048  14.064  0.1452 -0.2657 -0.3295
16635TIP3    H171320   2.996   5.085  13.977 -1.4960 -0.8184 -0.8650
16635TIP3    H271321   3.050   5.089  14.119  0.8061  0.5678 -1.7147
16636TIP3   OH271322   5.711   0.252  11.160  0.1199 -0.1376  0.0226
16636TIP3    H171323   5.710   0.325  11.098  1.4451 -0.1033  0.0156
16636TIP3    H271324   5.801   0.221  11.159 -0.5586 -2.2329 -0.4765
16637TIP3   OH271325   5.421   1.420   1.107 -0.1182 -0.0208 -0.3412
16637TIP3    H171326   5.444   1.331   1.135 -1.5995 -0.2424  0.2537
16637TIP3    H271327   5.422   1.415   1.011 -0.1450 -0.6670 -0.3156
16638TIP3   OH271328   5.917   0.621   4.374  0.6573 -0.0279 -0.8035
16638TIP3    H171329   5.857   0.554   4.340  1.2351 -1.2051  0.3894
16638TIP3    H271330   6.000   0.603   4.331  0.5134  0.7131 -1.4005
16639TIP3   OH271331   1.512   0.614   5.804  0.1265 -0.0242 -0.3029
16639TIP3    H171332   1.427   0.606   5.848  0.0691  0.7970 -0.2381
16639TIP3    H271333   1.492   0.653   5.719  0.3881 -0.2851 -0.4861
16640TIP3   OH271334   1.895   6.786   4.990  0.4091  0.5725  0.3980
16640TIP3    H171335   1.845   6.864   4.968  0.7236  0.9445  0.9862
16640TIP3    H271336   1.946   6.767   4.911  0.2712  0.9153  0.2274
16641TIP3   OH271337   1.720   3.920  13.713  0.1886 -0.1511  0.2259
16641TIP3    H171338   1.664   3.890  13.785 -0.2037 -2.6652 -1.0354
16641TIP3    H271339   1.680   3.883  13.634  3.2155 -1.5281 -0.8199
16642TIP3   OH271340   6.788   0.555  15.005 -0.6299  0.2476 -0.5092
16642TIP3    H171341   6.832   0.476  15.034  1.3569  1.3655 -0.3017
16642TIP3    H271342   6.851   0.599  14.949 -1.3108  2.1300  0.1029
16643TIP3   OH271343   4.916   1.324   5.848 -0.2839  0.1984  0.2633
16643TIP3    H171344   4.968   1.378   5.908  2.0682 -0.2489 -1.2380
16643TIP3    H271345   4.825   1.345   5.870  0.4952  2.7606  1.5042
16644TIP3   OH271346   0.790   4.781  15.410  0.3017  0.2319 -0.1433
16644TIP3    H171347   0.774   4.714  15.344  1.9960 -0.5660  0.1955
16644TIP3    H271348   0.768   4.739  15.494  0.7317  0.3195  0.0167
16645TIP3   OH271349   3.090   3.797  12.290  0.4752 -0.0114  0.1161
16645TIP3    H171350   3.098   3.722  12.230  0.0579  0.7689 -0.9591
16645TIP3    H271351   3.119   3.763  12.375  2.3835 -0.8064 -0.7851
16646TIP3   OH271352   2.539   1.991   5.097 -0.1102 -0.5256  0.0755
16646TIP3    H171353   2.445   1.995   5.081  0.0192  0.3261 -0.5194
16646TIP3    H271354   2.573   1.935   5.027  0.0614  0.7506 -0.9014
16647TIP3   OH271355   3.123   2.525  16.966 -0.5422 -0.1532 -0.2654
16647TIP3    H171356   3.085   2.534  17.054  1.8012  2.6815  0.6044
16647TIP3    H271357   3.200   2.470  16.979 -0.0295  0.5096 -0.4608
16648TIP3   OH271358   6.189   1.021  13.129  0.2942  0.2789  0.7393
16648TIP3    H171359   6.203   1.066  13.046  1.4838 -2.4323 -0.6692
16648TIP3    H271360   6.113   1.064  13.167  0.7856  2.7935 -0.8642
16649TIP3   OH271361   1.627   4.140   1.540 -0.7754 -0.1139 -0.6210
16649TIP3    H171362   1.621   4.124   1.446 -0.1907 -0.1787 -0.6500
16649TIP3    H271363   1.632   4.053   1.579  0.1899 -0.0752 -0.6236
16650TIP3   OH271364   0.052   5.763  11.863 -0.1021  0.1085  0.3853
16650TIP3    H171365  -0.012   5.831  11.841 -0.0338  0.4514  1.1880
16650TIP3    H271366   0.136   5.807  11.858  0.1236 -0.4394 -1.0458
16651TIP3   OH271367   0.816   0.815   3.127  0.2302  0.3532 -0.1137
16651TIP3    H171368   0.765   0.796   3.048 -0.7362 -0.4039  0.6577
16651TIP3    H271369   0.866   0.735   3.144 -1.1764 -0.3344  1.1727
16652TIP3   OH271370   5.335   3.556  14.966  1.0141  0.1981  0.4879
16652TIP3    H171371   5.318   3.493  14.896  1.3772  0.1016  0.4842
16652TIP3    H271372   5.275   3.629  14.948  1.3295  0.3181 -0.1045
16653TIP3   OH271373   2.913   5.737   0.063  0.3320  0.2159  0.1939
16653TIP3    H171374   2.823   5.744   0.094 -0.4681  0.3030 -1.9539
16653TIP3    H271375   2.943   5.828   0.055  0.5601  0.1918  0.7204
16654TIP3   OH271376   2.045   1.473  14.577 -0.4587 -0.0982  0.0944
16654TIP3    H171377   2.091   1.409  14.522 -0.6614  1.0508 -1.4496
16654TIP3    H271378   2.006   1.420  14.647  2.2317 -1.2839  0.8758
16655TIP3   OH271379   5.172   3.876   0.342  0.3121 -0.1352  0.2500
16655TIP3    H171380   5.181   3.826   0.261  0.9866  0.7592 -0.2471
16655TIP3    H271381   5.086   3.917   0.336  0.1174 -0.5379  0.2628
16656TIP3   OH271382   4.452   5.457   4.476 -0.2339  0.0125 -0.2371
16656TIP3    H171383   4.451   5.413   4.390  1.5457  1.1729 -0.8991
16656TIP3    H271384   4.464   5.549   4.456 -0.6355  0.4157  1.2616
16657TIP3   OH271385   5.273   5.619  12.528 -0.3650  0.1185  0.6919
16657TIP3    H171386   5.354   5.574  12.506  0.0454  1.9119 -2.0080
16657TIP3    H271387   5.204   5.554  12.514  0.3889 -0.5062 -0.1795
16658TIP3   OH271388   6.583   2.281   1.957 -0.3647 -0.2611  0.3256
16658TIP3    H171389   6.600   2.282   2.051  2.0132  2.0079 -0.0097
16658TIP3    H271390   6.636   2.210   1.923 -0.4682 -0.4655  0.5927
16659TIP3   OH271391   3.223   3.292   4.968  0.1668  0.6222 -0.2489
16659TIP3    H171392   3.242   3.224   4.902  0.3800  0.3983  0.0405
16659TIP3    H271393   3.204   3.370   4.916  3.2247  1.2676 -0.6093
16660TIP3   OH271394   0.222   1.685  13.176  0.1143 -0.1707  0.4521
16660TIP3    H171395   0.213   1.611  13.116 -0.6240 -1.9358  2.6252
16660TIP3    H271396   0.298   1.663  13.230 -0.4104  0.4105  1.4474
16661TIP3   OH271397   1.586   3.383  11.849 -0.0204  0.3507  0.2344
16661TIP3    H171398   1.557   3.302  11.891 -1.0896  0.8827  0.5466
16661TIP3    H271399   1.680   3.370  11.835  0.2092 -0.1596  2.0420
16662TIP3   OH271400   3.566   1.075  17.062  0.1116 -0.7251 -0.0541
16662TIP3    H171401   3.620   1.149  17.088  0.9972 -1.9227  1.7650
16662TIP3    H271402   3.481   1.091  17.104  0.3031 -0.7092  0.3381
16663TIP3   OH271403   2.271   6.345  13.477  0.1500 -0.1368  0.0364
16663TIP3    H171404   2.366   6.332  13.486  0.1208 -0.1662  0.3117
16663TIP3    H271405   2.234   6.300  13.553 -0.0112  0.7683  0.5057
16664TIP3   OH271406   5.761   2.527  12.196 -0.1986 -1.1157  0.2580
16664TIP3    H171407   5.784   2.582  12.271  4.0167 -2.5998  0.3138
16664TIP3    H271408   5.687   2.475  12.226 -0.8467  0.7206  2.0796
16665TIP3   OH271409   4.571   4.537  14.218  0.0163  0.3156 -0.2353
16665TIP3    H171410   4.496   4.525  14.160  0.7005 -0.9459 -0.9104
16665TIP3    H271411   4.534   4.569  14.300 -1.4144 -1.3933 -0.1541
16666TIP3   OH271412   4.733   3.928  12.306  0.2947  0.4450  0.4862
16666TIP3    H171413   4.786   3.999  12.270 -0.5470  1.4057  1.0905
16666TIP3    H271414   4.651   3.971  12.333 -1.9437 -1.3267 -2.7546
16667TIP3   OH271415   0.117   3.326  14.543  0.5952 -0.3918  0.1228
16667TIP3    H171416   0.043   3.386  14.533 -0.1077 -1.3116 -0.3144
16667TIP3    H271417   0.120   3.308  14.637  1.4766  1.1266  0.4157
16668TIP3   OH271418   1.334   5.135   4.652  0.4366  0.4742 -0.1255
16668TIP3    H171419   1.427   5.112   4.657  0.3504  0.1125 -0.2082
16668TIP3    H271420   1.315   5.135   4.559  0.8044  2.3476 -0.2457
16669TIP3   OH271421   6.770   0.527  14.455 -0.1056  0.3509 -0.0070
16669TIP3    H171422   6.709   0.567  14.393 -0.8816  0.4130  0.7696
16669TIP3    H271423   6.853   0.570  14.438 -0.3065  0.3571 -1.0027
16670TIP3   OH271424   5.702   5.043  15.578 -0.3041 -0.0289 -0.4929
16670TIP3    H171425   5.668   4.965  15.622  0.7407  0.2542  0.8858
16670TIP3    H271426   5.669   5.036  15.488 -2.8927 -0.4008  0.4147
16671TIP3   OH271427   5.970   1.463  13.825  0.4107 -0.3080 -0.2519
16671TIP3    H171428   6.042   1.475  13.887 -1.5512  0.4395  2.0702
16671TIP3    H271429   5.931   1.378  13.849  1.9110 -1.9504 -3.1366
16672TIP3   OH271430   1.035   0.454   4.204 -0.0608 -0.2874  0.7674
16672TIP3    H171431   1.128   0.436   4.208  0.1678  0.7379  0.4597
16672TIP3    H271432   0.994   0.369   4.188  0.8394 -0.7007  0.6179
16673TIP3   OH271433   6.431   3.673   0.764  0.0013 -0.1292  0.6230
16673TIP3    H171434   6.415   3.765   0.743  0.9135 -0.3654 -1.2653
16673TIP3    H271435   6.344   3.633   0.766 -0.4312  0.7947  1.7485
16674TIP3   OH271436   6.511   0.986  11.951  0.2709 -0.6915  0.5139
16674TIP3    H171437   6.595   1.027  11.930 -0.0652 -0.8052 -1.2536
16674TIP3    H271438   6.461   1.054  11.995  1.0082 -0.3788  0.8866
16675TIP3   OH271439   3.422   2.560  15.537  0.0490  0.1410  0.0898
16675TIP3    H171440   3.334   2.578  15.504  0.6129 -0.2757 -1.7635
16675TIP3    H271441   3.473   2.637  15.512  0.3534  0.1470  0.6957
16676TIP3   OH271442   4.034   6.610   0.747 -0.1280  0.7805  0.2927
16676TIP3    H171443   4.014   6.540   0.684  1.4544 -0.5270  1.1649
16676TIP3    H271444   3.972   6.680   0.725  0.3144  0.3806 -2.6668
16677TIP3   OH271445   6.234   2.027   5.278 -0.5278 -0.0345  0.2901
16677TIP3    H171446   6.303   1.968   5.310 -1.4068 -0.3345  1.7268
16677TIP3    H271447   6.208   1.990   5.194  0.8813 -0.0618 -0.1592
16678TIP3   OH271448   4.854   3.820   1.311  0.1997 -0.3382  0.3470
16678TIP3    H171449   4.934   3.869   1.290 -0.4160  0.4465 -0.1998
16678TIP3    H271450   4.839   3.836   1.404 -0.2935  0.9820  0.0604
16679TIP3   OH271451   3.009   5.321  14.623 -0.1408  0.3716 -0.2093
16679TIP3    H171452   2.941   5.382  14.652 -2.5263 -2.0202 -0.3340
16679TIP3    H271453   3.008   5.252  14.689  0.3044 -1.0217 -1.6092
16680TIP3   OH271454   0.692   6.692  11.771  0.1022  0.3654 -1.0209
16680TIP3    H171455   0.742   6.668  11.849 -0.0089  2.4448 -0.2361
16680TIP3    H271456   0.747   6.757  11.727 -1.0425  1.2634 -1.1611
16681TIP3   OH271457   2.744   5.385   2.184 -0.0240 -0.3589 -0.0372
16681TIP3    H171458   2.700   5.380   2.269 -1.3896  1.6996 -0.5558
16681TIP3    H271459   2.776   5.476   2.179  0.0718 -0.4528 -1.7072
16682TIP3   OH271460   0.880   1.468   6.395 -0.4039 -0.2261  0.6364
16682TIP3    H171461   0.840   1.387   6.364 -0.6841  0.4988 -0.9891
16682TIP3    H271462   0.945   1.440   6.460 -0.1762 -1.7732 -0.2247
16683TIP3   OH271463   4.363   2.914  14.453 -0.1871  0.0844 -0.6381
16683TIP3    H171464   4.297   2.982  14.442 -0.4484 -0.4616 -2.7590
16683TIP3    H271465   4.437   2.959  14.494 -1.0469  1.2012 -0.2751
16684TIP3   OH271466   1.490   3.779   1.024 -0.9735  0.2443 -0.7076
16684TIP3    H171467   1.511   3.690   0.995  2.5111 -0.8233  3.8944
16684TIP3    H271468   1.564   3.832   0.995 -0.2549  0.3321  1.1553
16685TIP3   OH271469   4.649   4.307   4.596  0.3148 -0.0599 -0.3455
16685TIP3    H171470   4.560   4.294   4.565 -0.1284  3.0119 -0.7208
16685TIP3    H271471   4.690   4.221   4.591 -2.1306 -1.2280 -1.7386
16686TIP3   OH271472   6.347   1.795  13.977  0.5842  0.0651  0.2028
16686TIP3    H171473   6.277   1.834  13.924  0.7518  0.0950  0.0043
16686TIP3    H271474   6.322   1.703  13.987  0.8917 -0.0937 -0.4852
16687TIP3   OH271475   1.687   4.614   4.493 -0.1103  0.5405  0.3295
16687TIP3    H171476   1.721   4.532   4.458  2.0114  1.6548 -0.4486
16687TIP3    H271477   1.715   4.681   4.430 -2.4120  1.8037  0.5493
16688TIP3   OH271478   3.887   3.928   3.089 -0.1099 -0.2016  0.3883
16688TIP3    H171479   3.949   3.958   3.023 -2.1721  0.7827 -1.2386
16688TIP3    H271480   3.923   3.959   3.172  2.3783 -1.1630 -0.2425
16689TIP3   OH271481   2.661   4.729  10.953  0.0370 -0.8457  0.4373
16689TIP3    H171482   2.659   4.684  10.869  0.6471 -1.0948  0.5560
16689TIP3    H271483   2.582   4.698  10.998 -0.4867 -0.4349 -0.1768
16690TIP3   OH271484   4.360   3.487  11.060  0.2943 -0.8744 -0.4597
16690TIP3    H171485   4.443   3.480  11.012  1.1970 -3.0803  1.2583
16690TIP3    H271486   4.379   3.547  11.132 -0.6683  1.3508 -1.9665
16691TIP3   OH271487   1.723   5.404   0.446  0.2495  0.1341  0.5181
16691TIP3    H171488   1.634   5.434   0.465 -0.1340 -0.8923  0.4189
16691TIP3    H271489   1.778   5.452   0.508 -0.3477  0.9296  0.4428
16692TIP3   OH271490   4.885   5.978  12.417 -0.6251 -0.3441 -0.2382
16692TIP3    H171491   4.851   5.904  12.366 -0.6043 -0.5608  0.0625
16692TIP3    H271492   4.808   6.016  12.459 -0.5633 -0.5318  0.0468
16693TIP3   OH271493   0.797   5.239  11.301 -0.1284  0.1102  0.3154
16693TIP3    H171494   0.757   5.167  11.251  2.0338 -1.9161  1.2990
16693TIP3    H271495   0.757   5.318  11.265 -2.2870 -1.5329 -1.1727
16694TIP3   OH271496   4.911   0.785   4.332 -0.3663  0.3002 -0.5278
16694TIP3    H171497   4.959   0.849   4.278  0.6449  1.8098  1.9822
16694TIP3    H271498   4.898   0.830   4.415 -1.2688 -2.1534  0.7321
16695TIP3   OH271499   3.914   4.285  13.738 -0.1375  0.0400 -0.3421
16695TIP3    H171500   3.822   4.304  13.721  0.2003  0.9071 -1.3283
16695TIP3    H271501   3.955   4.371  13.747  0.2305 -0.3326  2.2886
16696TIP3   OH271502   4.421   0.351  13.095 -0.1654 -0.2237 -0.2540
16696TIP3    H171503   4.455   0.294  13.026  1.1077  2.1250 -1.6752
16696TIP3    H271504   4.378   0.291  13.156  1.3165 -2.7118 -1.5051
16697TIP3   OH271505   3.681   4.817  15.295 -0.4886  0.7103 -0.2061
16697TIP3    H171506   3.720   4.834  15.210 -2.0248  2.5054 -0.6222
16697TIP3    H271507   3.648   4.902  15.325 -1.1831 -0.1090  1.5603
16698TIP3   OH271508   3.407   3.364  12.818 -0.0880  0.0970 -0.3320
16698TIP3    H171509   3.417   3.289  12.877  2.3183 -0.0708 -0.8185
16698TIP3    H271510   3.497   3.395  12.804 -0.8761  2.0958 -1.4066
16699TIP3   OH271511   3.833   5.531   0.637  0.0760  0.6800 -0.0499
16699TIP3    H171512   3.828   5.488   0.551  0.3797  0.2254  0.1509
16699TIP3    H271513   3.924   5.561   0.642  0.1065  0.5464  0.1851
16700TIP3   OH271514   1.036   3.891  12.347  0.6546  0.3831  0.3285
16700TIP3    H171515   0.971   3.834  12.305  0.6428  0.1963  0.5954
16700TIP3    H271516   1.005   3.980  12.329  0.7372  0.3058 -0.1910
16701TIP3   OH271517   5.964   2.521   4.514 -0.9459 -0.3384  0.2205
16701TIP3    H171518   5.908   2.539   4.589 -2.1805  0.3664 -0.8270
16701TIP3    H271519   5.973   2.426   4.513 -0.6971 -0.3439  1.3878
16702TIP3   OH271520   2.588   2.099   2.370 -0.6245 -0.5666 -0.2642
16702TIP3    H171521   2.663   2.092   2.429 -0.3875 -1.3434 -0.6421
16702TIP3    H271522   2.518   2.053   2.416 -1.7377  2.5034  1.3721
16703TIP3   OH271523   6.560   2.569  13.578  0.1147  0.2613  0.0147
16703TIP3    H171524   6.654   2.582  13.592  0.6469 -1.3230 -1.5886
16703TIP3    H271525   6.522   2.656  13.586  1.5829  0.8164  1.5621
16704TIP3   OH271526   0.198   5.636   2.080  0.4696 -0.0287  0.8139
16704TIP3    H171527   0.278   5.631   2.027  0.2575 -0.9717  0.5556
16704TIP3    H271528   0.221   5.695   2.152 -0.1490  3.7501 -1.8153
16705TIP3   OH271529   0.690   6.614   5.976 -0.1704 -0.0047 -0.4250
16705TIP3    H171530   0.751   6.677   6.015 -1.7294  0.4228  1.5278
16705TIP3    H271531   0.660   6.561   6.050  0.1434 -2.2502 -1.8342
16706TIP3   OH271532   5.249   6.377   0.802 -0.0474  0.0958 -0.0942
16706TIP3    H171533   5.222   6.287   0.822 -1.1737 -0.0517 -2.0576
16706TIP3    H271534   5.187   6.432   0.849  0.0331 -0.1729  0.3274
16707TIP3   OH271535   6.352   1.291  16.847 -0.3399  0.1011 -0.1148
16707TIP3    H171536   6.348   1.384  16.870  0.4655  0.1910 -0.2976
16707TIP3    H271537   6.262   1.259  16.858 -0.2158  0.3389  2.2505
16708TIP3   OH271538   2.328   5.452  13.975 -0.2559 -0.2261 -0.0194
16708TIP3    H171539   2.329   5.360  13.950 -0.0801  0.1057 -1.3016
16708TIP3    H271540   2.272   5.494  13.910 -0.9017  0.4767  0.9501
16709TIP3   OH271541   4.584   2.010  14.501  0.1189 -0.3117  0.1694
16709TIP3    H171542   4.663   1.980  14.457  0.6407  0.7646  0.3183
16709TIP3    H271543   4.558   2.089  14.453  2.4995  2.8029  3.4549
16710TIP3   OH271544   4.761   2.622   4.531 -0.2072  0.6181 -0.1589
16710TIP3    H171545   4.798   2.675   4.460 -0.6596  0.9942 -0.1179
16710TIP3    H271546   4.807   2.539   4.525 -0.5169  0.5093 -1.1401
16711TIP3   OH271547   3.069   4.525   2.893 -0.2594  0.3042 -0.2649
16711TIP3    H171548   2.981   4.494   2.873 -0.0367 -0.0438 -0.7024
16711TIP3    H271549   3.059   4.572   2.976 -1.0990  1.3447 -0.9318
16712TIP3   OH271550   6.729   1.076   2.877 -0.3068  0.0126 -0.0009
16712TIP3    H171551   6.821   1.075   2.852  0.2367 -0.7712  1.8842
16712TIP3    H271552   6.691   1.000   2.833  0.1221 -0.1186 -0.1440
16713TIP3   OH271553   2.653   0.879   0.201  0.2801 -0.5600  0.0039
16713TIP3    H171554   2.579   0.895   0.259  0.3037  1.5011 -0.4490
16713TIP3    H271555   2.730   0.899   0.254  0.3090  1.1695 -0.6267
16714TIP3   OH271556   5.380   0.085   4.250  0.3333 -0.4629  0.0220
16714TIP3    H171557   5.317   0.110   4.318  0.4989  1.2879 -0.4084
16714TIP3    H271558   5.351  -0.001   4.220 -0.5001 -0.6938  1.3974
16715TIP3   OH271559   5.875   5.017  13.092 -0.1895 -0.4709  0.1882
16715TIP3    H171560   5.840   4.955  13.028 -1.4338  0.1319  0.2523
16715TIP3    H271561   5.800   5.072  13.115  0.2516 -0.5964  2.0871
16716TIP3   OH271562   0.566   6.397  12.427 -0.0633  0.1225  0.6471
16716TIP3    H171563   0.473   6.383  12.410  0.2762 -1.0086 -0.3787
16716TIP3    H271564   0.589   6.472  12.372 -0.3068  0.2398  0.7049
16717TIP3   OH271565   1.376   4.003   5.973 -0.7194  0.1859  0.4623
16717TIP3    H171566   1.453   4.044   6.013 -0.1475 -0.4466  0.0184
16717TIP3    H271567   1.379   3.912   6.002 -1.5410  0.2556  0.7860
16718TIP3   OH271568   5.987   3.091   1.379 -0.3075 -0.3626  0.5119
16718TIP3    H171569   6.075   3.056   1.368 -0.0920  0.4733 -0.5223
16718TIP3    H271570   5.938   3.057   1.305 -0.5478  0.1249  0.4418
16719TIP3   OH271571   0.277   0.307   2.897  0.7592  0.6995  0.3187
16719TIP3    H171572   0.252   0.289   2.807  0.1004 -1.1765  0.8450
16719TIP3    H271573   0.319   0.226   2.928  3.0513  2.0414  1.0232
16720TIP3   OH271574   1.963   4.812  15.466  0.4382 -0.1228  0.0142
16720TIP3    H171575   1.969   4.850  15.553 -0.1927 -1.6119  0.7404
16720TIP3    H271576   2.018   4.734  15.469 -0.1987 -0.6199 -0.6705
16721TIP3   OH271577   2.124   6.317  13.261  0.3932  0.5807 -0.4045
16721TIP3    H171578   2.175   6.302  13.340 -0.2401  0.9096  0.0695
16721TIP3    H271579   2.189   6.341  13.195  1.1294 -1.2774 -0.4306
16722TIP3   OH271580   2.070   3.692  17.056 -0.2269  0.5785  0.0572
16722TIP3    H171581   2.082   3.662  17.147  0.5018 -1.5822 -0.6868
16722TIP3    H271582   2.126   3.634  17.004 -1.0461  1.4143 -1.8529
16723TIP3   OH271583   6.391   0.983   6.757 -0.2461 -0.4213 -0.2609
16723TIP3    H171584   6.471   0.988   6.809  0.4142 -0.5410 -1.2202
16723TIP3    H271585   6.320   0.979   6.821  0.4143  1.0402  0.6268
16724TIP3   OH271586   1.589   1.329  15.977 -0.0789  0.0687 -0.8590
16724TIP3    H171587   1.592   1.240  16.014  3.1686 -0.4344 -2.0580
16724TIP3    H271588   1.589   1.386  16.053  1.8556 -0.9780 -0.0015
16725TIP3   OH271589   2.804   2.703   5.619 -0.8670  0.2490 -0.2427
16725TIP3    H171590   2.797   2.796   5.640 -0.1257 -0.1997  2.2846
16725TIP3    H271591   2.878   2.698   5.558 -0.4093  1.2474  0.2149
16726TIP3   OH271592   1.071   0.092   3.301  0.5322 -0.6460 -0.3725
16726TIP3    H171593   1.109   0.005   3.293  1.9025 -0.3162  1.9351
16726TIP3    H271594   0.994   0.080   3.357  0.8008 -0.3600  0.0636
16727TIP3   OH271595   3.413   2.252   4.104  0.1472  0.6012 -0.4147
16727TIP3    H171596   3.483   2.203   4.061  1.0530  1.8883 -0.4581
16727TIP3    H271597   3.380   2.311   4.036 -0.7796  0.2292 -0.3003
16728TIP3   OH271598   6.582   0.343  11.504 -0.3367 -0.4803 -0.7508
16728TIP3    H171599   6.603   0.429  11.467 -1.0959 -0.6499 -1.6307
16728TIP3    H271600   6.581   0.284  11.428 -2.5324 -0.7358 -0.5960
16729TIP3   OH271601   3.559   6.077  17.165  0.4563  0.0748  0.1030
16729TIP3    H171602   3.640   6.100  17.119  0.0561 -0.4998 -0.9233
16729TIP3    H271603   3.520   6.008  17.111  0.1509 -0.8893  1.5163
16730TIP3   OH271604   4.988   0.572  16.229  0.0072 -0.4669 -0.1709
16730TIP3    H171605   4.973   0.552  16.137 -0.1811 -0.4908 -0.1360
16730TIP3    H271606   5.078   0.543  16.246 -0.2195 -1.1897 -0.1505
16731TIP3   OH271607   6.396   1.949  17.184  0.1497  0.5024  0.3373
16731TIP3    H171608   6.470   1.995  17.144 -1.1520  1.7990 -0.7050
16731TIP3    H271609   6.428   1.861  17.203  2.0762  1.1758  0.3348
16732TIP3   OH271610   0.739   0.723   1.818 -0.0616 -0.5591 -0.3872
16732TIP3    H171611   0.806   0.660   1.843  0.9872  0.2195 -1.0871
16732TIP3    H271612   0.761   0.747   1.728 -1.6397 -0.7027 -0.8477
16733TIP3   OH271613   3.103   6.686  17.200 -0.4650  0.5993 -0.1446
16733TIP3    H171614   3.178   6.705  17.256  0.3663 -0.7995 -0.7369
16733TIP3    H271615   3.107   6.754  17.132 -0.4907  1.2879  0.5288
16734TIP3   OH271616   4.324   2.304   0.364  0.0259 -0.6745  0.0326
16734TIP3    H171617   4.418   2.302   0.350 -0.3200  0.3563 -3.4422
16734TIP3    H271618   4.304   2.396   0.380 -0.4139 -0.8297  0.3834
16735TIP3   OH271619   6.220   3.306   2.375 -0.2069  0.5147 -0.1337
16735TIP3    H171620   6.141   3.332   2.328 -0.3317  0.2891 -0.0523
16735TIP3    H271621   6.205   3.337   2.465 -0.6739 -0.4638  0.1379
16736TIP3   OH271622   3.974   0.162  11.999 -0.3737  0.6945  0.1990
16736TIP3    H171623   3.891   0.132  12.037 -1.5878 -1.6070 -3.6540
16736TIP3    H271624   4.031   0.085  12.002  0.3298  1.1742 -0.3794
16737TIP3   OH271625   2.652   5.862  12.938  0.3123 -0.3454  0.1968
16737TIP3    H171626   2.621   5.911  13.014 -0.0288 -1.5392  0.8448
16737TIP3    H271627   2.589   5.883  12.869  2.4004  3.4166 -0.8787
16738TIP3   OH271628   2.838   5.666  16.194 -0.2500 -0.1224 -0.1360
16738TIP3    H171629   2.896   5.711  16.256 -0.2266  0.6459 -0.6860
16738TIP3    H271630   2.755   5.712  16.201 -0.6874 -0.9775  0.3713
16739TIP3   OH271631   2.307   4.438  13.498 -0.2201 -0.3918  0.2838
16739TIP3    H171632   2.305   4.534  13.503 -1.3391 -0.4450  1.2026
16739TIP3    H271633   2.388   4.419  13.450 -0.5690  1.0361 -0.9645
16740TIP3   OH271634   4.231   6.725   0.912  0.2995 -0.3702 -0.0751
16740TIP3    H171635   4.295   6.689   0.851 -1.8691 -0.3655 -2.4952
16740TIP3    H271636   4.147   6.691   0.882 -1.0008  0.3720  2.4151
16741TIP3   OH271637   0.580   5.982   4.787 -0.2785  0.2055 -0.2460
16741TIP3    H171638   0.532   5.952   4.710  0.0043 -0.3521 -0.2037
16741TIP3    H271639   0.619   6.065   4.759  0.2024 -0.2142 -0.8568
16742TIP3   OH271640   0.305   4.173   2.878 -0.5279  0.1999  0.0220
16742TIP3    H171641   0.261   4.194   2.960  0.4611 -2.2064  1.2925
16742TIP3    H271642   0.398   4.184   2.898 -0.3076  0.2249 -0.9912
16743TIP3   OH271643   1.000   2.293  11.106  0.2831 -0.4087 -0.2896
16743TIP3    H171644   0.969   2.206  11.132  0.2989  0.0868  1.5235
16743TIP3    H271645   0.969   2.304  11.016  0.1275 -2.2115 -0.4896
16744TIP3   OH271646   0.851   1.317  13.791  0.1758  0.0556 -0.1454
16744TIP3    H171647   0.831   1.410  13.802 -1.8384 -0.4165  0.7415
16744TIP3    H271648   0.938   1.306  13.829  0.6835  1.6591 -0.7706
16745TIP3   OH271649   4.249   3.187   1.207  0.0066 -0.2514 -0.0447
16745TIP3    H171650   4.330   3.208   1.159 -0.4758 -0.6549 -1.0631
16745TIP3    H271651   4.279   3.162   1.294  0.8008  2.0647  0.4178
16746TIP3   OH271652   0.489   0.690  10.975 -0.3879  0.1605 -0.1099
16746TIP3    H171653   0.407   0.700  11.024  0.6897  2.2271  1.3998
16746TIP3    H271654   0.464   0.700  10.883 -1.7927  1.0423  0.3420
16747TIP3   OH271655   0.153   1.317   4.257 -0.3222  0.3295 -0.5694
16747TIP3    H171656   0.204   1.236   4.249 -1.7464 -0.6492 -0.0457
16747TIP3    H271657   0.217   1.382   4.286  1.0662 -0.3440 -1.9733
16748TIP3   OH271658   5.796   4.591   2.849  0.0084  1.0217 -0.3934
16748TIP3    H171659   5.748   4.562   2.927  2.0390 -2.2124 -0.1586
16748TIP3    H271660   5.884   4.610   2.882  1.0051 -0.7599 -1.8277
16749TIP3   OH271661   4.849   1.856   2.390 -0.0015 -0.6639  0.2227
16749TIP3    H171662   4.908   1.844   2.465 -0.8052 -0.1830  0.9567
16749TIP3    H271663   4.773   1.903   2.427 -0.3871 -0.3729 -0.9073
16750TIP3   OH271664   5.459   3.777   4.943  0.0866  0.0367 -0.1419
16750TIP3    H171665   5.429   3.765   4.853 -0.0206 -2.3180  0.1393
16750TIP3    H271666   5.398   3.724   4.995  0.3720  1.0658  1.2777
16751TIP3   OH271667   6.190   6.184   2.920 -0.7614 -0.2280  0.7390
16751TIP3    H171668   6.124   6.247   2.892 -0.1151  0.3527  0.5063
16751TIP3    H271669   6.274   6.221   2.891 -0.3137 -0.8835  1.1502
16752TIP3   OH271670   0.689   3.685   0.865 -0.6828 -1.2521 -0.6275
16752TIP3    H171671   0.733   3.714   0.945  1.5614 -1.3933 -1.7076
16752TIP3    H271672   0.692   3.590   0.869 -2.3847 -1.2916  0.0280
16753TIP3   OH271673   4.190   5.342  10.914  0.0801  0.0496 -0.2712
16753TIP3    H171674   4.184   5.437  10.897  1.1667  0.0135 -0.9097
16753TIP3    H271675   4.114   5.306  10.868 -0.3660  0.6103  0.0034
16754TIP3   OH271676   4.663   0.731   0.708  0.3345 -0.3654  0.5714
16754TIP3    H171677   4.604   0.665   0.743  0.0953 -0.3796  0.1491
16754TIP3    H271678   4.667   0.799   0.776 -0.5722 -0.1184  0.3893
16755TIP3   OH271679   2.890   4.925  12.625 -0.8489  0.5822 -0.2515
16755TIP3    H171680   2.888   5.005  12.677  0.9822  0.9419 -0.6499
16755TIP3    H271681   2.827   4.941  12.554 -2.6356  0.4676  1.2504
16756TIP3   OH271682   2.722   0.100   2.735  0.4125  0.5838 -0.9776
16756TIP3    H171683   2.779   0.177   2.732  1.3358 -0.0417 -0.0109
16756TIP3    H271684   2.641   0.133   2.774  0.0715  1.4687 -2.3374
16757TIP3   OH271685   4.223   1.472   1.557  0.0562  0.0103  0.1266
16757TIP3    H171686   4.211   1.519   1.640 -0.4797  0.6720 -0.3061
16757TIP3    H271687   4.136   1.472   1.517  0.3637 -0.0500 -0.5643
16758TIP3   OH271688   1.044   5.694   5.099  0.0516 -0.0634 -0.6503
16758TIP3    H171689   0.952   5.669   5.098 -0.0155  0.1183  0.1439
16758TIP3    H271690   1.076   5.664   5.185  0.9988 -1.0675 -1.3230
16759TIP3   OH271691   1.195   0.856  11.679 -0.5396  0.0750  0.2681
16759TIP3    H171692   1.158   0.772  11.708 -1.8923  0.4302 -0.3541
16759TIP3    H271693   1.120   0.912  11.666  0.3765  1.5345  1.0288
16760TIP3   OH271694   2.697   3.694   2.460  0.0201 -0.0723  0.5247
16760TIP3    H171695   2.724   3.695   2.552 -0.1440 -4.0988  0.7848
16760TIP3    H271696   2.769   3.651   2.414 -0.2584  1.1342 -1.1338
16761TIP3   OH271697   0.511   4.413   3.096  0.3100 -0.3786 -0.2333
16761TIP3    H171698   0.506   4.359   3.175 -1.9034 -2.4956 -1.6691
16761TIP3    H271699   0.458   4.490   3.115  0.7787 -0.2817  0.7249
16762TIP3   OH271700   3.207   1.137  11.212 -0.6919 -0.1047  0.4641
16762TIP3    H171701   3.301   1.150  11.225 -0.7791  1.4190 -0.2363
16762TIP3    H271702   3.173   1.121  11.300  0.1213 -0.0061  0.8062
16763TIP3   OH271703   3.348   5.614  11.341  0.0428  0.2609  0.0387
16763TIP3    H171704   3.415   5.659  11.391 -0.0087 -0.0413  0.3847
16763TIP3    H271705   3.275   5.676  11.336  0.7041  0.9646 -1.1807
16764TIP3   OH271706   3.996   2.675  14.478  0.1063  0.0542 -0.3117
16764TIP3    H171707   3.932   2.679  14.406  0.7843  1.2286 -0.8800
16764TIP3    H271708   3.984   2.758  14.524  1.4580  0.4494 -0.6422
16765TIP3   OH271709   2.118   1.486   2.342  0.1723 -0.2619 -0.2473
16765TIP3    H171710   2.081   1.574   2.349 -1.6677 -0.8463 -1.5835
16765TIP3    H271711   2.188   1.495   2.277 -0.1225  0.2039 -0.5104
16766TIP3   OH271712   2.643   1.809  12.142 -0.0491 -0.1643 -0.3521
16766TIP3    H171713   2.594   1.845  12.068  1.4437 -0.4177 -1.4909
16766TIP3    H271714   2.719   1.766  12.103 -0.2333 -2.0295  1.1765
16767TIP3   OH271715   4.704   4.465   4.287 -0.6148 -0.1145  0.2879
16767TIP3    H171716   4.792   4.461   4.250 -0.9731  2.3320 -0.9889
16767TIP3    H271717   4.655   4.400   4.238  0.3668 -1.3568  0.8666
16768TIP3   OH271718   5.954   0.677  11.078 -0.3103 -0.4720  0.2843
16768TIP3    H171719   6.002   0.739  11.022 -1.3793  1.6041  1.5238
16768TIP3    H271720   5.886   0.641  11.022 -0.2165  0.1622 -0.2481
16769TIP3   OH271721   1.715   4.342   4.379  0.0201 -0.0475  0.1557
16769TIP3    H171722   1.763   4.300   4.307 -0.8826 -0.5903 -0.1406
16769TIP3    H271723   1.686   4.269   4.433  1.2959  0.3868  1.4887
16770TIP3   OH271724   1.902   6.549  14.183 -0.3022  0.0863  0.4957
16770TIP3    H171725   1.906   6.588  14.270 -0.9205 -1.6827  1.3630
16770TIP3    H271726   1.864   6.617  14.127 -3.6734 -0.0109  2.4338
16771TIP3   OH271727   5.098   2.762   0.454 -0.4212 -0.3087  0.2220
16771TIP3    H171728   5.155   2.804   0.390 -0.2082 -1.8810 -0.6562
16771TIP3    H271729   5.095   2.824   0.527  1.6548  0.2309 -0.0858
16772TIP3   OH271730   2.043   5.593   4.454  0.3931  0.2548  0.2935
16772TIP3    H171731   1.998   5.585   4.370 -0.6042  1.1468  0.7127
16772TIP3    H271732   2.124   5.543   4.443 -0.8659 -1.7453 -0.3625
16773TIP3   OH271733   1.904   1.927   1.422 -0.2225  0.2112 -0.2057
16773TIP3    H171734   1.850   1.911   1.499  0.3989 -1.5797 -0.0817
16773TIP3    H271735   1.855   1.887   1.350  0.2526 -0.1417 -0.3386
16774TIP3   OH271736   2.987   3.493   2.859  0.0352  0.2133  0.5537
16774TIP3    H171737   2.975   3.587   2.867 -1.5812  0.0127  1.0481
16774TIP3    H271738   3.081   3.480   2.856  0.2760  1.8449  0.3954
16775TIP3   OH271739   4.525   0.862   4.915  0.1537  0.3665 -0.4411
16775TIP3    H171740   4.615   0.857   4.946  0.4510  0.7392 -1.2022
16775TIP3    H271741   4.490   0.774   4.925  0.8772  0.0151 -0.9221
16776TIP3   OH271742   3.902   2.205   4.132 -0.1704 -0.6068  0.7490
16776TIP3    H171743   3.921   2.282   4.187 -0.9478 -0.1543  0.3899
16776TIP3    H271744   3.988   2.178   4.099  0.1380 -0.0380  1.0736
16777TIP3   OH271745   0.693   3.079  13.929  0.0298  0.5309  0.1559
16777TIP3    H171746   0.782   3.101  13.954 -0.5312  1.0864  1.7806
16777TIP3    H271747   0.639   3.103  14.005 -1.6095  0.9786 -1.0808
16778TIP3   OH271748   2.630   2.490   0.903  0.1915  0.1890  0.6671
16778TIP3    H171749   2.614   2.496   0.997  1.4136  0.9522  0.8570
16778TIP3    H271750   2.672   2.405   0.892 -1.4126 -0.6109  0.5585
16779TIP3   OH271751   2.658   3.891  17.169  0.1379  0.5748 -0.3552
16779TIP3    H171752   2.733   3.832  17.156 -0.0039  0.4677 -0.6946
16779TIP3    H271753   2.662   3.952  17.096  1.1448  1.9315  0.7881
16780TIP3   OH271754   5.520   0.220   5.182 -0.5012  0.3390 -0.1997
16780TIP3    H171755   5.603   0.187   5.215 -1.3427 -1.4037  0.3487
16780TIP3    H271756   5.499   0.163   5.108  0.2619  2.7562 -2.4218
16781TIP3   OH271757   5.471   1.967   0.919  0.1629  0.2725  0.4607
16781TIP3    H171758   5.417   2.021   0.861  1.5596  0.3513 -0.8269
16781TIP3    H271759   5.410   1.902   0.954 -1.3274  1.9533  1.1770
16782TIP3   OH271760   0.362   1.214   5.609  0.1210 -0.0153 -0.6072
16782TIP3    H171761   0.426   1.154   5.646  0.3458  0.9139  0.5694
16782TIP3    H271762   0.288   1.158   5.583 -0.2653 -0.6773  1.7261
16783TIP3   OH271763   3.268   0.243  14.829  0.0673  0.1140 -0.1904
16783TIP3    H171764   3.362   0.262  14.832  0.3122  0.0382 -3.4217
16783TIP3    H271765   3.249   0.202  14.913  2.0388  3.5494  2.2115
16784TIP3   OH271766   1.390   1.090  16.165  0.0237  0.3009 -0.0869
16784TIP3    H171767   1.348   1.163  16.119  0.6710  0.4016 -0.5332
16784TIP3    H271768   1.428   1.036  16.095 -0.5609 -0.5431  0.2296
16785TIP3   OH271769   1.639   2.868  15.209 -0.2407 -0.2739 -0.0869
16785TIP3    H171770   1.709   2.816  15.247 -1.1916 -0.3095  1.7215
16785TIP3    H271771   1.594   2.906  15.284 -0.6595  1.7533 -1.2845
16786TIP3   OH271772   1.682   4.729  14.681  0.4680 -0.3013  0.3876
16786TIP3    H171773   1.682   4.819  14.648  0.9956  0.0865  1.4110
16786TIP3    H271774   1.685   4.738  14.776 -0.8869 -1.3904  0.5732
16787TIP3   OH271775   0.538   4.418  14.527  0.2790  0.0408 -0.3472
16787TIP3    H171776   0.630   4.429  14.503  0.0609 -0.5349 -1.5048
16787TIP3    H271777   0.496   4.500  14.502  0.3655  0.0767 -0.3736
16788TIP3   OH271778   2.074   6.103   2.941 -0.4047  0.1562 -0.2064
16788TIP3    H171779   2.088   6.117   2.848  0.3211  0.7273 -0.0200
16788TIP3    H271780   2.090   6.010   2.954  1.1861  0.3803 -0.3725
16789TIP3   OH271781   2.211   4.981  13.989 -0.4612 -0.3958  0.2232
16789TIP3    H171782   2.243   4.918  14.055 -1.7775 -0.9062  0.3977
16789TIP3    H271783   2.169   5.050  14.041  0.7645  0.5525  0.0186
16790TIP3   OH271784   2.944   1.481  11.331 -0.3674  0.0210 -0.1452
16790TIP3    H171785   3.018   1.537  11.311  1.1516 -2.2038 -1.1355
16790TIP3    H271786   2.874   1.542  11.357  1.3495  2.2704 -0.4938
16791TIP3   OH271787   0.726   3.032  10.933 -0.0433  0.5011  0.3688
16791TIP3    H171788   0.803   3.086  10.919  0.9386 -0.8715  0.2411
16791TIP3    H271789   0.741   2.954  10.879  0.9501 -2.1319  4.0340
16792TIP3   OH271790   0.719   3.450  12.471  0.6591  0.1057  0.3148
16792TIP3    H171791   0.665   3.450  12.392  0.4513 -0.6946  0.4499
16792TIP3    H271792   0.806   3.476  12.441  0.5390 -0.0291 -0.1468
16793TIP3   OH271793   0.657   6.384   2.154 -0.2333 -0.2520 -0.2295
16793TIP3    H171794   0.697   6.339   2.228 -0.4994  0.8460  0.6208
16793TIP3    H271795   0.616   6.462   2.193 -1.3410 -0.2270 -1.3768
16794TIP3   OH271796   0.450   4.891   2.361 -0.2540  0.2785 -0.2960
16794TIP3    H171797   0.524   4.914   2.304 -0.0990  0.2229 -0.1150
16794TIP3    H271798   0.377   4.876   2.300 -0.5181  1.8234 -0.3946
16795TIP3   OH271799   3.761   5.570  16.480 -0.1555 -0.3882 -0.0353
16795TIP3    H171800   3.765   5.475  16.497 -0.7802 -0.2550  0.9858
16795TIP3    H271801   3.851   5.595  16.462  0.5820 -0.6767  2.7537
16796TIP3   OH271802   5.243   2.953   6.052  0.0435 -0.3014 -0.8015
16796TIP3    H171803   5.279   2.864   6.054 -0.2999 -0.4325 -0.2277
16796TIP3    H271804   5.169   2.950   6.113  0.7741  0.6898  0.1612
16797TIP3   OH271805   1.481   0.971   3.577 -0.3361 -0.2287 -0.3758
16797TIP3    H171806   1.549   0.968   3.643 -0.6165 -2.1196 -0.1438
16797TIP3    H271807   1.399   0.974   3.626 -0.5346 -1.3395 -0.6182
16798TIP3   OH271808   1.593   5.318   5.481 -0.3274 -0.3699  0.3876
16798TIP3    H171809   1.571   5.229   5.453  0.8647 -0.1597 -1.3607
16798TIP3    H271810   1.586   5.316   5.576 -0.7400 -2.2158  0.3425
16799TIP3   OH271811   1.022   1.642   4.825 -0.0996 -0.2335 -0.2859
16799TIP3    H171812   1.003   1.682   4.740  1.7633  0.5089 -0.4052
16799TIP3    H271813   1.030   1.549   4.806  2.4129  0.1256 -1.4274
16800TIP3   OH271814   2.966   4.438  12.682 -0.0489  0.0831 -0.4383
16800TIP3    H171815   2.923   4.446  12.597 -1.0653 -1.2824 -0.0896
16800TIP3    H271816   3.056   4.413  12.660  0.1290  1.2485 -1.1307
16801TIP3   OH271817   2.532   1.085   4.840  0.0104  0.1879  0.3010
16801TIP3    H171818   2.577   1.126   4.766  0.7795 -0.0005  0.6546
16801TIP3    H271819   2.501   1.002   4.805  0.7778 -0.1092  0.3111
16802TIP3   OH271820   4.579   3.829   1.247  0.0413  0.0130  0.5233
16802TIP3    H171821   4.674   3.832   1.231 -0.0892  0.7334 -0.2173
16802TIP3    H271822   4.569   3.767   1.319  1.1114  0.1922  0.8567
16803TIP3   OH271823   4.402   3.426  15.129  0.3159 -0.2081  0.2022
16803TIP3    H171824   4.380   3.455  15.041  0.9178 -0.3387  0.0101
16803TIP3    H271825   4.431   3.336  15.118  2.6295  0.4821  0.2000
16804TIP3   OH271826   5.240   1.795  17.086 -0.1631  0.2296  0.4185
16804TIP3    H171827   5.181   1.804  17.160 -0.8023  1.3206 -0.1912
16804TIP3    H271828   5.189   1.749  17.019 -0.2447  0.9091 -0.0018
16805TIP3   OH271829   5.192   6.441  12.204 -0.8748 -0.5050  0.3127
16805TIP3    H171830   5.114   6.483  12.167 -0.4311 -1.1660 -1.4592
16805TIP3    H271831   5.222   6.503  12.271 -2.3697  0.2038  0.3783
16806TIP3   OH271832   3.526   3.737  16.115  0.0015  0.2230 -0.0289
16806TIP3    H171833   3.434   3.713  16.125  0.0185  0.2109  0.1035
16806TIP3    H271834   3.544   3.728  16.021 -0.3983  1.1819 -0.2107
16807TIP3   OH271835   4.803   6.634   0.124  0.0441  0.1506  0.1291
16807TIP3    H171836   4.892   6.626   0.091  0.1652  0.4108  0.3909
16807TIP3    H271837   4.813   6.649   0.218 -0.2939 -0.4191  0.2624
16808TIP3   OH271838   2.757   0.230   5.261 -0.3492 -0.6838 -0.2564
16808TIP3    H171839   2.828   0.284   5.296 -0.5246  0.6289 -1.8238
16808TIP3    H271840   2.736   0.169   5.332  1.9841 -0.7732  0.4350
16809TIP3   OH271841   4.625   3.691   0.724 -0.1413 -0.3041  0.5385
16809TIP3    H171842   4.534   3.699   0.694 -0.4366  1.5828  1.7746
16809TIP3    H271843   4.629   3.745   0.803  2.2366  0.1532  0.1708
16810TIP3   OH271844   4.297   6.646  15.113 -0.3187 -0.2542  0.1222
16810TIP3    H171845   4.324   6.708  15.045  0.2210 -0.7873 -0.1592
16810TIP3    H271846   4.261   6.701  15.182  2.9014  0.6781  1.2080
16811TIP3   OH271847   2.884   6.331  11.251  0.5331 -0.1978 -0.2777
16811TIP3    H171848   2.889   6.382  11.169  0.9329 -1.4128 -1.0316
16811TIP3    H271849   2.943   6.257  11.236  2.2908  0.6415  1.9167
16812TIP3   OH271850   1.876   0.694  17.026  0.0006  1.1928  0.4842
16812TIP3    H171851   1.892   0.783  16.995 -2.7193  2.0331  1.1906
16812TIP3    H271852   1.868   0.703  17.121 -1.0167  0.3558  0.5000
16813TIP3   OH271853   3.953   1.992   2.727 -0.3072 -0.1834 -0.5872
16813TIP3    H171854   4.030   1.975   2.673  0.2430 -1.1410  0.4574
16813TIP3    H271855   3.946   1.916   2.784 -0.9849  0.7009  0.5586
16814TIP3   OH271856   0.767   3.989  11.138  0.0537 -0.5702  0.3956
16814TIP3    H171857   0.862   4.003  11.132 -0.0678  1.0297  1.6625
16814TIP3    H271858   0.729   4.075  11.120 -1.1737 -1.1668  0.0327
16815TIP3   OH271859   2.517   5.960   3.891 -0.5744  0.0312 -0.3515
16815TIP3    H171860   2.505   5.903   3.816 -0.3665 -0.1361 -0.2588
16815TIP3    H271861   2.562   6.037   3.855  0.9204 -0.7097 -0.1334
16816TIP3   OH271862   5.030   4.501   0.320  0.1357  0.2189 -0.2323
16816TIP3    H171863   4.973   4.556   0.374  1.0636  0.0475  0.9819
16816TIP3    H271864   5.067   4.562   0.256 -1.0203  0.4189 -0.7357
16817TIP3   OH271865   2.383   0.507   3.257  0.2682 -0.2663 -0.1129
16817TIP3    H171866   2.368   0.464   3.173  0.1334  1.6412 -1.0951
16817TIP3    H271867   2.458   0.564   3.243 -0.8194  1.3861  0.5444
16818TIP3   OH271868   1.798   3.642  15.127 -0.0769 -0.5064  0.4285
16818TIP3    H171869   1.707   3.668  15.143 -0.3374 -1.0531 -0.1169
16818TIP3    H271870   1.826   3.696  15.053 -0.5729 -1.6377 -0.6136
16819TIP3   OH271871   5.662   4.638   5.353  0.1015  0.2878 -0.1500
16819TIP3    H171872   5.682   4.585   5.429  1.2355  0.4489 -0.3163
16819TIP3    H271873   5.614   4.579   5.294  0.4905 -0.2554  0.0750
16820TIP3   OH271874   3.523   3.228   6.798 -0.2927 -0.2403 -0.7258
16820TIP3    H171875   3.466   3.165   6.842 -3.6110  0.9803 -2.9056
16820TIP3    H271876   3.501   3.312   6.839  0.5929  0.1685 -1.0711
16821TIP3   OH271877   5.506   1.291  15.101  0.1296  0.1882 -0.9744
16821TIP3    H171878   5.551   1.332  15.175  0.0350 -1.4179  0.0533
16821TIP3    H271879   5.524   1.347  15.027  0.1099  1.9637  0.2989
16822TIP3   OH271880   3.239   3.096   2.628  0.2598  0.0107  0.5120
16822TIP3    H171881   3.186   3.039   2.573  1.7872  0.1166 -1.1755
16822TIP3    H271882   3.237   3.181   2.584  3.9894 -0.6419 -1.2951
16823TIP3   OH271883   1.823   3.725  12.075  0.4622  0.1686 -0.5612
16823TIP3    H171884   1.822   3.775  11.994  1.6768 -0.3744 -0.9260
16823TIP3    H271885   1.731   3.721  12.102  0.2015  1.4568 -1.2081
16824TIP3   OH271886   0.397   0.334   5.908  0.3293  0.5349 -0.1733
16824TIP3    H171887   0.312   0.363   5.940 -0.2569  0.3780 -1.5049
16824TIP3    H271888   0.454   0.334   5.985 -1.0812 -0.1866  0.9006
16825TIP3   OH271889   2.707   6.035   1.764 -0.2597 -0.0363 -0.0129
16825TIP3    H171890   2.756   6.087   1.700  0.5091  2.0194  2.1211
16825TIP3    H271891   2.637   6.092   1.794 -1.0861 -1.2407  0.4463
16826TIP3   OH271892   3.808   5.805  11.175  0.3142 -0.6906  0.2510
16826TIP3    H171893   3.729   5.757  11.198 -0.6767  0.2850 -0.9299
16826TIP3    H271894   3.856   5.745  11.117 -0.8754 -0.3412 -1.1612
16827TIP3   OH271895   3.005   5.869   3.515 -0.0364 -0.1097  0.1777
16827TIP3    H171896   3.016   5.905   3.427  0.7779  1.0846  0.7435
16827TIP3    H271897   3.092   5.875   3.555 -0.3615 -0.7550  1.0277
16828TIP3   OH271898   1.600   1.241  14.231 -0.5024 -0.2430 -0.3531
16828TIP3    H171899   1.649   1.300  14.287 -1.0969 -0.4722  0.4250
16828TIP3    H271900   1.617   1.154  14.267  0.8195 -0.6494 -1.8142
16829TIP3   OH271901   4.313   3.982  10.477  0.3417 -0.0536  0.9657
16829TIP3    H171902   4.223   3.992  10.446  0.0310  1.2127  2.1896
16829TIP3    H271903   4.304   3.961  10.570  1.3122  0.7717  1.2625
16830TIP3   OH271904   3.540   1.630  17.126  0.3703 -0.3261 -0.5842
16830TIP3    H171905   3.599   1.703  17.108 -0.5879  1.0998  1.5463
16830TIP3    H271906   3.453   1.667  17.114 -0.1801 -0.5381  2.1746
16831TIP3   OH271907   6.287   2.018  14.727 -0.2347  0.2972 -0.2281
16831TIP3    H171908   6.245   2.093  14.683 -0.6819 -0.5866 -1.3755
16831TIP3    H271909   6.337   1.975  14.657  1.4611  0.5151  0.8107
16832TIP3   OH271910   5.971   0.963   2.275 -0.0640 -0.6005  0.2571
16832TIP3    H171911   5.995   0.874   2.299 -0.0571 -0.5287  0.5218
16832TIP3    H271912   5.895   0.953   2.217 -0.8405 -0.7327  1.2603
16833TIP3   OH271913   2.622   6.762   4.248  0.2387  0.3468 -0.0401
16833TIP3    H171914   2.589   6.673   4.260  0.1727  0.5934  1.9945
16833TIP3    H271915   2.567   6.799   4.180 -2.4558  0.0965  1.8597
16834TIP3   OH271916   1.880   3.986  12.903 -0.1780  0.6582 -0.8472
16834TIP3    H171917   1.796   4.032  12.895 -0.2867  0.9909  1.5366
16834TIP3    H271918   1.942   4.053  12.931  0.3011 -0.0782 -0.1082
16835TIP3   OH271919   3.167   5.650   3.917  0.7666 -0.2991 -0.7194
16835TIP3    H171920   3.238   5.670   3.978  0.4832 -2.5501  0.4679
16835TIP3    H271921   3.109   5.726   3.921 -0.3728 -1.1302  3.5567
16836TIP3   OH271922   4.018   5.962  13.853  0.0343 -0.0845  0.4996
16836TIP3    H171923   4.045   5.988  13.941  2.1145  1.4239 -0.5174
16836TIP3    H271924   3.956   6.030  13.827  1.0899  0.7151  0.0100
16837TIP3   OH271925   4.765   0.158  11.760  0.2021 -0.2982  0.4439
16837TIP3    H171926   4.703   0.093  11.794  0.7950 -1.3613 -0.4439
16837TIP3    H271927   4.725   0.242  11.782  0.5271 -0.8632  3.7340
16838TIP3   OH271928   1.923   5.888   1.996  0.2462 -0.0034 -0.2687
16838TIP3    H171929   1.994   5.824   2.000  1.3065  1.1174 -0.4229
16838TIP3    H271930   1.853   5.850   2.048  0.6519 -1.5026 -0.7780
16839TIP3   OH271931   6.361   5.618   0.920 -0.3743  0.2281 -0.5367
16839TIP3    H171932   6.424   5.659   0.979 -0.5830 -0.6013  0.2776
16839TIP3    H271933   6.341   5.687   0.856  2.0099  0.2560 -1.3723
16840TIP3   OH271934   4.958   0.938   6.008  0.5859  0.1061  0.5180
16840TIP3    H171935   4.896   1.007   6.035  0.5673  0.0033  0.7435
16840TIP3    H271936   4.929   0.861   6.056  0.6499 -0.0418  0.3177
16841TIP3   OH271937   2.651   6.760  13.800 -0.3511  0.0497  0.1655
16841TIP3    H171938   2.713   6.691  13.824 -1.9879 -1.1753  1.0820
16841TIP3    H271939   2.600   6.775  13.879 -2.7472 -0.6750 -1.1220
16842TIP3   OH271940   6.068   0.803   2.501 -0.2080  0.0680  0.1019
16842TIP3    H171941   6.162   0.789   2.515 -0.2268 -0.7984 -0.6020
16842TIP3    H271942   6.048   0.882   2.553  1.0923  0.8020 -0.4652
16843TIP3   OH271943   6.405   0.235   3.553  0.1337  0.5244  0.0983
16843TIP3    H171944   6.360   0.181   3.488  1.2102  0.9404 -1.0299
16843TIP3    H271945   6.341   0.302   3.578 -0.4559  0.0564 -0.1388
16844TIP3   OH271946   2.317   3.136  12.242 -0.0385  0.8346  0.3786
16844TIP3    H171947   2.360   3.116  12.159  0.1829 -0.9303  0.8962
16844TIP3    H271948   2.235   3.088  12.239 -0.1857  1.0312  1.0478
16845TIP3   OH271949   0.239   5.411  12.364  0.0017 -0.0927 -0.1933
16845TIP3    H171950   0.266   5.439  12.452 -0.2223  0.0360 -0.1650
16845TIP3    H271951   0.158   5.460  12.347  1.3849  1.8523 -1.5454
16846TIP3   OH271952   5.366   1.430   3.123  0.2513 -0.0449  0.0930
16846TIP3    H171953   5.406   1.346   3.098 -0.0836 -0.6435  1.4718
16846TIP3    H271954   5.374   1.432   3.219 -2.3336  0.1609  0.3628
16847TIP3   OH271955   3.289   4.072  14.086 -0.1707  1.3289  0.5885
16847TIP3    H171956   3.295   3.979  14.064 -1.5273  1.4108 -0.2421
16847TIP3    H271957   3.378   4.097  14.110  0.2833 -0.0933  0.4619
16848TIP3   OH271958   3.349   1.078   5.956 -0.5221 -0.4247 -0.2728
16848TIP3    H171959   3.444   1.078   5.950 -0.5156  2.1820 -1.5175
16848TIP3    H271960   3.330   1.116   6.042 -0.3401  1.3978 -0.9751
16849TIP3   OH271961   3.046   1.793  12.245 -0.1942 -0.2132 -0.1691
16849TIP3    H171962   2.992   1.741  12.184 -0.8698  0.6387 -0.3183
16849TIP3    H271963   3.116   1.733  12.272  0.7704 -0.3174 -2.6258
16850TIP3   OH271964   6.096   3.386   5.060  0.1285  0.0139  0.4650
16850TIP3    H171965   6.180   3.344   5.040 -0.3210 -0.6768  0.0046
16850TIP3    H271966   6.113   3.479   5.050  0.3946 -0.2024 -1.3846
16851TIP3   OH271967   6.487   2.941   0.764 -0.0140  0.5766  0.5109
16851TIP3    H171968   6.578   2.966   0.746 -0.2844  0.7070 -0.7230
16851TIP3    H271969   6.490   2.845   0.773  0.1110  0.4910 -0.4020
16852TIP3   OH271970   1.318   4.025  15.415  0.2096  0.2916  0.6797
16852TIP3    H171971   1.315   4.059  15.326 -0.3265  1.5436  1.1543
16852TIP3    H271972   1.371   3.946  15.409  0.2280  0.3956 -0.7342
16853TIP3   OH271973   5.844   3.521   3.919  0.3944  0.7203 -0.6598
16853TIP3    H171974   5.797   3.460   3.976  0.7927  1.7321  0.7966
16853TIP3    H271975   5.779   3.545   3.853 -0.6398  0.8467  0.3669
16854TIP3   OH271976   1.765   6.570   5.897  0.0412 -0.6544  0.0441
16854TIP3    H171977   1.855   6.600   5.885 -0.3182  0.2689 -0.4632
16854TIP3    H271978   1.728   6.629   5.963  0.0135 -1.4938  0.7999
16855TIP3   OH271979   4.102   0.917   2.959 -0.3735 -0.4898  0.1892
16855TIP3    H171980   4.085   1.010   2.942  0.0527 -0.0897  1.7707
16855TIP3    H271981   4.029   0.890   3.015 -0.7424 -1.2581 -0.6306
16856TIP3   OH271982   2.213   0.821  15.708 -0.1827  0.3756 -0.3491
16856TIP3    H171983   2.239   0.860  15.792  2.0849 -0.0300 -0.8021
16856TIP3    H271984   2.157   0.747  15.733 -1.1706  1.4093  0.6838
16857TIP3   OH271985   4.715   6.598  16.172  0.0579 -0.0100 -0.5106
16857TIP3    H171986   4.685   6.678  16.215  0.2034  1.8435 -3.5988
16857TIP3    H271987   4.638   6.563  16.128  0.1224 -1.3310  0.3594
16858TIP3   OH271988   2.590   6.706   5.601  0.1782 -0.5117  0.5154
16858TIP3    H171989   2.658   6.741   5.543 -1.5211 -0.7012 -1.7350
16858TIP3    H271990   2.628   6.712   5.688  1.4002  3.6286 -0.0620
16859TIP3   OH271991   1.648   2.135   2.675 -0.7370 -0.4179  0.0216
16859TIP3    H171992   1.637   2.055   2.624 -0.3026  0.1485 -0.9936
16859TIP3    H271993   1.650   2.206   2.610  1.1597  0.2124  0.6704
16860TIP3   OH271994   6.346   0.560   6.074  0.3714 -0.1570 -0.4282
16860TIP3    H171995   6.346   0.467   6.097 -0.3353  0.0240  0.3718
16860TIP3    H271996   6.435   0.579   6.047  1.2572 -0.4509  2.0221
16861TIP3   OH271997   5.004   2.509   6.183 -0.1317  0.4052 -0.6619
16861TIP3    H171998   4.934   2.532   6.243 -2.4161 -1.1090 -2.5758
16861TIP3    H271999   5.030   2.420   6.209  1.4708  1.1071  0.3039
16862TIP3   OH272000   6.106   4.533  17.172  0.1625  0.1784  0.3629
16862TIP3    H172001   6.067   4.620  17.183 -2.6278 -1.0024  0.5548
16862TIP3    H272002   6.152   4.538  17.088 -0.4218  1.6618  0.0962
16863TIP3   OH272003   3.864   0.942  15.222  0.1836  0.4076 -0.1526
16863TIP3    H172004   3.784   0.978  15.182 -0.4527  0.6523  1.2878
16863TIP3    H272005   3.932   1.005  15.200  0.0969 -0.0070 -1.7444
16864TIP3   OH272006   4.670   4.258  16.033  0.2705 -0.1582  0.2113
16864TIP3    H172007   4.664   4.354  16.031  2.4372  0.0349 -0.2094
16864TIP3    H272008   4.653   4.231  15.943  0.1937 -0.1168  0.2134
16865TIP3   OH272009   5.759   0.121   5.618 -0.0815 -0.2103 -0.1089
16865TIP3    H172010   5.673   0.088   5.644 -0.3319 -0.1648 -0.8779
16865TIP3    H272011   5.800   0.148   5.701 -0.6119 -0.6793  0.3152
16866TIP3   OH272012   5.065   1.803   3.395  0.1208  0.3002  0.4287
16866TIP3    H172013   4.984   1.759   3.370  1.3517 -1.6420 -0.3092
16866TIP3    H272014   5.051   1.895   3.371 -1.4097 -0.2161 -0.7843
16867TIP3   OH272015   4.323   1.015   3.766 -0.1915  0.4066 -0.5186
16867TIP3    H172016   4.416   1.034   3.776 -0.2785  0.4130  0.3370
16867TIP3    H272017   4.319   0.920   3.756 -0.0879  0.4153 -0.6520
16868TIP3   OH272018   0.376   6.634   4.218 -0.0151 -0.0087  0.0674
16868TIP3    H172019   0.329   6.554   4.194 -1.0773  1.2272 -2.3551
16868TIP3    H272020   0.446   6.640   4.152  0.4537  0.7218  0.6229
16869TIP3   OH272021   2.239   4.889  15.081 -0.4174 -0.0321  0.5686
16869TIP3    H172022   2.317   4.844  15.111  0.9122  1.8529  0.1225
16869TIP3    H272023   2.222   4.955  15.148 -1.1857  0.0742  0.2778
16870TIP3   OH272024   3.746   2.030  12.588 -0.0763  0.3034 -0.1105
16870TIP3    H172025   3.810   2.002  12.654  0.5288 -0.3959 -0.9715
16870TIP3    H272026   3.722   1.949  12.543 -0.8999  0.6989 -0.3935
16871TIP3   OH272027   1.296   2.614   0.198 -0.6978 -0.5367  0.2749
16871TIP3    H172028   1.366   2.657   0.148  1.0607 -0.9636  2.2207
16871TIP3    H272029   1.310   2.521   0.183 -1.4802 -0.6119 -0.0597
16872TIP3   OH272030   0.783   2.698  16.998  0.6945  0.0912  0.0409
16872TIP3    H172031   0.750   2.637  17.064 -1.2230  0.5881 -0.3766
16872TIP3    H272032   0.745   2.783  17.023  3.5882  1.2726  0.8323
16873TIP3   OH272033   4.374   4.435  14.026  0.6894 -0.2787  0.5187
16873TIP3    H172034   4.374   4.473  13.938  3.7908 -0.9032  0.1199
16873TIP3    H272035   4.429   4.356  14.018  0.0387 -1.0275  2.7601
16874TIP3   OH272036   1.625   1.719   5.219 -0.0240 -0.6687  0.2237
16874TIP3    H172037   1.531   1.705   5.229  0.2050 -1.7433  1.0521
16874TIP3    H272038   1.660   1.711   5.308  0.6870  1.1158  0.1324
16875TIP3   OH272039   6.588   0.881  14.337 -0.2482 -0.2834 -0.2881
16875TIP3    H172040   6.611   0.790  14.353 -4.1411 -1.1789  1.3597
16875TIP3    H272041   6.551   0.882  14.249  0.3345 -0.1236 -0.5392
16876TIP3   OH272042   2.383   4.195  11.193  0.0338  0.1736 -0.1080
16876TIP3    H172043   2.407   4.162  11.107 -3.2300  0.7250 -1.3891
16876TIP3    H272044   2.368   4.116  11.246 -2.1467 -0.3639 -1.4192
16877TIP3   OH272045   5.814   6.298   4.314 -0.1932  0.1277 -0.3528
16877TIP3    H172046   5.840   6.258   4.397 -1.5544 -2.1346 -0.9357
16877TIP3    H272047   5.744   6.359   4.338  0.1061  0.2414  0.2591
16878TIP3   OH272048   2.479   2.975  11.372  0.4298  0.3750  0.4470
16878TIP3    H172049   2.556   3.016  11.413  0.8692  0.7813 -0.7356
16878TIP3    H272050   2.515   2.920  11.302 -0.3845  1.7076 -1.0920
16879TIP3   OH272051   2.082   2.405  16.449 -0.6274 -0.6060  0.0419
16879TIP3    H172052   2.083   2.405  16.353  1.5534  0.4729  0.0105
16879TIP3    H272053   2.066   2.314  16.473  1.2299 -1.3571 -1.3740
16880TIP3   OH272054   5.920   5.400  12.660  0.1255 -0.1047  0.1894
16880TIP3    H172055   5.851   5.449  12.705  0.1432 -0.1216  0.2350
16880TIP3    H272056   5.909   5.310  12.691 -0.2082 -0.2250 -0.2527
16881TIP3   OH272057   3.489   1.564  11.702 -0.4459 -0.3373 -0.3990
16881TIP3    H172058   3.408   1.614  11.689 -0.6616 -0.8434 -1.0604
16881TIP3    H272059   3.476   1.519  11.786  0.2577  1.6512  0.8480
16882TIP3   OH272060   4.706   0.621  15.394 -0.0110  0.2833 -0.3904
16882TIP3    H172061   4.731   0.644  15.305 -0.7961  3.2690  0.0459
16882TIP3    H272062   4.639   0.553  15.383  2.6674 -2.3368 -1.8138
16883TIP3   OH272063   0.608   4.606  13.360  0.2128  0.0803  0.5008
16883TIP3    H172064   0.602   4.625  13.454  1.5171 -1.6600  0.9952
16883TIP3    H272065   0.593   4.512  13.354  3.4696 -0.4954 -0.5696
16884TIP3   OH272066   1.482   6.395  15.668  0.1160  0.2651 -0.2012
16884TIP3    H172067   1.429   6.366  15.594 -1.0540 -1.2108  1.1218
16884TIP3    H272068   1.421   6.395  15.742  1.5527  0.3312  1.0235
16885TIP3   OH272069   6.219   5.659  13.987 -0.1242 -0.0910 -0.1395
16885TIP3    H172070   6.267   5.714  14.049  1.5934  0.8425 -2.1805
16885TIP3    H272071   6.151   5.717  13.952 -0.8104 -0.4879  0.4958
16886TIP3   OH272072   0.188   5.786  17.228 -0.4443 -0.1029  1.0210
16886TIP3    H172073   0.245   5.756  17.299 -0.9539  1.5665  2.1917
16886TIP3    H272074   0.230   5.753  17.148  0.9902 -0.7168  1.9858
16887TIP3   OH272075   6.147   3.434   2.653  0.0680 -0.0109  0.0527
16887TIP3    H172076   6.127   3.471   2.739  2.0674  1.0808  0.1092
16887TIP3    H272077   6.152   3.340   2.668  2.1823  0.2671  1.6136
16888TIP3   OH272078   3.880   5.419  16.230  0.1069  0.6936 -0.4784
16888TIP3    H172079   3.884   5.511  16.206  0.1309  0.8541  0.1304
16888TIP3    H272080   3.828   5.378  16.161  0.6210  1.0508 -1.0810
16889TIP3   OH272081   1.078   0.392   0.585 -0.4218 -0.1856  0.4372
16889TIP3    H172082   1.064   0.300   0.562  1.1703 -0.1608 -0.7567
16889TIP3    H272083   1.080   0.438   0.502  1.6906  0.4794  0.7952
16890TIP3   OH272084   6.728   1.194  13.635 -0.3934  0.4117  0.4782
16890TIP3    H172085   6.711   1.288  13.630  0.5193  0.5775  0.3460
16890TIP3    H272086   6.656   1.159  13.687 -1.0353  1.1017  0.0808
16891TIP3   OH272087   0.527   4.506  12.697  0.0367 -0.2556 -0.0833
16891TIP3    H172088   0.474   4.584  12.679  1.3815  0.5734 -0.6138
16891TIP3    H272089   0.546   4.512  12.791 -1.2256 -0.8549  0.2315
16892TIP3   OH272090   4.229   5.934  12.795 -0.3518 -0.1857 -0.4817
16892TIP3    H172091   4.276   5.945  12.878 -1.4492  1.4380 -0.0351
16892TIP3    H272092   4.257   6.008  12.742 -2.9776  1.3865  0.1347
16893TIP3   OH272093   0.564   4.383   4.958 -0.1465 -0.0812 -0.2516
16893TIP3    H172094   0.641   4.440   4.952  1.1565 -1.6701  0.5079
16893TIP3    H272095   0.530   4.400   5.046  1.1759 -1.5312  0.5908
16894TIP3   OH272096   5.946   0.733  12.565 -0.1693 -0.2338 -0.1294
16894TIP3    H172097   6.023   0.698  12.520 -0.5926 -0.6125 -0.5668
16894TIP3    H272098   5.970   0.824  12.586  0.8674 -0.7154  0.8631
16895TIP3   OH272099   4.094   5.163  10.286 -0.5004  0.9479  0.2947
16895TIP3    H172100   4.148   5.154  10.365 -0.3757  0.1337  0.1193
16895TIP3    H272101   4.016   5.111  10.303  0.4416 -0.9961 -0.9084
16896TIP3   OH272102   1.007   1.018   0.810 -0.1569  0.2197  0.3290
16896TIP3    H172103   0.963   0.934   0.798  0.1464  0.3073 -1.6842
16896TIP3    H272104   1.035   1.044   0.722 -1.8220  3.3105  0.5746
16897TIP3   OH272105   4.943   0.784   0.865 -0.1260  0.2762 -0.1819
16897TIP3    H172106   4.874   0.837   0.904  0.4225 -0.1840  1.5156
16897TIP3    H272107   4.955   0.712   0.927  0.6092 -0.6465 -1.3712
16898TIP3   OH272108   2.498   3.323   3.658  0.3263  0.7307  0.7502
16898TIP3    H172109   2.426   3.329   3.595 -1.1157  3.3806  2.4535
16898TIP3    H272110   2.535   3.236   3.644 -0.5993  0.7680 -2.9318
16899TIP3   OH272111   6.178   5.355  16.843  0.0019 -0.1980  0.2369
16899TIP3    H172112   6.220   5.374  16.759  0.0235  0.6583  0.4297
16899TIP3    H272113   6.087   5.381  16.831 -0.2066 -0.9481  0.1891
16900TIP3   OH272114   2.770   4.320  13.863  0.2125  0.0475  0.1996
16900TIP3    H172115   2.839   4.262  13.831 -0.2572  0.2882 -1.3676
16900TIP3    H272116   2.743   4.282  13.946  1.4994 -0.6396  0.3308
16901TIP3   OH272117   5.379   1.732   5.220  0.2473 -0.8261  0.4397
16901TIP3    H172118   5.374   1.687   5.304 -2.1762 -1.2045  0.1511
16901TIP3    H272119   5.379   1.825   5.242 -2.5811 -0.8652  0.8665
16902TIP3   OH272120   6.414   2.353   1.574 -0.3081  0.4950  0.5850
16902TIP3    H172121   6.456   2.268   1.584 -1.2037 -0.0212  0.0093
16902TIP3    H272122   6.335   2.348   1.626 -2.1672 -0.2914 -2.1071
16903TIP3   OH272123   6.012   1.570   5.306  0.4148 -0.6952 -0.3057
16903TIP3    H172124   5.945   1.613   5.253 -0.1232 -0.9908  0.1194
16903TIP3    H272125   6.050   1.641   5.358  1.7748 -0.1879 -1.9054
16904TIP3   OH272126   3.987   2.260   2.895  0.1562 -0.1195 -0.3378
16904TIP3    H172127   3.990   2.199   2.821  1.5424  0.7022 -0.9980
16904TIP3    H272128   3.897   2.256   2.926  0.0529 -2.0323 -0.7462
16905TIP3   OH272129   4.722   5.504  12.660  0.1613 -0.4553  0.3418
16905TIP3    H172130   4.742   5.473  12.748  0.3359 -0.9473  0.1315
16905TIP3    H272131   4.672   5.584  12.673  0.7616 -0.1716  0.8800
16906TIP3   OH272132   2.642   1.815   1.104  0.2177  0.8491 -0.8233
16906TIP3    H172133   2.719   1.859   1.138 -0.1191  0.3518  0.6582
16906TIP3    H272134   2.606   1.876   1.040  1.5180  1.3254 -1.1311
16907TIP3   OH272135   6.791   2.764  14.082  0.7552  0.2337  0.1994
16907TIP3    H172136   6.836   2.845  14.106  3.0689 -1.3836  1.7365
16907TIP3    H272137   6.841   2.729  14.009  0.2707 -0.2035  0.0688
16908TIP3   OH272138   1.361   5.618  12.826  0.8514 -0.5185 -0.4211
16908TIP3    H172139   1.327   5.556  12.761  0.9286  0.7916 -1.7777
16908TIP3    H272140   1.448   5.641  12.793  1.3770 -0.6824  0.7870
16909TIP3   OH272141   5.758   4.314   0.734 -0.2880  0.3514  1.0263
16909TIP3    H172142   5.740   4.365   0.813  0.8696  1.3806  0.6628
16909TIP3    H272143   5.753   4.378   0.663  1.0940 -0.0453  0.5443
16910TIP3   OH272144   6.010   6.242   4.099 -0.3160 -0.6849 -0.8197
16910TIP3    H172145   5.977   6.292   4.174  0.0921 -1.1952 -0.2823
16910TIP3    H272146   6.103   6.265   4.094 -0.2333 -1.0200 -0.8656
16911TIP3   OH272147   5.731   5.957   5.750 -0.2006  0.0605  0.4076
16911TIP3    H172148   5.816   5.941   5.791 -0.1800  0.1858  0.4121
16911TIP3    H272149   5.717   6.051   5.759 -0.2583  0.0666  0.2472
16912TIP3   OH272150   2.333   4.534  14.622 -0.1649  0.6682 -0.1157
16912TIP3    H172151   2.305   4.575  14.704  1.2221  0.5772  0.4355
16912TIP3    H272152   2.392   4.597  14.582 -2.4738  1.6436 -2.1710
16913TIP3   OH272153   5.963   6.694   5.861 -0.6134 -0.4079  0.0100
16913TIP3    H172154   5.987   6.645   5.939  1.8660  0.8991  0.1804
16913TIP3    H272155   5.883   6.740   5.885 -0.7920 -1.2926  1.1995
16914TIP3   OH272156   6.248   1.838   1.593  0.5848 -0.3077  0.1286
16914TIP3    H172157   6.237   1.816   1.501 -2.1548 -0.6734  0.4853
16914TIP3    H272158   6.179   1.902   1.612  1.8303  0.6753  1.6792
16915TIP3   OH272159   1.023   2.526   1.522 -0.0231 -0.4922  0.0625
16915TIP3    H172160   0.940   2.572   1.528  1.1724  1.6109  1.8098
16915TIP3    H272161   1.017   2.456   1.587 -0.4055 -0.3399  0.1912
16916TIP3   OH272162   2.113   2.112   3.424 -0.3682 -0.0921 -0.1303
16916TIP3    H172163   2.153   2.060   3.355  1.5935  0.2285  0.6819
16916TIP3    H272164   2.030   2.143   3.387 -0.2459 -1.4431 -1.6295
16917TIP3   OH272165   4.244   0.202  11.791 -0.1538 -0.0584 -0.0922
16917TIP3    H172166   4.223   0.133  11.854 -2.1312  1.4964  1.1068
16917TIP3    H272167   4.222   0.165  11.706 -0.5364 -1.1193  0.4494
16918TIP3   OH272168   3.597   2.332   4.599  0.3804  0.0971 -0.2257
16918TIP3    H172169   3.633   2.406   4.649  1.9505 -1.7695  1.5669
16918TIP3    H272170   3.509   2.361   4.575  0.4988  2.1030  1.4078
16919TIP3   OH272171   0.900   3.733  13.138 -0.3073  0.6022 -0.7193
16919TIP3    H172172   0.941   3.795  13.198 -0.0002  0.9067 -1.2371
16919TIP3    H272173   0.849   3.675  13.194  2.0127 -0.7454  0.1029
16920TIP3   OH272174   0.134   6.288   5.981  0.1719 -0.3826 -0.2554
16920TIP3    H172175   0.056   6.259   6.028 -0.0008 -1.9385 -1.4177
16920TIP3    H272176   0.189   6.210   5.975  1.0369  0.2580 -0.9580
16921TIP3   OH272177   2.081   0.374   2.193  0.0633 -0.5210  0.0393
16921TIP3    H172178   2.016   0.443   2.189 -0.0532 -0.4830  1.8307
16921TIP3    H272179   2.031   0.294   2.211  0.3615 -0.7642 -0.1994
16922TIP3   OH272180   4.584   3.169   4.851  0.2258  0.1149 -0.3177
16922TIP3    H172181   4.563   3.126   4.769  0.6453  0.7287 -0.7592
16922TIP3    H272182   4.650   3.113   4.892 -0.3593 -0.4589 -0.1466
16923TIP3   OH272183   6.032   5.026  15.952  0.2714  0.0986  0.0965
16923TIP3    H172184   5.940   5.042  15.932  0.3449 -0.2959 -0.5891
16923TIP3    H272185   6.057   4.953  15.895  0.0059 -2.3333  2.8901
16924TIP3   OH272186   4.841   2.092   5.827  0.8791  0.0725 -0.1432
16924TIP3    H172187   4.749   2.086   5.852  1.0654  0.6459  0.7546
16924TIP3    H272188   4.889   2.073   5.907  1.6058 -2.0891 -1.0242
16925TIP3   OH272189   6.335   3.587  15.754 -0.1439  0.0931 -0.1813
16925TIP3    H172190   6.299   3.518  15.810  0.5037  0.2720  0.4654
16925TIP3    H272191   6.418   3.552  15.723  0.1162  0.5184  0.0261
16926TIP3   OH272192   2.948   2.141   1.777 -0.1022  0.1580  0.5038
16926TIP3    H172193   2.869   2.122   1.727  0.1108  2.1695 -0.6777
16926TIP3    H272194   2.932   2.226   1.817  1.0788  0.1169  1.1185
16927TIP3   OH272195   0.610   3.638  14.924 -0.7110 -0.4416 -0.2099
16927TIP3    H172196   0.636   3.730  14.911 -1.2484 -0.4476 -1.4647
16927TIP3    H272197   0.581   3.634  15.015  1.6824  0.0363  0.6443
16928TIP3   OH272198   2.314   5.246  11.116 -0.6374 -0.4192  0.2165
16928TIP3    H172199   2.407   5.269  11.113 -0.3428 -0.7887  3.2777
16928TIP3    H272200   2.270   5.319  11.072  0.9886  0.4360 -0.0757
16929TIP3   OH272201   4.522   5.475   5.803 -0.0212 -0.0450 -0.5038
16929TIP3    H172202   4.508   5.380   5.796  1.6483 -0.4403  0.8856
16929TIP3    H272203   4.469   5.501   5.878 -1.3557  0.3731 -1.5424
16930TIP3   OH272204   1.357   5.837   3.363 -0.1184  0.3377  0.7956
16930TIP3    H172205   1.419   5.788   3.309 -1.6599 -1.6932  0.7767
16930TIP3    H272206   1.399   5.922   3.377  2.0281 -0.4792 -0.3497
16931TIP3   OH272207   2.382   6.144   4.974 -0.0860 -0.1624 -0.0830
16931TIP3    H172208   2.377   6.049   4.974  2.2071 -0.4056 -2.3134
16931TIP3    H272209   2.411   6.166   5.063  3.0507 -1.9598 -0.5163
16932TIP3   OH272210   5.310   6.519   5.236  0.2427  0.1452  0.4662
16932TIP3    H172211   5.290   6.590   5.175  0.7517 -0.9555 -1.0381
16932TIP3    H272212   5.378   6.469   5.192  1.4420 -0.0630  2.4583
16933TIP3   OH272213   3.008   0.767   1.391  0.1786  0.1999  0.2218
16933TIP3    H172214   3.063   0.726   1.325  0.0795  0.3604  0.0381
16933TIP3    H272215   2.946   0.699   1.416  1.4954 -0.5412  1.6588
16934TIP3   OH272216   4.010   5.626  16.092 -0.0681 -0.4993 -0.5551
16934TIP3    H172217   3.957   5.619  16.013 -1.5996 -0.8318  0.4589
16934TIP3    H272218   4.021   5.720  16.105 -0.8042 -0.4057 -0.5512
16935TIP3   OH272219   0.321   5.194  11.491  0.1615  0.0574 -0.7164
16935TIP3    H172220   0.290   5.280  11.519 -0.1553 -0.8020  1.8552
16935TIP3    H272221   0.251   5.134  11.517  1.2315 -1.2005 -0.6425
16936TIP3   OH272222   3.052   2.134   3.485 -0.7543 -0.0036 -0.1908
16936TIP3    H172223   3.034   2.143   3.579 -0.4295 -0.5519 -0.0731
16936TIP3    H272224   3.145   2.154   3.477 -0.7633 -0.0431 -0.3842
16937TIP3   OH272225   2.812   1.796   3.929 -0.0494  0.3060  0.2856
16937TIP3    H172226   2.873   1.819   3.859 -0.5447  0.4013 -0.1200
16937TIP3    H272227   2.865   1.801   4.009  0.2062  1.4985  0.0674
16938TIP3   OH272228   4.240   1.998  14.559 -0.1546 -0.2540 -0.2705
16938TIP3    H172229   4.319   2.040  14.525  0.4236 -2.0026 -1.2384
16938TIP3    H272230   4.248   2.004  14.654 -0.2204  1.9461 -0.3559
16939TIP3   OH272231   5.803   3.238   4.645  0.3028  0.0773  0.1953
16939TIP3    H172232   5.876   3.227   4.705  0.0505 -1.1322  0.3174
16939TIP3    H272233   5.810   3.164   4.585 -0.5780  0.1730 -0.0443
16940TIP3   OH272234   2.944   5.258  11.747 -0.6067  0.1840  0.6940
16940TIP3    H172235   2.951   5.216  11.833 -0.1407 -2.6901 -0.6410
16940TIP3    H272236   2.854   5.292  11.745 -0.8255 -0.2265  2.0754
16941TIP3   OH272237   3.819   6.456  12.660 -0.1797  0.1823  0.3139
16941TIP3    H172238   3.820   6.370  12.618  0.6916 -0.2447  1.1712
16941TIP3    H272239   3.806   6.437  12.753  2.2789  0.7714  0.8488
16942TIP3   OH272240   2.821   0.083   5.017 -0.1015  0.4521  0.1534
16942TIP3    H172241   2.812   0.121   5.104 -1.1375  0.4781  0.0418
16942TIP3    H272242   2.882   0.141   4.972 -0.3454  1.0097  0.5336
16943TIP3   OH272243   4.915   2.734  13.040  0.1044 -0.2436 -0.0563
16943TIP3    H172244   4.980   2.803  13.025 -1.0710  0.9995  0.3735
16943TIP3    H272245   4.962   2.653  13.019  1.7539  0.6059  0.1403
16944TIP3   OH272246   1.630   2.598   3.620  0.0131  0.0607  0.3661
16944TIP3    H172247   1.553   2.653   3.603  0.5346  0.5719 -0.4127
16944TIP3    H272248   1.598   2.509   3.609 -0.3262  0.2866 -0.6391
16945TIP3   OH272249   3.884   1.754   0.063 -0.1302  0.7068 -0.7634
16945TIP3    H172250   3.851   1.692  -0.002 -0.9043 -2.0477  1.9913
16945TIP3    H272251   3.822   1.746   0.136  1.3320  2.7451  0.7891
16946TIP3   OH272252   0.268   6.576   1.479 -0.3874  0.1228 -0.2617
16946TIP3    H172253   0.269   6.670   1.462 -0.8626  0.0399 -0.8097
16946TIP3    H272254   0.316   6.538   1.405 -1.0947 -0.1351 -0.5947
16947TIP3   OH272255   2.503   3.372  16.902 -0.0822  0.4135 -0.2244
16947TIP3    H172256   2.587   3.366  16.947 -0.0668  2.8618  0.1962
16947TIP3    H272257   2.522   3.423  16.823 -1.2265  1.4030  0.1177
16948TIP3   OH272258   5.871   3.916   4.070  0.7029 -0.1630  0.1831
16948TIP3    H172259   5.778   3.920   4.094  0.6092 -1.5287  0.1434
16948TIP3    H272260   5.902   3.835   4.110  2.1186  0.7469  0.9595
16949TIP3   OH272261   2.104   0.216  13.568  0.1470 -0.1762 -0.5322
16949TIP3    H172262   2.092   0.214  13.663 -2.4238  2.0473 -0.6795
16949TIP3    H272263   2.187   0.263  13.556 -0.6799  1.7287  0.6645
16950TIP3   OH272264   5.782   2.911  13.392  1.1605 -0.1586 -0.2002
16950TIP3    H172265   5.803   2.916  13.485 -1.1586  1.1161  0.3360
16950TIP3    H272266   5.706   2.853  13.388 -0.6207  2.0630 -0.8318
16951TIP3   OH272267   2.581   2.541   0.526  0.4744  0.0274  0.3397
16951TIP3    H172268   2.617   2.606   0.587  1.7752 -1.9293  1.7801
16951TIP3    H272269   2.561   2.465   0.581  0.7263 -1.4508 -1.5239
16952TIP3   OH272270   6.683   4.290  12.806 -0.0845  0.2611  0.3106
16952TIP3    H172271   6.766   4.270  12.849 -0.1967 -1.6852 -0.2637
16952TIP3    H272272   6.694   4.378  12.771  1.2761  0.5129  1.3201
16953TIP3   OH272273   3.206   5.146   4.611 -0.4180  0.1646 -0.1020
16953TIP3    H172274   3.210   5.204   4.535 -1.3762 -2.4270 -2.2722
16953TIP3    H272275   3.219   5.058   4.576 -0.9140 -1.1718  2.7425
16954TIP3   OH272276   5.185   2.108  14.904 -0.1233 -0.5175  0.1650
16954TIP3    H172277   5.159   2.182  14.959 -0.5854 -1.5681  1.4135
16954TIP3    H272278   5.105   2.056  14.896  0.3526 -1.1989 -0.1811
16955TIP3   OH272279   1.725   6.366   0.706  0.6416  0.1796  0.1451
16955TIP3    H172280   1.666   6.408   0.768  0.6198  0.5269 -0.1061
16955TIP3    H272281   1.672   6.353   0.627  0.6104 -0.4396  0.2629
16956TIP3   OH272282   3.949   2.242   6.146  0.8501  0.3741 -0.3655
16956TIP3    H172283   3.970   2.335   6.136  0.2020  0.7676  1.4880
16956TIP3    H272284   4.021   2.207   6.199  1.1138 -0.2072 -1.0927
16957TIP3   OH272285   3.052   3.865  15.049 -0.4808  0.1693 -0.0351
16957TIP3    H172286   3.089   3.948  15.019  0.7440 -0.8492 -1.5058
16957TIP3    H272287   3.028   3.819  14.968 -1.7655 -0.6445  0.7768
16958TIP3   OH272288   0.144   0.859   4.630  0.0996  0.2284  0.7124
16958TIP3    H172289   0.057   0.855   4.591  0.1267 -1.4990  0.7474
16958TIP3    H272290   0.195   0.914   4.571 -0.2895 -1.0064 -0.8602
16959TIP3   OH272291   6.757   2.050   1.885 -0.3880 -0.0003  0.0055
16959TIP3    H172292   6.768   2.038   1.980 -0.1493  1.6741  0.2255
16959TIP3    H272293   6.843   2.030   1.849 -1.5066 -5.0486 -0.4669
16960TIP3   OH272294   5.736   4.671  14.568 -0.4427 -0.1880 -0.6519
16960TIP3    H172295   5.654   4.720  14.569 -0.7425 -0.6787  0.5571
16960TIP3    H272296   5.741   4.630  14.654 -0.1289 -2.1405 -1.5311
16961TIP3   OH272297   5.298   2.841   0.195 -0.1298 -0.6131 -0.1638
16961TIP3    H172298   5.337   2.904   0.254 -0.3916 -0.0308 -0.6044
16961TIP3    H272299   5.354   2.841   0.117  0.5122 -1.7575  0.2666
16962TIP3   OH272300   1.648   5.674  11.352 -0.1587  0.3224 -0.1962
16962TIP3    H172301   1.741   5.656  11.364 -0.3201  0.3332  1.2526
16962TIP3    H272302   1.642   5.716  11.266  1.4854  2.5431  0.6943
16963TIP3   OH272303   5.766   5.864   5.455  0.1436 -0.0841  0.3149
16963TIP3    H172304   5.699   5.923   5.490  0.2637  1.3215 -1.6500
16963TIP3    H272305   5.796   5.813   5.530 -2.3302  0.0195  1.4496
16964TIP3   OH272306   2.712   6.349   0.862 -0.3452  0.2378 -0.6081
16964TIP3    H172307   2.707   6.375   0.954  1.2257  0.7670 -0.6258
16964TIP3    H272308   2.793   6.297   0.857 -1.3433 -1.3070 -1.3649
16965TIP3   OH272309   4.078   4.787   1.728 -0.4803 -0.1833 -0.4558
16965TIP3    H172310   3.983   4.800   1.728 -0.5823 -0.8111  0.7952
16965TIP3    H272311   4.092   4.704   1.682 -0.7605 -1.3270  1.4365
16966TIP3   OH272312   5.919   2.503  11.265  0.6675 -0.0159 -0.2252
16966TIP3    H172313   6.007   2.484  11.233  0.3297  1.0196 -1.8905
16966TIP3    H272314   5.861   2.459  11.203  0.0053 -0.4337  0.6827
16967TIP3   OH272315   2.361   6.671   5.201 -0.4698 -0.2868 -0.4489
16967TIP3    H172316   2.271   6.696   5.180 -0.5068 -1.2941 -1.5403
16967TIP3    H272317   2.362   6.665   5.297 -0.9738  1.8420 -0.2545
16968TIP3   OH272318   3.352   4.876  12.056 -0.5590 -0.0271  0.1883
16968TIP3    H172319   3.273   4.839  12.095  0.4103 -0.6623  1.6168
16968TIP3    H272320   3.337   4.970  12.057 -1.5121 -0.1609 -0.0648
16969TIP3   OH272321   4.099   3.042  10.792  0.2242  0.4869  0.5249
16969TIP3    H172322   4.133   2.957  10.819 -0.9024 -0.1171  0.1176
16969TIP3    H272323   4.004   3.031  10.793  0.0864  1.4127 -0.5651
16970TIP3   OH272324   3.703   0.261   6.361  0.1993  0.3401 -0.0609
16970TIP3    H172325   3.610   0.283   6.373 -0.0369 -1.2171  1.2797
16970TIP3    H272326   3.746   0.346   6.350 -1.2312  1.1702  0.4467
16971TIP3   OH272327   3.227   2.747  14.075  0.0625  0.1034 -0.3658
16971TIP3    H172328   3.321   2.741  14.058  0.1817 -1.3710  0.6704
16971TIP3    H272329   3.186   2.695  14.005  0.1020 -0.1999 -0.1661
16972TIP3   OH272330   4.023   1.273  14.833  0.2038  0.1745  0.2581
16972TIP3    H172331   3.942   1.296  14.879 -0.7586 -2.2047 -0.1214
16972TIP3    H272332   4.003   1.285  14.741 -0.2148 -1.6894  0.0719
16973TIP3   OH272333   1.733   0.966   4.315  0.7177  0.0643  0.0807
16973TIP3    H172334   1.797   1.034   4.335 -0.0876  0.2967  2.1339
16973TIP3    H272335   1.739   0.906   4.390  0.1147 -1.1335 -0.8038
16974TIP3   OH272336   4.045   4.529   3.905  0.6741 -0.5386 -0.0621
16974TIP3    H172337   4.065   4.613   3.863  0.9827 -0.7118 -0.2624
16974TIP3    H272338   4.087   4.464   3.849 -0.4426 -0.9146 -0.4975
16975TIP3   OH272339   0.527   0.748   5.538 -0.4737  0.1509  0.5068
16975TIP3    H172340   0.489   0.684   5.598 -0.9909  0.7510  0.8288
16975TIP3    H272341   0.509   0.832   5.578 -1.6906  0.6322 -0.9629
16976TIP3   OH272342   2.523   5.029  17.190 -0.3359 -0.8573 -0.2151
16976TIP3    H172343   2.607   5.064  17.159 -0.6137  0.0724  0.0435
16976TIP3    H272344   2.501   4.960  17.127 -0.0056 -0.2307 -1.0306
16977TIP3   OH272345   5.020   4.269   5.146 -0.3551  0.0189  0.2344
16977TIP3    H172346   4.971   4.250   5.225 -1.4560  0.7965 -0.2309
16977TIP3    H272347   5.025   4.365   5.143  1.1173 -0.0342  0.2135
16978TIP3   OH272348   6.646   2.306  14.393 -0.1128 -0.5624 -0.1406
16978TIP3    H172349   6.599   2.260  14.324 -0.7465 -0.0045 -0.0840
16978TIP3    H272350   6.701   2.369  14.347 -0.8600  0.1131 -0.1292
16979TIP3   OH272351   2.671   0.277  16.011 -0.1937  0.2533 -0.1533
16979TIP3    H172352   2.747   0.218  16.005 -0.2037  0.2163  0.0544
16979TIP3    H272353   2.598   0.219  16.031 -0.3413  0.2484 -0.6998
16980TIP3   OH272354   4.142   4.449  15.738 -0.9957  0.1387 -0.4354
16980TIP3    H172355   4.109   4.537  15.720  2.7559  1.2999 -2.9572
16980TIP3    H272356   4.182   4.455  15.824 -0.6557  0.9708 -0.6423
16981TIP3   OH272357   1.108   0.472  12.835  0.1076 -1.0326  0.5120
16981TIP3    H172358   1.032   0.493  12.890 -0.9300 -1.3094 -0.7651
16981TIP3    H272359   1.099   0.379  12.817 -0.1316 -0.7407 -0.9384
16982TIP3   OH272360   6.166   3.724   0.203 -0.7451 -0.0744 -0.0371
16982TIP3    H172361   6.107   3.652   0.181  0.1115 -0.8012 -0.0163
16982TIP3    H272362   6.192   3.706   0.293  2.0865 -1.6612 -1.0483
16983TIP3   OH272363   2.701   3.799  16.384 -0.3647 -0.8549  0.4073
16983TIP3    H172364   2.796   3.795  16.372 -0.2900  0.2577  0.4893
16983TIP3    H272365   2.681   3.892  16.383 -1.6084 -1.1048 -0.6785
16984TIP3   OH272366   6.290   5.780   2.725  0.4828 -0.2798  0.3848
16984TIP3    H172367   6.304   5.841   2.652  0.9235  0.6159  1.1977
16984TIP3    H272368   6.228   5.715   2.691  0.5699  0.2064 -0.7358
16985TIP3   OH272369   2.127   1.816  12.595  0.7285 -0.5571  0.0574
16985TIP3    H172370   2.186   1.883  12.562  0.7726 -0.9545 -0.6891
16985TIP3    H272371   2.148   1.808  12.688  0.8677  0.3051  0.1034
16986TIP3   OH272372   3.244   3.051   4.172  0.0954  0.1093 -0.5824
16986TIP3    H172373   3.242   2.992   4.248  0.4399  0.0979 -0.5833
16986TIP3    H272374   3.336   3.075   4.163 -0.0771  0.8529 -0.4255
16987TIP3   OH272375   3.920   5.234  11.092 -0.0847 -0.2560 -0.4908
16987TIP3    H172376   3.978   5.159  11.107  0.4827  0.2123 -0.3249
16987TIP3    H272377   3.925   5.251  10.998 -0.0859 -0.3149 -0.5019
16988TIP3   OH272378   1.676   3.781   1.266  0.1769  0.0923 -0.1363
16988TIP3    H172379   1.649   3.869   1.292 -1.2165 -0.5226  0.5773
16988TIP3    H272380   1.762   3.794   1.226  0.6933  1.5860  1.3154
16989TIP3   OH272381   0.610   2.509   0.592 -0.2927 -0.3060 -0.0555
16989TIP3    H172382   0.622   2.602   0.614 -1.2427 -0.0630 -0.5324
16989TIP3    H272383   0.548   2.509   0.520  0.0960 -1.2960 -0.4110
16990TIP3   OH272384   1.579   5.721  15.748 -0.4313 -1.0778  0.3233
16990TIP3    H172385   1.641   5.656  15.780  1.0137 -1.1482 -2.2939
16990TIP3    H272386   1.511   5.669  15.704 -1.3772 -0.9234  1.5656
16991TIP3   OH272387   5.293   3.574  14.096  0.1040 -0.2495 -0.2334
16991TIP3    H172388   5.212   3.604  14.054  0.2458 -2.8402 -2.6276
16991TIP3    H272389   5.362   3.626  14.055 -0.0261 -0.7662 -1.1316
16992TIP3   OH272390   3.717   1.756   0.276  0.3414  0.6130 -0.0200
16992TIP3    H172391   3.751   1.770   0.364  2.4143 -0.7274 -0.5200
16992TIP3    H272392   3.642   1.698   0.288  0.2891  0.8549  0.9001
16993TIP3   OH272393   6.374   1.597   2.180  0.8209 -0.1394 -0.3165
16993TIP3    H172394   6.405   1.682   2.213  0.0439 -0.3095  0.9120
16993TIP3    H272395   6.403   1.595   2.088 -0.4356  2.1097 -0.8345
16994TIP3   OH272396   0.165   2.470   0.043  0.1777  0.5783  0.1095
16994TIP3    H172397   0.072   2.479   0.022 -0.4512 -1.9395  1.4383
16994TIP3    H272398   0.174   2.514   0.127  0.1949  0.8558 -0.0372
16995TIP3   OH272399   0.734   5.437  15.369 -0.3201 -0.5044  1.1085
16995TIP3    H172400   0.789   5.360  15.386 -0.5297 -1.0033 -0.3069
16995TIP3    H272401   0.795   5.508  15.355 -0.1261 -0.2192  3.0557
16996TIP3   OH272402   4.597   5.109  12.390 -0.0682  0.7521  0.4931
16996TIP3    H172403   4.671   5.169  12.388  0.8352 -0.3500  0.0624
16996TIP3    H272404   4.550   5.125  12.309  0.9784 -0.0823 -0.3061
16997TIP3   OH272405   3.393   4.955   0.910  0.6207 -0.2103  0.1827
16997TIP3    H172406   3.300   4.934   0.920  0.5861 -0.1558 -0.0040
16997TIP3    H272407   3.408   5.031   0.966  0.1883  0.7585 -0.9597
16998TIP3   OH272408   4.899   6.702   3.849  0.3176 -0.0025  0.5536
16998TIP3    H172409   4.983   6.715   3.805  0.4647 -1.0889  0.4797
16998TIP3    H272410   4.917   6.634   3.914 -0.0533  1.1079  1.8683
16999TIP3   OH272411   0.836   6.187  15.663  0.1557  0.4680  0.1660
16999TIP3    H172412   0.859   6.182  15.756 -1.5196  0.7089  0.6314
16999TIP3    H272413   0.891   6.256  15.628  2.2566 -0.9312  0.4877
17000TIP3   OH272414   3.393   1.634  13.494 -0.1416 -0.6667 -0.1364
17000TIP3    H172415   3.448   1.700  13.451 -1.4228  0.4102 -0.1790
17000TIP3    H272416   3.438   1.551  13.478  0.7872  0.0319 -1.2805
17001TIP3   OH272417   6.007   1.769   6.459 -0.3591 -0.4512  0.2054
17001TIP3    H172418   5.988   1.693   6.514  0.9337 -2.3793 -1.7957
17001TIP3    H272419   5.925   1.787   6.413 -0.6670 -0.6750  0.6619
17002TIP3   OH272420   6.592   3.423   0.052 -0.2432  0.0847 -0.4966
17002TIP3    H172421   6.610   3.510   0.087 -0.3957 -1.0315  2.6647
17002TIP3    H272422   6.505   3.430   0.013 -1.7088  0.6822  2.6233
17003TIP3   OH272423   0.079   2.720  10.865 -1.1855  0.4670  0.2731
17003TIP3    H172424   0.015   2.691  10.800  0.5571 -0.8483 -0.9425
17003TIP3    H272425   0.108   2.806  10.833 -1.3049  0.4185  0.0313
17004TIP3   OH272426   2.410   6.474  13.207  0.1072  0.3726  0.0647
17004TIP3    H172427   2.473   6.523  13.155 -0.5824  0.3220 -0.8499
17004TIP3    H272428   2.387   6.533  13.279  0.6566  0.6641  0.0016
17005TIP3   OH272429   0.065   4.367   2.000 -0.2253  0.3159 -0.0535
17005TIP3    H172430   0.121   4.312   2.056 -1.2845 -0.1513  0.5690
17005TIP3    H272431   0.049   4.313   1.922 -0.1215  0.2970 -0.0620
17006TIP3   OH272432   6.649   1.268   2.623  0.0972 -0.7992  0.0039
17006TIP3    H172433   6.576   1.320   2.657 -0.1708 -1.2438  0.1220
17006TIP3    H272434   6.704   1.250   2.699  0.3285 -0.4670 -0.0847
17007TIP3   OH272435   0.403   6.009  16.042 -0.2096  0.3817  0.1662
17007TIP3    H172436   0.380   6.000  16.135 -1.6058  0.5072 -0.1471
17007TIP3    H272437   0.320   5.999  15.996  0.0737  2.5928 -0.9480
17008TIP3   OH272438   1.721   4.429   2.279 -0.4815  0.5403  0.0028
17008TIP3    H172439   1.815   4.432   2.298 -0.6630  0.3654  0.9747
17008TIP3    H272440   1.710   4.485   2.202 -0.0613  3.3869  1.8788
17009TIP3   OH272441   5.627   0.208  12.430 -0.4061  0.6959 -0.2567
17009TIP3    H172442   5.712   0.252  12.434 -0.5706  0.9765  0.2698
17009TIP3    H272443   5.642   0.123  12.473 -0.3511  0.6728 -0.3208
17010TIP3   OH272444   1.727   3.897   5.629  0.2774 -0.0422  0.7567
17010TIP3    H172445   1.674   3.846   5.690  1.2016 -1.2803  0.5645
17010TIP3    H272446   1.801   3.928   5.681  0.7810 -0.6371  0.4059
17011TIP3   OH272447   6.670   3.554   3.012  0.1829 -0.1814 -0.5483
17011TIP3    H172448   6.578   3.559   2.986 -0.8265  0.1478  2.7182
17011TIP3    H272449   6.681   3.464   3.042 -0.0835  0.5792  2.0898
17012TIP3   OH272450   5.283   6.061  15.384  0.2758  0.5264  0.1509
17012TIP3    H172451   5.206   6.012  15.354  0.1110  0.6412  0.3854
17012TIP3    H272452   5.273   6.066  15.479 -0.8000  2.7982 -0.0132
17013TIP3   OH272453   2.759   6.490  12.502  0.3510 -0.3737 -0.0596
17013TIP3    H172454   2.828   6.534  12.452  0.5055  1.1920  1.4509
17013TIP3    H272455   2.766   6.398  12.476  1.2416  0.1810 -1.9287
17014TIP3   OH272456   1.310   5.375  13.104  0.4960  0.2451  0.5637
17014TIP3    H172457   1.359   5.456  13.120  1.3406 -0.4107  1.4155
17014TIP3    H272458   1.307   5.367  13.009 -0.5231  1.8119  0.4130
17015TIP3   OH272459   5.806   4.371  16.296 -0.3487  0.3687 -0.0888
17015TIP3    H172460   5.793   4.318  16.217 -0.5812  2.0229 -1.2105
17015TIP3    H272461   5.859   4.316  16.353  0.5610 -0.5676 -1.7565
17016TIP3   OH272462   1.182   4.112  16.216  0.2578  0.4145 -0.1477
17016TIP3    H172463   1.141   4.163  16.146 -0.3150 -0.0516 -0.1538
17016TIP3    H272464   1.134   4.136  16.295  1.4566  1.5989  0.2716
17017TIP3   OH272465   5.383   1.045  11.438  0.3885 -0.0829  0.3795
17017TIP3    H172466   5.473   1.014  11.431 -0.3575 -2.2741 -0.1950
17017TIP3    H272467   5.391   1.140  11.448  2.7966 -0.3751  2.0085
17018TIP3   OH272468   2.733   5.759   1.580  0.6012 -0.3959  0.0164
17018TIP3    H172469   2.761   5.703   1.653  0.5623  1.0753  1.2105
17018TIP3    H272470   2.812   5.807   1.555 -0.0767  1.5805  1.4082
17019TIP3   OH272471   3.275   6.638   2.664  0.0988 -0.9956  0.1821
17019TIP3    H172472   3.230   6.575   2.608 -0.2416  1.3093 -2.3700
17019TIP3    H272473   3.367   6.632   2.638 -0.1278  0.4307 -1.1897
17020TIP3   OH272474   4.885   4.657   1.842  0.3159  0.1893  0.7251
17020TIP3    H172475   4.880   4.563   1.858  1.2028  0.2572  1.5312
17020TIP3    H272476   4.794   4.686   1.832  0.0196 -0.6891  0.8527
17021TIP3   OH272477   1.937   2.541  16.177 -0.0461  0.6161 -0.0652
17021TIP3    H172478   1.876   2.570  16.109  0.6179 -1.3792 -1.6045
17021TIP3    H272479   1.944   2.616  16.236 -1.5831  2.0001 -1.5303
17022TIP3   OH272480   4.881   6.501  15.206  0.2432  0.1554 -0.8687
17022TIP3    H172481   4.791   6.516  15.176 -0.4405 -3.9328 -1.4119
17022TIP3    H272482   4.875   6.498  15.301 -0.3932 -0.9865 -0.9365
17023TIP3   OH272483   1.126   0.987  12.732 -0.5164  0.1067 -0.0387
17023TIP3    H172484   1.076   0.990  12.813 -1.4602  0.7844 -0.6183
17023TIP3    H272485   1.201   1.044  12.747 -0.9812  0.6718  0.1841
17024TIP3   OH272486   0.980   1.389  16.121 -0.0084  0.8255 -0.5600
17024TIP3    H172487   0.989   1.468  16.069  1.4564  0.6482 -0.6370
17024TIP3    H272488   0.954   1.419  16.208  0.4004  1.3799 -0.6276
17025TIP3   OH272489   2.393   6.782  14.108  0.7414 -0.0233 -0.3063
17025TIP3    H172490   2.435   6.839  14.172  0.4911 -0.3792  0.1840
17025TIP3    H272491   2.374   6.839  14.034  1.3747  0.3111 -0.2179
17026TIP3   OH272492   1.276   2.223   2.979 -0.0500 -0.0041 -0.2493
17026TIP3    H172493   1.254   2.284   2.909 -1.0579 -0.6452 -0.5085
17026TIP3    H272494   1.260   2.272   3.060 -2.0352 -0.2633 -0.4294
17027TIP3   OH272495   1.466   3.257  11.324  0.4395 -0.3522 -0.2429
17027TIP3    H172496   1.477   3.227  11.414 -0.0160 -0.6696 -0.2892
17027TIP3    H272497   1.487   3.351  11.328 -0.8530 -0.0702  0.4624
17028TIP3   OH272498   2.186   4.575   0.154 -0.8930  0.1013 -0.4453
17028TIP3    H172499   2.194   4.576   0.249 -0.7808 -2.6622 -0.3666
17028TIP3    H272500   2.266   4.534   0.123 -1.1331  0.5529 -1.7295
17029TIP3   OH272501   2.820   2.325  16.938 -0.4458  0.3003 -0.6132
17029TIP3    H172502   2.816   2.253  16.875  0.3322  1.1303 -1.6517
17029TIP3    H272503   2.799   2.403  16.887 -1.2189  0.8286  0.4850
17030TIP3   OH272504   0.511   3.219   1.775 -0.1874 -0.1006  0.2970
17030TIP3    H172505   0.424   3.256   1.764  0.7995  2.1558 -0.5039
17030TIP3    H272506   0.517   3.152   1.707 -0.8219  0.7222 -0.6042
17031TIP3   OH272507   3.108   3.256   3.629  0.7700  0.3246  0.2224
17031TIP3    H172508   3.087   3.345   3.656 -1.6622 -0.1117  0.0016
17031TIP3    H272509   3.064   3.201   3.694  1.1041 -0.7199 -0.4145
17032TIP3   OH272510   4.179   1.960  15.011  0.1818 -0.0378  0.1402
17032TIP3    H172511   4.213   1.880  14.972  0.6380 -0.1302  0.7153
17032TIP3    H272512   4.257   2.011  15.034 -0.0898  1.3931 -1.8366
17033TIP3   OH272513   5.508   4.838  10.838 -0.1601 -0.1127 -0.1150
17033TIP3    H172514   5.414   4.856  10.844 -0.3025 -0.2374 -1.5974
17033TIP3    H272515   5.549   4.924  10.846 -0.1470 -0.3319  3.7374
17034TIP3   OH272516   0.015   2.230  16.514  0.0680 -0.0700  0.2592
17034TIP3    H172517   0.032   2.177  16.436  0.4979  0.4271  0.0084
17034TIP3    H272518  -0.059   2.187  16.556  0.4383 -0.8901  0.0862
17035TIP3   OH272519   6.609   0.731  12.015 -0.5207 -0.7877 -0.1235
17035TIP3    H172520   6.622   0.689  11.930  2.7085 -0.5952  0.1554
17035TIP3    H272521   6.581   0.820  11.994  0.8303 -0.5569 -1.0690
17036TIP3   OH272522   6.509   0.487  16.302  0.3458 -0.0719  0.1177
17036TIP3    H172523   6.496   0.406  16.253  1.5988 -1.3974  1.8915
17036TIP3    H272524   6.598   0.515  16.279 -0.2116  1.0594 -0.7825
17037TIP3   OH272525   5.500   1.637  15.956 -0.2291  0.1124  0.3199
17037TIP3    H172526   5.589   1.617  15.927  0.1979  0.9371  0.9874
17037TIP3    H272527   5.492   1.591  16.040  0.4924  1.9965  1.4922
17038TIP3   OH272528   3.074   4.731  15.723  0.5114 -0.0454 -0.2425
17038TIP3    H172529   3.117   4.714  15.639  1.6663  0.0076  0.3220
17038TIP3    H272530   3.146   4.737  15.786 -0.2949  0.6593  0.6280
17039TIP3   OH272531   0.268   4.967   1.180 -0.0093  0.1694  0.4432
17039TIP3    H172532   0.241   5.042   1.232 -0.8737  1.6202 -1.9245
17039TIP3    H272533   0.314   5.005   1.105 -0.7576 -1.6217 -1.0091
17040TIP3   OH272534   4.863   2.210  15.813 -0.7321 -0.1165 -0.2280
17040TIP3    H172535   4.797   2.151  15.849 -0.9181 -0.3212 -0.8926
17040TIP3    H272536   4.927   2.220  15.884 -0.4443 -1.5040 -0.2640
17041TIP3   OH272537   5.234   0.051   0.207 -0.7422 -0.2429 -0.0582
17041TIP3    H172538   5.170  -0.011   0.240  1.8989 -3.1197  0.1973
17041TIP3    H272539   5.287   0.074   0.283  0.4952 -0.5749 -0.7834
17042TIP3   OH272540   3.220   5.924   2.562  0.2369 -0.1964 -0.0485
17042TIP3    H172541   3.272   5.934   2.642  0.2044  0.3803 -0.0918
17042TIP3    H272542   3.282   5.940   2.491 -0.1707  1.4434 -0.0802
17043TIP3   OH272543   2.232   0.407  14.045  0.1871  0.2488 -0.5387
17043TIP3    H172544   2.195   0.493  14.022 -0.5085 -0.0430 -0.5300
17043TIP3    H272545   2.235   0.407  14.141 -0.8520 -0.1550 -0.4939
17044TIP3   OH272546   4.268   5.284  13.561  0.0953  0.5816  0.0580
17044TIP3    H172547   4.280   5.210  13.619  2.0536  0.1593 -0.7952
17044TIP3    H272548   4.179   5.316  13.580 -0.1606 -0.9161  1.6136
17045TIP3   OH272549   0.392   0.992   3.405 -0.1127 -0.0088 -0.2711
17045TIP3    H172550   0.389   0.924   3.337  1.3054 -0.3207 -0.0577
17045TIP3    H272551   0.452   1.058   3.369  1.4096 -0.6205  1.0441
17046TIP3   OH272552   6.484   3.411  11.305 -0.3015  0.1318 -0.4113
17046TIP3    H172553   6.400   3.366  11.299 -1.0216  1.4706 -0.6477
17046TIP3    H272554   6.487   3.466  11.226  0.1394  1.1959  0.3342
17047TIP3   OH272555   0.174   5.996  15.890  0.1667  0.1986  0.3455
17047TIP3    H172556   0.132   5.943  15.822  0.4254 -0.3634  0.6124
17047TIP3    H272557   0.189   6.081  15.849  1.0091 -0.3587 -0.5547
17048TIP3   OH272558   5.989   1.647   1.910 -0.3343  0.0972  0.5107
17048TIP3    H172559   5.912   1.649   1.966 -0.1972  1.7837  0.6961
17048TIP3    H272560   5.957   1.674   1.823 -0.1877 -0.5211  0.2594
17049TIP3   OH272561   5.478   3.158  14.062  0.3986 -0.1435 -0.3150
17049TIP3    H172562   5.383   3.162  14.069  0.4561 -1.7299  2.2999
17049TIP3    H272563   5.494   3.121  13.975 -1.3134  0.6868 -1.0327
17050TIP3   OH272564   4.210   5.815   0.280  0.1234 -0.0755 -0.3571
17050TIP3    H172565   4.168   5.884   0.230 -0.8075  0.9373  1.6764
17050TIP3    H272566   4.252   5.759   0.215 -0.1363  1.7126 -2.1440
17051TIP3   OH272567   5.909   0.797   3.358 -0.8882 -0.4761  0.4189
17051TIP3    H172568   5.833   0.749   3.390 -0.6681 -2.1370 -1.3870
17051TIP3    H272569   5.887   0.819   3.268 -0.9961  2.9907  1.1499
17052TIP3   OH272570   6.541   0.001  10.595 -0.2362  0.5335  0.4818
17052TIP3    H172571   6.536  -0.034  10.683  0.1346  1.8121  1.0411
17052TIP3    H272572   6.633   0.026  10.584  0.2579 -1.6606 -1.1201
17053TIP3   OH272573   6.119   4.723  15.237 -0.0897 -0.4645  0.2497
17053TIP3    H172574   6.031   4.737  15.272 -0.7204 -0.5763 -1.2091
17053TIP3    H272575   6.177   4.742  15.310 -1.3239 -0.4207  1.2604
17054TIP3   OH272576   6.750   1.887   3.083 -0.6168  0.0442 -0.1216
17054TIP3    H172577   6.798   1.867   3.003 -0.0438  1.5425 -0.1905
17054TIP3    H272578   6.724   1.802   3.118  0.2100 -0.6877 -1.2341
17055TIP3   OH272579   0.679   1.179  15.698  0.2327 -0.3720 -0.0552
17055TIP3    H172580   0.646   1.184  15.609  0.6254 -0.8069 -0.2259
17055TIP3    H272581   0.754   1.121  15.693  0.6199  0.0719  0.4523
17056TIP3   OH272582   6.124   0.550   1.873 -0.1949  0.5580  0.6453
17056TIP3    H172583   6.197   0.541   1.934  0.3230  1.0473  0.1081
17056TIP3    H272584   6.108   0.461   1.841  1.6887  0.7410 -0.9695
17057TIP3   OH272585   5.910   3.928   3.074  0.3513 -0.0901 -0.6562
17057TIP3    H172586   5.988   3.982   3.064 -0.0889  0.4162 -1.5120
17057TIP3    H272587   5.937   3.856   3.131  0.5891  1.7416  1.7027
17058TIP3   OH272588   2.090   3.327  14.596 -0.2766  0.0072 -0.9136
17058TIP3    H172589   2.077   3.383  14.672 -2.2911 -0.4191 -0.8685
17058TIP3    H272590   2.031   3.253  14.612  0.8212 -1.1217 -1.9181
17059TIP3   OH272591   4.799   6.204   4.877  0.2199  0.0988 -0.3261
17059TIP3    H172592   4.726   6.264   4.889  0.4965  0.4283 -0.2822
17059TIP3    H272593   4.824   6.215   4.785 -0.0834 -0.3525 -0.4620
17060TIP3   OH272594   3.894   6.078   3.013  0.3134 -1.1444  0.0155
17060TIP3    H172595   3.818   6.135   3.001  1.0986  0.3715  1.8544
17060TIP3    H272596   3.927   6.063   2.924 -2.2245 -2.0764 -0.8710
17061TIP3   OH272597   6.448   6.720   6.072  0.1836  0.5499  0.1773
17061TIP3    H172598   6.463   6.672   6.153  0.6837  0.5515  0.0862
17061TIP3    H272599   6.534   6.725   6.030 -0.5334 -1.9406 -1.7639
17062TIP3   OH272600   1.217   5.584   4.894 -0.2083 -0.2205 -0.2501
17062TIP3    H172601   1.138   5.571   4.841 -0.6817 -1.0805  0.6262
17062TIP3    H272602   1.184   5.598   4.982  0.5112  2.3905 -0.3255
17063TIP3   OH272603   4.206   3.338  14.512  0.0804  0.0279  0.0695
17063TIP3    H172604   4.280   3.327  14.452  0.1603  0.2367  0.1289
17063TIP3    H272605   4.214   3.265  14.574  0.7779  0.5906  0.6450
17064TIP3   OH272606   0.878   1.608   1.897 -0.2145 -0.7136  0.6192
17064TIP3    H172607   0.964   1.644   1.876 -0.1675 -0.7700  0.7150
17064TIP3    H272608   0.865   1.539   1.831 -1.0821  0.6470 -0.7130
17065TIP3   OH272609   5.091   1.448  15.447 -0.1647  0.4701 -0.1370
17065TIP3    H172610   5.015   1.431  15.501  1.0354 -2.2835  0.8828
17065TIP3    H272611   5.065   1.422  15.359 -0.8230  0.8595 -0.0559
17066TIP3   OH272612   1.808   2.489  17.069 -0.2891 -0.3886 -0.0991
17066TIP3    H172613   1.803   2.506  17.163  0.1922 -0.5717 -0.0378
17066TIP3    H272614   1.745   2.418  17.054  2.1025 -2.8647  0.6950
17067TIP3   OH272615   3.800   5.336   3.883  0.0120 -0.2812  0.2152
17067TIP3    H172616   3.792   5.277   3.959  1.6906  0.4183  0.9902
17067TIP3    H272617   3.747   5.412   3.907 -0.4451 -0.5777  0.1492
17068TIP3   OH272618   2.563   3.492  13.417 -0.7504  0.4070 -0.4263
17068TIP3    H172619   2.546   3.553  13.488  1.3490  2.0075 -1.2207
17068TIP3    H272620   2.635   3.531  13.367  0.8237 -2.7829 -0.8966
17069TIP3   OH272621   1.875   0.564  10.966 -0.1999 -0.3611 -0.1600
17069TIP3    H172622   1.957   0.530  10.929 -0.3301 -1.9563  0.9122
17069TIP3    H272623   1.815   0.489  10.964 -1.2523  0.4537  0.1608
17070TIP3   OH272624   4.194   1.348   2.751 -0.7142 -0.2697  0.0878
17070TIP3    H172625   4.120   1.322   2.696 -1.7631  1.0041  0.8332
17070TIP3    H272626   4.163   1.336   2.840  0.7489 -1.7245  0.4514
17071TIP3   OH272627   2.042   3.633   2.902 -0.1082 -0.5555  0.1668
17071TIP3    H172628   2.086   3.659   2.820 -0.7900 -0.7212 -0.2565
17071TIP3    H272629   2.052   3.708   2.959  2.4258 -1.2677  0.7913
17072TIP3   OH272630   4.089   0.303   2.038 -0.2352 -0.5743  0.0726
17072TIP3    H172631   4.046   0.254   1.968 -0.2093 -0.3696 -0.0910
17072TIP3    H272632   4.019   0.322   2.101 -0.6683  0.8004 -0.7715
17073TIP3   OH272633   4.071   3.737  15.134  0.0492 -0.2313 -0.2461
17073TIP3    H172634   4.059   3.812  15.192  0.1042 -0.0918 -0.4139
17073TIP3    H272635   4.075   3.661  15.192  0.1280 -0.0901 -0.0684
17074TIP3   OH272636   2.013   5.720   5.872  0.0397  0.1651 -0.0179
17074TIP3    H172637   2.105   5.749   5.878  0.4578 -0.8654 -1.0890
17074TIP3    H272638   1.964   5.801   5.860  1.0057  0.6153 -1.2160
17075TIP3   OH272639   4.750   6.387   0.532 -0.2525 -0.3750  0.2342
17075TIP3    H172640   4.667   6.340   0.535  1.6590 -4.2607 -1.0145
17075TIP3    H272641   4.813   6.327   0.571  2.1208  2.2403  0.7384
17076TIP3   OH272642   4.080   5.077   2.825  1.3537  0.0218  0.0352
17076TIP3    H172643   4.063   4.983   2.816 -0.8008  0.1330  1.9205
17076TIP3    H272644   4.120   5.086   2.911 -0.0260  0.9355  0.6189
17077TIP3   OH272645   0.307   3.901  15.644 -0.1059 -0.2788 -0.4023
17077TIP3    H172646   0.333   3.812  15.668 -0.3223 -0.3925 -0.5991
17077TIP3    H272647   0.281   3.895  15.553 -1.4632 -0.2948 -0.0274
17078TIP3   OH272648   0.319   3.733  14.558 -0.0234 -0.1661  0.3317
17078TIP3    H172649   0.399   3.741  14.506  0.4272 -0.2165  1.0015
17078TIP3    H272650   0.251   3.712  14.494  0.5548 -0.4296 -0.2097
17079TIP3   OH272651   1.733   4.314  14.858 -0.1509  0.1819 -0.2221
17079TIP3    H172652   1.779   4.375  14.916 -1.9185  0.0127  1.4410
17079TIP3    H272653   1.713   4.239  14.913 -3.3342  0.7045 -0.5022
17080TIP3   OH272654   6.177   1.675   0.267 -0.3437  0.3073 -0.4981
17080TIP3    H172655   6.171   1.743   0.199  0.4416  1.6406  0.7012
17080TIP3    H272656   6.116   1.704   0.334 -0.0299 -0.1924  0.0074
17081TIP3   OH272657   0.140   6.205  15.522  0.5189  0.3332  0.2138
17081TIP3    H172658   0.173   6.188  15.610  0.5605 -1.3656 -0.1022
17081TIP3    H272659   0.209   6.173  15.464 -2.0465 -4.9619 -0.5237
17082TIP3   OH272660   3.722   1.798  12.303 -0.0881  0.5046 -0.6206
17082TIP3    H172661   3.652   1.801  12.369 -2.0673  0.9706 -2.5909
17082TIP3    H272662   3.777   1.725  12.329 -1.4840 -0.0811  0.8813
17083TIP3   OH272663   5.377   5.792   0.041  0.1296  0.3274 -0.1645
17083TIP3    H172664   5.350   5.712   0.087 -0.2576  0.0615 -0.8351
17083TIP3    H272665   5.322   5.860   0.078 -1.1464 -0.1262 -1.1771
17084TIP3   OH272666   0.482   4.279  16.831 -0.2757 -0.2789 -0.5785
17084TIP3    H172667   0.562   4.257  16.879  1.1521  0.9936 -2.2560
17084TIP3    H272668   0.459   4.200  16.783 -0.1468 -0.6947  0.0311
17085TIP3   OH272669   4.261   0.851  17.178  0.8550  0.4139  0.1040
17085TIP3    H172670   4.311   0.861  17.258  3.0049 -2.8603 -0.6389
17085TIP3    H272671   4.295   0.919  17.119 -0.9461  3.0332  1.8765
17086TIP3   OH272672   4.049   4.822  16.665  0.0229  0.0678 -0.7358
17086TIP3    H172673   4.029   4.856  16.753  4.3262  0.1508  0.4489
17086TIP3    H272674   4.054   4.901  16.610 -1.8580  0.0881 -0.9412
17087TIP3   OH272675   2.259   4.162  11.764  0.4531  0.0593  0.2550
17087TIP3    H172676   2.172   4.125  11.773  0.1774  0.3998 -0.8589
17087TIP3    H272677   2.269   4.179  11.670  2.8425 -2.6745 -0.1078
17088TIP3   OH272678   2.406   0.620  11.552  0.6519  0.2378 -0.2740
17088TIP3    H172679   2.326   0.618  11.499  0.0200 -1.0740  0.6635
17088TIP3    H272680   2.466   0.675  11.502 -0.1764 -0.3092 -1.9666
17089TIP3   OH272681   5.557   2.440   4.575 -0.2239  0.3704  0.7381
17089TIP3    H172682   5.465   2.417   4.588 -0.1020  0.4693  1.7997
17089TIP3    H272683   5.602   2.356   4.570 -0.5360  0.2560 -1.3290
17090TIP3   OH272684   2.321   6.774  11.793 -0.8119  0.0122 -0.2844
17090TIP3    H172685   2.253   6.804  11.733 -1.0296  0.5250  0.2033
17090TIP3    H272686   2.322   6.840  11.862  1.0110  0.6631 -0.8837
17091TIP3   OH272687   6.021   0.834   0.861  0.1999 -0.6161 -0.8400
17091TIP3    H172688   5.932   0.850   0.893  0.8914  0.8726  0.4636
17091TIP3    H272689   6.077   0.856   0.935  1.7469  0.4411 -2.2688
17092TIP3   OH272690   0.904   0.717   0.157 -0.1640  0.0890 -0.9498
17092TIP3    H172691   0.852   0.796   0.173 -0.7117 -0.7054  1.6799
17092TIP3    H272692   0.841   0.646   0.164  0.7916 -0.7402 -0.6030
17093TIP3   OH272693   0.307   0.188  14.871 -0.2917 -0.2254  0.0871
17093TIP3    H172694   0.361   0.154  14.942 -1.9249 -2.0401  0.5653
17093TIP3    H272695   0.341   0.145  14.792  0.7835  0.8929 -0.0761
17094TIP3   OH272696   0.804   0.737  13.999 -0.2745 -0.5720 -0.7378
17094TIP3    H172697   0.857   0.665  13.964 -0.9495 -0.9929 -0.9140
17094TIP3    H272698   0.868   0.797  14.037  0.4005 -0.6032 -1.7839
17095TIP3   OH272699   4.688   1.701  13.144  0.1653  0.2970  0.3556
17095TIP3    H172700   4.667   1.697  13.237 -0.3659 -1.6669  0.1934
17095TIP3    H272701   4.695   1.795  13.125  0.6075  0.7374  2.4196
17096TIP3   OH272702   6.235   3.504  10.420 -0.0989  0.6756  0.2661
17096TIP3    H172703   6.179   3.476  10.347 -1.3177 -1.1512  1.8082
17096TIP3    H272704   6.241   3.599  10.411 -3.2507  0.9364 -0.1673
17097TIP3   OH272705   3.402   1.328   3.595  0.5649 -0.0000 -0.2891
17097TIP3    H172706   3.346   1.256   3.624  0.4702  1.2468  3.0630
17097TIP3    H272707   3.341   1.395   3.565  0.4687 -0.1399 -0.4037
17098TIP3   OH272708   0.951   1.851  13.172 -0.3697  0.0006  0.3977
17098TIP3    H172709   1.035   1.829  13.211 -0.3049  0.8825  0.7554
17098TIP3    H272710   0.961   1.940  13.138 -0.4534 -0.6739 -1.5559
17099TIP3   OH272711   0.979   2.661  10.895  0.6365  0.1965 -0.0036
17099TIP3    H172712   0.927   2.695  10.968  0.9480 -1.3605  1.0079
17099TIP3    H272713   0.943   2.703  10.817 -1.3635  0.0418  0.7874
17100TIP3   OH272714   0.250   2.446  13.607 -0.0984 -0.2098 -0.2929
17100TIP3    H172715   0.313   2.391  13.560  0.0794  0.2692 -0.6227
17100TIP3    H272716   0.164   2.415  13.577  0.0227  0.4681 -1.3868
17101TIP3   OH272717   3.033   4.748  15.414  0.2697 -0.0308 -0.4152
17101TIP3    H172718   2.957   4.743  15.473 -1.5792 -0.3401 -2.6757
17101TIP3    H272719   3.026   4.835  15.374  0.4605 -0.4706 -1.4330
17102TIP3   OH272720   4.821   0.146  14.668 -0.3257 -0.7441  0.0823
17102TIP3    H172721   4.903   0.191  14.650  0.2266 -1.6703  0.2411
17102TIP3    H272722   4.835   0.057  14.637 -2.3827 -0.1769 -2.9489
17103TIP3   OH272723   5.843   5.418   3.734 -0.0391  0.7245 -0.0406
17103TIP3    H172724   5.766   5.473   3.718  0.5381  1.5027 -0.1922
17103TIP3    H272725   5.893   5.465   3.800  1.7831  1.7632 -2.0361
17104TIP3   OH272726   3.195   4.579  11.068 -0.1374  0.3023 -0.0337
17104TIP3    H172727   3.235   4.560  10.983  1.0599  0.2847  0.5187
17104TIP3    H272728   3.102   4.593  11.048  0.5259  2.9730 -1.7698
17105TIP3   OH272729   4.445   5.823  11.146 -0.0166 -0.5672  0.2519
17105TIP3    H172730   4.473   5.914  11.134 -2.6463  0.4415  0.9334
17105TIP3    H272731   4.520   5.779  11.187  1.5227  1.1259 -0.6092
17106TIP3   OH272732   1.473   1.656  16.998  0.0346  0.0145 -0.3309
17106TIP3    H172733   1.547   1.685  16.944 -0.6719  1.7158 -0.4562
17106TIP3    H272734   1.413   1.614  16.937  0.5524 -0.7262 -0.3472
17107TIP3   OH272735   4.792   0.642  15.117  0.1523 -0.0551  0.8571
17107TIP3    H172736   4.876   0.654  15.072  1.0785 -2.0726  1.9007
17107TIP3    H272737   4.750   0.569  15.070 -2.0472  2.2081 -0.9599
17108TIP3   OH272738   1.828   2.948  12.351  0.4087 -0.6215 -0.0420
17108TIP3    H172739   1.826   2.864  12.395  1.2012 -0.1846  0.8677
17108TIP3    H272740   1.790   3.010  12.414  0.4163 -0.1950 -0.4486
17109TIP3   OH272741   2.173   6.729   3.506  0.3029 -0.5684  0.0870
17109TIP3    H172742   2.212   6.796   3.562  0.7927 -0.5275 -0.2913
17109TIP3    H272743   2.097   6.698   3.554  0.0681  0.2694  0.2633
17110TIP3   OH272744   6.552   2.790  16.628  0.6575 -0.1687  0.4771
17110TIP3    H172745   6.616   2.861  16.622  0.8058 -0.1781  1.6970
17110TIP3    H272746   6.603   2.713  16.652  0.4214 -0.5783 -0.3010
17111TIP3   OH272747   6.700   1.608   5.995  0.4676 -0.5143  0.1108
17111TIP3    H172748   6.683   1.548   6.067  0.5475 -1.8449 -0.9364
17111TIP3    H272749   6.792   1.633   6.005  0.1713  0.2300  1.1079
17112TIP3   OH272750   3.060   3.583  13.201  0.6896 -0.0991 -0.5852
17112TIP3    H172751   3.096   3.569  13.114  1.3928 -0.8012 -0.1946
17112TIP3    H272752   3.123   3.541  13.260 -0.6505 -1.2083  0.1351
17113TIP3   OH272753   2.187   5.897  14.611  0.5414  0.0693 -0.0088
17113TIP3    H172754   2.174   5.965  14.677  1.2267  0.5252 -0.3288
17113TIP3    H272755   2.135   5.927  14.536  0.7031  0.1597 -0.0864
17114TIP3   OH272756   6.636   2.552  13.972  0.1752  0.4000 -0.6359
17114TIP3    H172757   6.624   2.628  14.029 -1.2952 -0.0118 -0.3462
17114TIP3    H272758   6.727   2.525  13.986 -0.3279 -0.1432  2.1234
17115TIP3   OH272759   1.250   2.673   1.460  0.0316 -0.4709  0.3730
17115TIP3    H172760   1.251   2.608   1.389  0.1772  0.1757 -0.2375
17115TIP3    H272761   1.172   2.653   1.510 -2.4632  1.5499 -2.3647
17116TIP3   OH272762   3.936   1.691   1.684 -0.0813  0.2324  0.0134
17116TIP3    H172763   3.992   1.639   1.741 -0.1563 -2.1205 -1.9301
17116TIP3    H272764   3.852   1.646   1.685 -0.3750  0.7186 -1.1510
17117TIP3   OH272765   5.896   3.260   5.451 -0.2034 -0.7879  0.1820
17117TIP3    H172766   5.808   3.227   5.469 -0.5783 -0.2906 -0.6398
17117TIP3    H272767   5.938   3.268   5.536 -1.3957  0.1655  0.6980
17118TIP3   OH272768   4.879   1.720  15.387  0.7255 -0.1814 -0.2728
17118TIP3    H172769   4.933   1.714  15.309  0.9301 -0.5502 -0.1030
17118TIP3    H272770   4.847   1.811  15.387  0.7271 -0.1807 -0.7773
17119TIP3   OH272771   6.652   0.529   4.750 -0.4232  0.0601 -0.5197
17119TIP3    H172772   6.592   0.552   4.678  0.0748  0.9414 -0.6582
17119TIP3    H272773   6.734   0.505   4.706 -0.2186  0.2831 -0.2582
17120TIP3   OH272774   5.196   0.914   1.491 -0.1991 -0.1258  0.5531
17120TIP3    H172775   5.280   0.888   1.453  0.1663  0.6156  0.8383
17120TIP3    H272776   5.216   0.990   1.545 -0.3091 -2.1671  3.7656
17121TIP3   OH272777   4.923   4.038   0.357 -0.1075 -0.5808 -0.3710
17121TIP3    H172778   4.922   4.100   0.285  0.5664  0.8715  0.8118
17121TIP3    H272779   4.842   3.987   0.347  0.0950 -0.5748 -2.2392
17122TIP3   OH272780   2.270   6.670   2.092 -0.0312 -0.1743  0.1890
17122TIP3    H172781   2.247   6.722   2.015  1.8810 -0.7553 -0.8316
17122TIP3    H272782   2.288   6.735   2.160 -0.4456  0.4024 -0.2471
17123TIP3   OH272783   1.688   5.823  14.657  0.1922  0.0042  0.3942
17123TIP3    H172784   1.672   5.728  14.651  1.0205 -0.1664  0.6562
17123TIP3    H272785   1.612   5.863  14.617  0.7164 -0.8124 -1.5105
17124TIP3   OH272786   4.380   0.965  14.673 -0.2773 -0.2727  0.0532
17124TIP3    H172787   4.285   0.963  14.666 -0.4863  0.9962  1.8580
17124TIP3    H272788   4.398   0.965  14.767  1.5186 -0.6158 -0.2408
17125TIP3   OH272789   2.856   6.336  16.970  0.2675  0.2585 -0.2259
17125TIP3    H172790   2.899   6.419  16.951  0.7946 -0.0924 -0.6045
17125TIP3    H272791   2.888   6.277  16.902 -0.3734 -0.1632 -0.1687
17126TIP3   OH272792   5.672   5.642   3.725  0.0564 -0.3040 -0.0358
17126TIP3    H172793   5.603   5.700   3.757  1.3017  1.7035 -0.8398
17126TIP3    H272794   5.750   5.697   3.719  1.6255 -2.3391  0.2455
17127TIP3   OH272795   5.152   5.374  12.552  0.1648  0.5328  0.1585
17127TIP3    H172796   5.070   5.345  12.590  1.5563 -0.5956  2.5499
17127TIP3    H272797   5.178   5.301  12.495  1.4007 -1.1044  2.6034
17128TIP3   OH272798   5.677   0.012  11.005  0.0017  0.1692 -0.2389
17128TIP3    H172799   5.764   0.026  10.968 -0.3259  1.1620 -0.6578
17128TIP3    H272800   5.690  -0.057  11.071  0.6232 -1.5948 -2.0884
17129TIP3   OH272801   2.990   0.455   4.282  0.4398  0.3072 -0.0239
17129TIP3    H172802   3.045   0.425   4.209  0.2309 -0.1005 -0.0186
17129TIP3    H272803   2.904   0.416   4.264  0.0250  1.3048 -0.2732
17130TIP3   OH272804   5.351   1.387  10.920  0.1995  0.0237  0.8102
17130TIP3    H172805   5.372   1.474  10.886  0.9648 -1.2871 -2.4221
17130TIP3    H272806   5.259   1.374  10.899  0.2712 -0.2164  0.6401
17131TIP3   OH272807   3.607   5.927   1.865  0.7621  0.1097 -0.6157
17131TIP3    H172808   3.621   5.895   1.954 -0.2741 -0.4456 -0.6261
17131TIP3    H272809   3.558   5.856   1.823 -0.5892  1.2236 -0.9892
17132TIP3   OH272810   4.408   6.472   2.805 -0.0248 -0.3395 -0.3105
17132TIP3    H172811   4.412   6.516   2.719  1.9070 -2.4481 -1.4134
17132TIP3    H272812   4.434   6.382   2.787 -0.7423 -1.1735  2.3574
17133TIP3   OH272813   2.210   6.548  17.096  0.1788 -0.0179 -0.1151
17133TIP3    H172814   2.228   6.495  17.173  0.2112 -0.6361 -0.5428
17133TIP3    H272815   2.297   6.569  17.061  0.1377 -0.7716 -0.6771
17134TIP3   OH272816   1.998   4.496  16.580 -0.2497  0.7184 -0.1823
17134TIP3    H172817   1.916   4.514  16.534 -0.3150 -0.4104 -0.5366
17134TIP3    H272818   2.059   4.562  16.547 -0.7628  0.9804 -0.6212
17135TIP3   OH272819   0.868   4.279   2.552  0.3836  0.0358 -0.1104
17135TIP3    H172820   0.790   4.264   2.604  0.1446  0.7300 -0.2698
17135TIP3    H272821   0.893   4.191   2.521 -0.7848 -0.1015 -0.7117
17136TIP3   OH272822   2.099   4.552   4.190  0.4859  0.1734 -0.0907
17136TIP3    H172823   2.084   4.487   4.259 -1.1425  0.3600 -0.2401
17136TIP3    H272824   2.080   4.636   4.232  0.5818  0.3784 -0.4594
17137TIP3   OH272825   6.509   0.231   4.405 -0.1591 -0.2399  0.4831
17137TIP3    H172826   6.577   0.174   4.443 -1.1296 -2.5705 -1.0520
17137TIP3    H272827   6.435   0.223   4.465  0.9294  2.6534  2.3996
17138TIP3   OH272828   0.506   0.277  15.768  0.3826  0.7564  0.7022
17138TIP3    H172829   0.475   0.257  15.679  0.5278  1.6986  0.4341
17138TIP3    H272830   0.431   0.319  15.810  0.5112  0.8501  0.8351
17139TIP3   OH272831   6.068   5.933   3.448  0.0754 -0.0612  0.0302
17139TIP3    H172832   6.157   5.943   3.481  0.3402 -1.9353  0.0010
17139TIP3    H272833   6.032   6.021   3.450  2.4866  1.0772 -1.5852
17140TIP3   OH272834   5.429   2.156  11.942 -0.3022 -0.3586  0.1179
17140TIP3    H172835   5.350   2.150  11.995  0.2257 -0.3852  0.9033
17140TIP3    H272836   5.501   2.163  12.005  0.0864  3.4211 -0.5225
17141TIP3   OH272837   3.359   4.111  14.520  0.2018  0.2847 -0.5618
17141TIP3    H172838   3.296   4.099  14.449 -0.9451 -0.4596  0.5412
17141TIP3    H272839   3.439   4.142  14.476 -0.3920 -0.3672 -2.1865
17142TIP3   OH272840   3.380   4.041   4.056 -0.1704 -0.4965 -0.2964
17142TIP3    H172841   3.457   4.067   4.005  0.1544  0.4063  0.6351
17142TIP3    H272842   3.308   4.089   4.016 -0.1948 -0.9982 -0.8833
17143TIP3   OH272843   5.462   0.827   5.063  0.2307 -0.4434  0.4445
17143TIP3    H172844   5.460   0.788   5.150  0.6289 -0.9256  0.2382
17143TIP3    H272845   5.400   0.900   5.068 -0.4357 -1.0344  0.8586
17144TIP3   OH272846   5.742   4.433   6.065  0.0506  0.5843  0.4992
17144TIP3    H172847   5.684   4.371   6.108  1.7642 -1.0284  0.6269
17144TIP3    H272848   5.793   4.471   6.136 -0.8466  2.0458  0.3990
17145TIP3   OH272849   4.554   1.549  16.631  0.9719 -0.6597  0.3436
17145TIP3    H172850   4.511   1.467  16.609 -0.8608 -0.2784  2.1643
17145TIP3    H272851   4.622   1.524  16.694  1.6095 -0.9535 -0.4482
17146TIP3   OH272852   2.617   0.700   2.183 -0.0447 -0.0442  0.3184
17146TIP3    H172853   2.595   0.776   2.129 -0.1172 -0.7602 -0.6954
17146TIP3    H272854   2.647   0.634   2.120 -0.4489 -1.0253  1.1283
17147TIP3   OH272855   2.918   5.043  16.214  0.2394  0.1215 -0.0608
17147TIP3    H172856   3.009   5.021  16.195  0.1174  0.7904 -1.5736
17147TIP3    H272857   2.916   5.139  16.215 -0.6277  0.1246 -1.0554
17148TIP3   OH272858   1.726   1.121  14.918 -0.2466 -0.4302  0.2975
17148TIP3    H172859   1.680   1.091  14.840  0.0057  0.0499 -0.0425
17148TIP3    H272860   1.813   1.082  14.912  0.3396  0.9333 -0.5358
17149TIP3   OH272861   3.365   2.700  16.638 -0.2013  0.1201 -0.1590
17149TIP3    H172862   3.359   2.700  16.733  0.4930 -2.2807 -0.0565
17149TIP3    H272863   3.361   2.608  16.613  3.5785  0.3180 -2.1893
17150TIP3   OH272864   4.142   2.293   3.100 -0.0335  0.0766 -0.2533
17150TIP3    H172865   4.113   2.313   3.011  0.2945 -0.3183 -0.4514
17150TIP3    H272866   4.089   2.217   3.126 -1.3520  1.2080  0.5346
17151TIP3   OH272867   1.016   2.183   3.335  0.0724 -0.4554  0.1559
17151TIP3    H172868   0.925   2.205   3.318 -0.1325 -1.9363 -0.8077
17151TIP3    H272869   1.064   2.265   3.319 -1.1295  0.5572  1.4639
17152TIP3   OH272870   3.805   5.360   5.873  0.6010 -0.0549 -0.0046
17152TIP3    H172871   3.757   5.393   5.797  0.5507 -0.3111 -0.0860
17152TIP3    H272872   3.788   5.424   5.942  1.2702  0.5775 -0.4232
17153TIP3   OH272873   5.216   5.384  14.819  0.4380  0.2442  0.3553
17153TIP3    H172874   5.210   5.395  14.914 -0.5082 -1.7455  0.5947
17153TIP3    H272875   5.310   5.384  14.801  0.6161  1.3300  1.1780
17154TIP3   OH272876   5.989   0.015  15.220 -0.8410 -0.1171  0.5877
17154TIP3    H172877   6.079   0.045  15.217 -1.0782  0.5712  0.1855
17154TIP3    H272878   5.937   0.092  15.198 -1.4840 -0.7018  0.0032
17155TIP3   OH272879   1.558   1.538  11.953 -0.2156  0.0791 -0.5042
17155TIP3    H172880   1.618   1.465  11.940  1.4217  1.2647  0.0012
17155TIP3    H272881   1.602   1.595  12.016 -1.2501  1.6911 -1.1453
17156TIP3   OH272882   0.041   1.012  11.557  0.0807  0.3256  0.3439
17156TIP3    H172883   0.104   1.039  11.490 -0.7252  1.9045  0.1866
17156TIP3    H272884  -0.027   0.965  11.509  1.5860 -2.3365  0.6434
17157TIP3   OH272885   1.971   3.852   5.410  0.2201 -0.4274 -0.5657
17157TIP3    H172886   1.972   3.757   5.409  1.5744 -0.4700  0.8018
17157TIP3    H272887   2.036   3.876   5.476 -0.1161  1.4460 -0.8535
17158TIP3   OH272888   5.536   0.329  16.674  0.0940  0.7023 -0.7113
17158TIP3    H172889   5.530   0.403  16.614 -1.0172 -0.5946 -2.3006
17158TIP3    H272890   5.458   0.277  16.655  0.6709 -0.7063  0.5850
17159TIP3   OH272891   1.210   6.282   5.066 -0.0324 -0.3192 -0.2204
17159TIP3    H172892   1.131   6.258   5.114  0.0464 -0.3165 -0.0906
17159TIP3    H272893   1.239   6.201   5.026  0.6093 -0.5809  0.7616
17160TIP3   OH272894   6.549   0.545  12.594 -0.9466 -0.0102 -0.0991
17160TIP3    H172895   6.644   0.551  12.605 -0.7055 -2.6453 -0.0083
17160TIP3    H272896   6.536   0.547  12.499 -0.5606 -1.5292 -0.2131
17161TIP3   OH272897   6.455   6.341   1.607  0.1307 -0.0546  0.2937
17161TIP3    H172898   6.383   6.292   1.567 -0.7335  2.0603 -0.8876
17161TIP3    H272899   6.523   6.342   1.539  1.3777 -2.0668  1.4116
17162TIP3   OH272900   4.617   5.885   3.970  0.5679 -0.1244 -0.2574
17162TIP3    H172901   4.642   5.795   3.952  2.5920  0.0864  1.1568
17162TIP3    H272902   4.688   5.920   4.024 -0.0937  2.3622 -0.8428
17163TIP3   OH272903   5.714   5.455  15.922  0.3958 -0.1108 -0.2003
17163TIP3    H172904   5.647   5.425  15.861 -0.8094  0.3333  0.8581
17163TIP3    H272905   5.794   5.458  15.870 -0.2742 -1.2206 -1.3493
17164TIP3   OH272906   5.784   1.636   4.975  0.6654 -0.1567 -0.8866
17164TIP3    H172907   5.735   1.609   5.053 -0.8121 -1.3550 -2.1565
17164TIP3    H272908   5.773   1.731   4.971  0.7265 -0.0799  0.3230
17165TIP3   OH272909   2.531   1.388  15.520 -0.0137 -0.8316 -0.3920
17165TIP3    H172910   2.477   1.454  15.564  0.5736  0.4424 -1.5256
17165TIP3    H272911   2.621   1.419  15.531  0.1991 -0.8561 -1.8378
17166TIP3   OH272912   1.524   3.235   1.267  0.3229 -0.1032 -0.2633
17166TIP3    H172913   1.586   3.274   1.206  0.7336  1.2741  0.9670
17166TIP3    H272914   1.580   3.193   1.333 -0.0995 -0.8612 -0.3764
17167TIP3   OH272915   2.321   1.786  14.172  0.1003  0.0990 -0.2424
17167TIP3    H172916   2.242   1.772  14.225  0.7013 -1.5297  0.3005
17167TIP3    H272917   2.355   1.871  14.201 -0.4441 -0.0450  0.8800
17168TIP3   OH272918   1.514   5.582   1.892  0.0234  0.2421 -0.5162
17168TIP3    H172919   1.496   5.618   1.806 -0.0147  0.4143 -0.4358
17168TIP3    H272920   1.482   5.648   1.953 -0.6651 -0.2182 -0.3612
17169TIP3   OH272921   2.601   2.005   3.292 -0.8588  0.3621 -0.3674
17169TIP3    H172922   2.558   1.922   3.311  0.5025 -0.4624 -0.7125
17169TIP3    H272923   2.541   2.072   3.324 -0.6924 -0.8078  2.7027
17170TIP3   OH272924   6.416   1.258  11.582  0.6146  0.0574  0.0606
17170TIP3    H172925   6.502   1.239  11.544  0.3434 -0.0386 -0.5015
17170TIP3    H272926   6.435   1.323  11.650  1.3497 -1.1171  1.0385
17171TIP3   OH272927   0.672   1.042  13.027 -0.7402 -0.1068 -0.1741
17171TIP3    H172928   0.724   0.976  13.073 -0.6993  0.2294  0.2681
17171TIP3    H272929   0.737   1.101  12.989 -0.7924  0.2079  0.2210
17172TIP3   OH272930   3.783   0.938   1.922  0.4904  0.0293 -0.2059
17172TIP3    H172931   3.728   0.998   1.872 -0.5463 -1.3417 -0.7883
17172TIP3    H272932   3.815   0.875   1.858  2.2737  0.4140  0.2413
17173TIP3   OH272933   5.600   2.732   5.605 -0.8445  0.4584  1.2199
17173TIP3    H172934   5.579   2.644   5.573  0.4357  0.7722 -0.6790
17173TIP3    H272935   5.572   2.732   5.696 -0.3346 -2.1077  1.4527
17174TIP3   OH272936   2.527   3.568   1.298  0.3792  0.0148  0.3529
17174TIP3    H172937   2.562   3.657   1.304 -2.6127  1.4092 -1.1098
17174TIP3    H272938   2.459   3.564   1.365 -0.4481 -0.6629 -0.4962
17175TIP3   OH272939   0.210   5.962   2.919  0.2438  0.4019  0.0344
17175TIP3    H172940   0.259   5.887   2.953 -1.0694 -0.5303 -0.0612
17175TIP3    H272941   0.273   6.009   2.864  0.6290 -1.5944 -1.3341
17176TIP3   OH272942   0.730   2.201   3.285  0.0447  0.1181  0.0851
17176TIP3    H172943   0.760   2.118   3.249  0.2767  0.3818 -0.3296
17176TIP3    H272944   0.694   2.248   3.210  0.4844  0.6502  0.2076
17177TIP3   OH272945   3.006   2.575   4.383  0.0162 -0.0618 -0.3866
17177TIP3    H172946   2.975   2.650   4.433  1.1202 -0.7846  1.4970
17177TIP3    H272947   3.005   2.502   4.445  5.2621 -0.2094 -0.0091
17178TIP3   OH272948   1.245   4.941  11.569  0.0313 -0.2241  0.0812
17178TIP3    H172949   1.199   4.921  11.488 -1.4315  1.0412  0.5520
17178TIP3    H272950   1.317   4.998  11.542  1.7847 -2.6461 -0.7303
17179TIP3   OH272951   1.523   3.014  14.967  0.3790 -0.0923  0.5864
17179TIP3    H172952   1.462   3.017  15.042 -1.0000 -2.8404 -0.2874
17179TIP3    H272953   1.607   2.990  15.006 -0.3224 -1.5047  1.3221
17180TIP3   OH272954   3.149   3.368   1.695  0.0337 -0.4151 -0.3861
17180TIP3    H172955   3.195   3.340   1.616 -0.9184  1.4076 -1.6717
17180TIP3    H272956   3.173   3.460   1.705 -0.8860 -0.2726  0.7044
17181TIP3   OH272957   4.334   0.481   3.104 -0.1923  0.0862 -0.0897
17181TIP3    H172958   4.315   0.573   3.124 -1.7871  0.6463 -3.4481
17181TIP3    H272959   4.389   0.485   3.026  0.2976 -1.8588  0.1148
17182TIP3   OH272960   4.370   2.033  16.570 -0.5678 -0.5733  0.1212
17182TIP3    H172961   4.460   2.043  16.540 -0.5536 -1.8733 -0.3437
17182TIP3    H272962   4.321   2.099  16.522 -0.1942 -1.2398 -1.2069
17183TIP3   OH272963   6.067   3.733   3.208 -0.0912  0.0453 -0.4542
17183TIP3    H172964   6.094   3.715   3.299 -1.9999  0.7169  0.2957
17183TIP3    H272965   6.014   3.658   3.183 -0.1398  0.1800 -0.7566
17184TIP3   OH272966   2.308   3.283   5.762 -0.5488  0.0916  0.5725
17184TIP3    H172967   2.295   3.286   5.667  1.1646  0.0161  0.3162
17184TIP3    H272968   2.386   3.335   5.778 -0.0026 -1.0236  1.7784
17185TIP3   OH272969   5.989   3.995   5.874 -0.0995  0.5303 -0.1491
17185TIP3    H172970   5.993   3.944   5.955 -0.8001  0.5105 -0.1226
17185TIP3    H272971   5.939   4.073   5.897 -0.3045  0.5219 -0.5633
17186TIP3   OH272972   1.138   1.339   2.478  0.0982 -0.4866  0.0231
17186TIP3    H172973   1.108   1.429   2.473  0.9580 -0.1858  0.1677
17186TIP3    H272974   1.060   1.289   2.499 -0.7293  0.0042 -1.7319
17187TIP3   OH272975   2.736   6.646   3.054 -0.4627  0.2723  0.3842
17187TIP3    H172976   2.815   6.600   3.026 -1.3191 -1.8895  1.3247
17187TIP3    H272977   2.769   6.720   3.106  0.9554 -0.5505  0.7099
17188TIP3   OH272978   2.396   0.263   2.053 -0.3424 -0.1636 -0.3984
17188TIP3    H172979   2.415   0.177   2.016 -0.0466  0.7008 -2.3825
17188TIP3    H272980   2.478   0.312   2.042 -0.0664 -0.0094  1.9698
17189TIP3   OH272981   6.697   3.597  15.384 -0.4378  0.3423  0.9961
17189TIP3    H172982   6.747   3.679  15.376  2.0599 -1.1390  0.1894
17189TIP3    H272983   6.629   3.604  15.317  0.6648  1.1641 -0.0890
17190TIP3   OH272984   2.005   3.155   5.129  0.4682 -0.3268 -0.2532
17190TIP3    H172985   2.010   3.082   5.068 -3.3989  1.2345 -2.7259
17190TIP3    H272986   1.914   3.158   5.157  0.3849  3.5602 -0.3703
17191TIP3   OH272987   5.161   3.517   4.963 -0.1786  0.2407 -0.3308
17191TIP3    H172988   5.230   3.477   4.910  1.4138  3.0779 -0.5841
17191TIP3    H272989   5.208   3.561   5.034 -1.7017  2.1211 -0.4073
17192TIP3   OH272990   6.545   4.308   6.302  0.1682 -0.0965 -0.0880
17192TIP3    H172991   6.617   4.248   6.281  0.8637  0.7682 -0.2380
17192TIP3    H272992   6.501   4.267   6.377  1.2111 -0.3336  0.4139
17193TIP3   OH272993   5.579   1.280   6.149 -0.1030 -0.6904  0.4631
17193TIP3    H172994   5.548   1.230   6.225  2.0892 -0.2002  1.7849
17193TIP3    H272995   5.674   1.271   6.153  0.1904  1.3222 -0.8649
17194TIP3   OH272996   1.919   3.622   1.684  0.4450 -0.1514 -0.0977
17194TIP3    H172997   1.892   3.705   1.723  2.0427 -0.3838  1.6840
17194TIP3    H272998   1.952   3.646   1.597  0.0564  0.9470  0.0447
17195TIP3   OH272999   4.896   0.744  14.023  0.1547 -0.0810 -0.0345
17195TIP3    H173000   4.811   0.739  13.979 -0.0099  0.3515  0.2230
17195TIP3    H273001   4.874   0.764  14.114  0.5619  0.7234 -0.1097
17196TIP3   OH273002   2.462   4.984   3.170  0.3182 -0.1420  0.0772
17196TIP3    H173003   2.525   4.913   3.158 -1.2127 -1.5398  0.0405
17196TIP3    H273004   2.378   4.948   3.141 -0.4229  1.8746 -0.5111
17197TIP3   OH273005   4.119   3.589  14.651  0.2656 -0.1629  0.0153
17197TIP3    H173006   4.154   3.677  14.664 -1.8025  0.9804 -1.5370
17197TIP3    H273007   4.194   3.537  14.623  1.3707  1.2924  0.1643
17198TIP3   OH273008   4.655   1.905  13.690 -0.1755 -0.9364 -0.1497
17198TIP3    H173009   4.651   1.810  13.691  0.3949 -0.9591  0.1164
17198TIP3    H273010   4.640   1.931  13.780  2.9428 -0.9355  0.4789
17199TIP3   OH273011   6.120   3.469  12.276  0.1026  0.0884  0.0200
17199TIP3    H173012   6.202   3.428  12.304 -0.3940 -0.8813  0.1246
17199TIP3    H273013   6.073   3.398  12.231 -1.4852  0.0770  1.5971
17200TIP3   OH273014   3.465   5.960   1.448  0.0630 -0.5193  0.1286
17200TIP3    H173015   3.390   5.954   1.389  1.1046 -0.6545 -1.2315
17200TIP3    H273016   3.521   5.886   1.422  1.1165  0.1553  0.4545
17201TIP3   OH273017   1.704   1.773   6.632  0.4231  0.0593  0.1500
17201TIP3    H173018   1.633   1.713   6.609 -0.5356  1.2857 -0.2179
17201TIP3    H273019   1.670   1.860   6.609  1.9884  0.6976  0.1193
17202TIP3   OH273020   6.660   2.181  13.182 -0.0347 -0.2253 -0.2090
17202TIP3    H173021   6.644   2.225  13.266  1.6075  0.4595 -0.2264
17202TIP3    H273022   6.744   2.214  13.153  0.2799 -1.8239 -1.2625
17203TIP3   OH273023   4.511   1.866  12.792  0.4155 -0.2571  0.1172
17203TIP3    H173024   4.510   1.792  12.853  0.0794 -0.4984 -0.1735
17203TIP3    H273025   4.462   1.935  12.836 -0.6099 -0.7312 -0.2346
17204TIP3   OH273026   3.813   5.370  14.447 -0.0672 -0.2289  0.3515
17204TIP3    H173027   3.907   5.380  14.465 -0.3270 -1.6765  3.1384
17204TIP3    H273028   3.781   5.318  14.521 -3.1669  0.5989 -0.3070
17205TIP3   OH273029   4.793   6.533  12.502 -0.9871  1.0889  0.6372
17205TIP3    H173030   4.805   6.470  12.430  2.1383  1.6093  0.5474
17205TIP3    H273031   4.784   6.478  12.580 -0.6231  0.5041  0.2820
17206TIP3   OH273032   0.564   2.923   2.546 -0.4365 -0.2554  0.3183
17206TIP3    H173033   0.586   2.838   2.584 -0.1853  0.2110  1.2434
17206TIP3    H273034   0.483   2.949   2.589 -0.1956  0.2404  0.4868
17207TIP3   OH273035   4.865   5.055   5.154 -0.2548 -0.3840  0.5088
17207TIP3    H173036   4.781   5.055   5.200  0.8188 -1.1069  2.5913
17207TIP3    H273037   4.902   4.968   5.171  1.6566  0.4871  1.1642
17208TIP3   OH273038   0.600   6.747   0.748 -0.2751 -0.9430 -0.0156
17208TIP3    H173039   0.593   6.838   0.718 -0.9559 -0.8371  0.4375
17208TIP3    H273040   0.514   6.728   0.787 -0.3742 -1.9933 -0.6880
17209TIP3   OH273041   5.081   0.414   4.830 -0.5845  0.2631  0.2370
17209TIP3    H173042   5.035   0.495   4.850  1.5234  1.2753  1.1572
17209TIP3    H273043   5.013   0.346   4.838 -2.3209  1.8466 -0.2806
17210TIP3   OH273044   6.141   3.292  10.598  0.6997 -0.6049 -0.4239
17210TIP3    H173045   6.169   3.364  10.541  1.7111 -1.3769 -0.9249
17210TIP3    H273046   6.050   3.275  10.571  0.7824 -0.1938 -0.9978
17211TIP3   OH273047   6.489   3.338  11.588 -0.7829  0.3776  0.2117
17211TIP3    H173048   6.571   3.332  11.637 -0.1918 -0.4609 -0.8366
17211TIP3    H273049   6.516   3.355  11.498 -1.6411 -1.5630 -0.4709
17212TIP3   OH273050   0.821   0.284  10.819 -0.6096 -0.5746  0.0637
17212TIP3    H173051   0.858   0.351  10.876 -1.2108 -0.5998  0.4941
17212TIP3    H273052   0.730   0.311  10.805 -0.5742 -0.7647 -0.5799
17213TIP3   OH273053   1.177   5.785  12.613 -0.1690  0.1376  0.7136
17213TIP3    H173054   1.088   5.750  12.605 -0.0105 -0.1358  0.1330
17213TIP3    H273055   1.233   5.716  12.579  0.2225  0.5492  0.5225
17214TIP3   OH273056   3.444   5.212  15.596  0.1342  0.7072  0.3236
17214TIP3    H173057   3.469   5.282  15.536  2.6151  0.2188  0.6628
17214TIP3    H273058   3.363   5.243  15.638 -1.1645  1.4494 -2.5287
17215TIP3   OH273059   0.985   5.915  15.766 -0.5169 -0.0063 -0.5029
17215TIP3    H173060   1.029   5.903  15.850  0.5924 -0.7262 -1.1548
17215TIP3    H273061   0.968   6.009  15.760 -0.5773  0.0547  0.4986
17216TIP3   OH273062   5.329   4.593   5.293 -0.3676 -0.5433 -0.7969
17216TIP3    H173063   5.408   4.547   5.264 -0.6332 -0.0935 -2.3028
17216TIP3    H273064   5.300   4.544   5.370  1.5013 -0.5674 -0.0681
17217TIP3   OH273065   2.173   3.857   0.740 -0.0882  0.4658 -0.1308
17217TIP3    H173066   2.242   3.842   0.676  1.6182  0.5855  1.5861
17217TIP3    H273067   2.127   3.773   0.747  1.0548 -0.1580 -0.0037
17218TIP3   OH273068   3.095   1.186   3.452  0.4020  0.4363  0.7000
17218TIP3    H173069   3.144   1.223   3.526 -0.7668 -0.2107  1.8390
17218TIP3    H273070   3.123   1.094   3.449  0.8016  0.5736  0.0141
17219TIP3   OH273071   5.950   1.301  12.550 -0.6206 -0.2004 -0.2336
17219TIP3    H173072   5.875   1.358  12.564 -0.6059  0.0910 -1.2535
17219TIP3    H273073   6.018   1.359  12.516 -0.4719 -0.7516 -0.8924
17220TIP3   OH273074   1.528   3.517   0.920 -0.5340 -0.4774 -0.4641
17220TIP3    H173075   1.580   3.525   0.840 -0.4506 -2.9145 -0.7277
17220TIP3    H273076   1.461   3.451   0.899 -1.1009 -0.4810  1.1854
17221TIP3   OH273077   4.498   1.279  16.588 -0.0834 -0.5905  0.2470
17221TIP3    H173078   4.437   1.219  16.545  0.5600 -1.3497  0.3670
17221TIP3    H273079   4.578   1.273  16.536  0.2724 -0.5110  0.7806
17222TIP3   OH273080   5.377   6.764   1.484  0.0211  1.0899 -0.0945
17222TIP3    H173081   5.398   6.699   1.551  2.7617 -0.0864 -1.9113
17222TIP3    H273082   5.443   6.833   1.495  0.8670  0.6116 -1.8601
17223TIP3   OH273083   0.124   2.099   2.371  0.2982  0.3161  0.0737
17223TIP3    H173084   0.184   2.075   2.442 -0.6330  0.1598  0.8418
17223TIP3    H273085   0.170   2.166   2.322  1.3858 -0.3034  0.2121
17224TIP3   OH273086   5.197   4.182  15.694 -0.7023 -0.2129 -0.1700
17224TIP3    H173087   5.215   4.276  15.685 -2.1584  0.1947  0.8199
17224TIP3    H273088   5.110   4.171  15.655 -0.0984 -1.3659 -1.2557
17225TIP3   OH273089   5.363   4.925   5.652  0.3086 -0.8153 -0.4967
17225TIP3    H173090   5.299   4.976   5.601  0.1984  0.2568  0.6584
17225TIP3    H273091   5.417   4.882   5.586 -0.8088 -0.7275 -1.5075
17226TIP3   OH273092   3.399   0.249   1.036 -0.2047  0.5803  0.1799
17226TIP3    H173093   3.412   0.344   1.031  0.1238  0.4954 -1.4255
17226TIP3    H273094   3.345   0.228   0.959  0.0006 -0.5618  0.3242
17227TIP3   OH273095   6.563   4.684   0.485 -0.6029  0.4168 -0.0565
17227TIP3    H173096   6.621   4.624   0.532 -0.1974 -0.9466 -2.1584
17227TIP3    H273097   6.619   4.757   0.461 -0.6820  0.8570  1.0143
17228TIP3   OH273098   5.102   6.069  15.059 -0.6551 -0.2676 -0.3261
17228TIP3    H173099   5.072   6.127  14.989  2.0387 -0.0822 -1.4507
17228TIP3    H273100   5.188   6.103  15.084  0.7994 -3.3338 -0.6075
17229TIP3   OH273101   5.348   1.409  12.075 -0.5756  0.2453  0.5670
17229TIP3    H173102   5.435   1.372  12.092 -0.0578  1.3046  0.2657
17229TIP3    H273103   5.319   1.442  12.160  0.7870  2.9299  0.1041
17230TIP3   OH273104   5.268   3.780  15.363 -0.2989  0.6409 -0.0491
17230TIP3    H173105   5.259   3.813  15.453  2.3577  0.5755  0.3151
17230TIP3    H273106   5.354   3.737  15.362 -0.6219 -0.0803 -2.4204
17231TIP3   OH273107   5.812   3.883  13.067  0.4053  0.2109 -0.2121
17231TIP3    H173108   5.847   3.942  13.000  1.2856  1.6517  1.4243
17231TIP3    H273109   5.886   3.867  13.126 -0.4483 -0.6229  0.6658
17232TIP3   OH273110   0.518   2.150   4.736  0.0746  0.2895  0.3702
17232TIP3    H173111   0.610   2.173   4.722  0.1761  0.1406  0.7893
17232TIP3    H273112   0.504   2.164   4.829  0.3041 -1.9445  0.7890
17233TIP3   OH273113   3.360   2.436   1.599  0.1397 -0.3160 -0.0232
17233TIP3    H173114   3.307   2.416   1.677 -1.3653 -1.4119 -1.2600
17233TIP3    H273115   3.309   2.503   1.553  0.7945  0.0010 -0.2881
17234TIP3   OH273116   2.333   4.749   0.614 -0.2989  0.1214 -0.0023
17234TIP3    H173117   2.344   4.770   0.707 -1.7568 -0.1009  0.2400
17234TIP3    H273118   2.421   4.755   0.578  0.6606 -1.8560  1.8011
17235TIP3   OH273119   0.198   4.260  13.184  0.3598  0.1747  0.2062
17235TIP3    H173120   0.242   4.345  13.189  1.0503 -0.1374 -0.4251
17235TIP3    H273121   0.131   4.264  13.253  1.4851  0.5800  1.3057
17236TIP3   OH273122   6.278   4.168   3.340  0.5580  0.5341 -0.2471
17236TIP3    H173123   6.324   4.252   3.331  1.3152 -0.0165 -2.0290
17236TIP3    H273124   6.342   4.103   3.312 -0.2620 -0.5745  0.3987
17237TIP3   OH273125   3.609   2.776   4.613 -0.4192 -0.4610 -0.9031
17237TIP3    H173126   3.550   2.761   4.540 -0.8800 -1.6271 -0.3239
17237TIP3    H273127   3.697   2.762   4.577 -0.5821 -0.0933 -1.4450
17238TIP3   OH273128   0.463   6.438  12.038  0.1990  0.2443  0.3432
17238TIP3    H173129   0.521   6.397  11.974 -0.1557 -0.2284  0.3258
17238TIP3    H273130   0.426   6.365  12.087 -1.7102  0.4050 -0.7641
17239TIP3   OH273131   5.026   2.952   5.373 -0.4467 -0.4614 -0.0854
17239TIP3    H173132   4.988   2.987   5.292 -1.4883  2.5445  1.5451
17239TIP3    H273133   5.107   2.911   5.345  0.3337  2.3545 -2.5087
17240TIP3   OH273134   4.531   5.021   1.241 -0.0781 -0.0392  0.1999
17240TIP3    H173135   4.545   4.965   1.317 -0.2924 -0.3089  0.0415
17240TIP3    H273136   4.508   5.106   1.278  0.8454  0.1129  0.4499
17241TIP3   OH273137   1.317   4.016  12.764  0.5467 -0.0754 -0.2843
17241TIP3    H173138   1.269   3.968  12.696  1.1299 -0.7803 -0.2095
17241TIP3    H273139   1.317   3.957  12.840 -1.3516  1.2829  0.8525
17242TIP3   OH273140   0.152   2.193   5.494  0.0086 -0.0188 -0.1642
17242TIP3    H173141   0.142   2.287   5.508  0.0769 -0.0335 -0.0244
17242TIP3    H273142   0.080   2.171   5.434  0.3433  0.2284 -0.6664
17243TIP3   OH273143   6.007   1.194   2.689 -0.0610 -0.0514  0.1342
17243TIP3    H173144   5.956   1.251   2.632 -1.6827 -0.4623  1.0916
17243TIP3    H273145   6.067   1.147   2.630 -1.1314  0.0975 -1.1209
17244TIP3   OH273146   5.898   0.338   2.149  0.7506 -0.4605  0.0816
17244TIP3    H173147   5.948   0.420   2.155  0.0990 -0.0102 -0.5704
17244TIP3    H273148   5.866   0.324   2.238 -0.2107  0.6900 -0.0592
17245TIP3   OH273149   3.511   6.184  13.861  0.0900  0.2855 -0.1658
17245TIP3    H173150   3.533   6.277  13.850  0.7245  0.3242  1.2353
17245TIP3    H273151   3.424   6.185  13.901  0.2816  0.3027  0.2609
17246TIP3   OH273152   6.491   2.938   0.411 -0.4625  0.1770 -0.1669
17246TIP3    H173153   6.408   2.967   0.449  0.6949  0.7716  2.0997
17246TIP3    H273154   6.515   2.861   0.463  0.1438 -0.3211 -1.1604
17247TIP3   OH273155   5.431   2.567  15.427 -0.4709  0.1111  0.3589
17247TIP3    H173156   5.356   2.602  15.380 -0.9732 -1.2790  0.0672
17247TIP3    H273157   5.507   2.606  15.384 -1.0121  1.7515  0.8390
17248TIP3   OH273158   2.862   6.093  15.736 -0.0444  0.3193  0.2023
17248TIP3    H173159   2.861   6.101  15.641  1.2490 -1.5651 -0.0095
17248TIP3    H273160   2.769   6.093  15.761 -0.3962  0.9824 -1.0201
17249TIP3   OH273161   2.984   3.935   0.796  0.5492 -0.2913  0.7433
17249TIP3    H173162   3.013   3.954   0.886 -0.1414  1.6633  0.5913
17249TIP3    H273163   2.953   3.845   0.800  2.4227 -0.9436  1.9630
17250TIP3   OH273164   3.995   5.235   5.602 -0.3676  0.2645 -0.5775
17250TIP3    H173165   3.991   5.200   5.691  1.7609  0.8739 -0.1695
17250TIP3    H273166   3.922   5.297   5.598 -1.6129 -1.1083  0.0927
17251TIP3   OH273167   3.333   2.181   3.789  0.0896  0.3287 -0.3214
17251TIP3    H173168   3.387   2.114   3.746 -2.0782 -1.1383 -0.9071
17251TIP3    H273169   3.350   2.261   3.738  0.3525 -0.5148 -1.6057
17252TIP3   OH273170   5.699   0.081  14.567  0.4706 -0.4953 -0.8447
17252TIP3    H173171   5.608   0.071  14.539  0.3534 -0.4211 -0.4987
17252TIP3    H273172   5.695   0.144  14.639  0.8686 -0.0272 -1.2252
17253TIP3   OH273173   3.073   1.378   2.724 -0.5351 -0.7747  0.1003
17253TIP3    H173174   3.029   1.293   2.721 -0.0760 -0.9793 -2.0786
17253TIP3    H273175   3.016   1.437   2.675 -0.9418  0.2878  1.7343
17254TIP3   OH273176   2.237   3.879  11.901  0.3279  0.5573 -0.3759
17254TIP3    H173177   2.322   3.841  11.924  0.3503  0.1944 -1.0210
17254TIP3    H273178   2.219   3.942  11.971  0.7409  0.0496  0.1965
17255TIP3   OH273179   3.925   1.960  16.382 -0.0732  0.3206 -0.2067
17255TIP3    H173180   4.006   1.926  16.418  0.0941 -0.0742 -0.9320
17255TIP3    H273181   3.935   1.951  16.287 -0.2909  1.7778 -0.3996
17256TIP3   OH273182   4.613   3.404   5.214  0.0835  0.2338  0.2461
17256TIP3    H173183   4.622   3.479   5.155  1.8997 -0.3472 -0.2781
17256TIP3    H273184   4.695   3.357   5.205 -0.8256 -1.5601  0.9527
17257TIP3   OH273185   4.747   5.358   3.384  0.2653 -0.1750 -0.2955
17257TIP3    H173186   4.796   5.408   3.450  3.2072 -0.6715 -1.9202
17257TIP3    H273187   4.680   5.419   3.353 -0.1634  0.6033  1.9502
17258TIP3   OH273188   6.016   4.562  13.016  0.3486 -0.3406 -0.1642
17258TIP3    H173189   5.988   4.644  13.057 -0.5273 -0.7360  0.0499
17258TIP3    H273190   6.057   4.513  13.086 -1.3693 -1.1202  0.3502
17259TIP3   OH273191   6.030   5.996   3.859 -0.2220 -0.1627  0.0077
17259TIP3    H173192   6.076   5.940   3.921  0.0933  0.4148  0.2995
17259TIP3    H273193   6.099   6.034   3.805 -0.4996 -0.7795 -0.8109
17260TIP3   OH273194   1.559   2.434  15.251  0.3128  0.2023  0.3622
17260TIP3    H173195   1.483   2.382  15.278  0.2108  0.3237  0.3131
17260TIP3    H273196   1.589   2.477  15.331  0.3339  0.1470  0.3836
17261TIP3   OH273197   3.188   5.335  13.380 -0.0357 -0.0415  0.0810
17261TIP3    H173198   3.107   5.289  13.358 -0.1652  0.6067 -0.8617
17261TIP3    H273199   3.247   5.315  13.307 -0.2206  1.5716 -0.5411
17262TIP3   OH273200   2.013   4.277   4.043 -0.2087  0.3650  0.0162
17262TIP3    H173201   2.086   4.299   4.101  0.5072 -0.6604 -0.4681
17262TIP3    H273202   2.047   4.293   3.955 -0.8662  0.7058 -0.1813
17263TIP3   OH273203   0.737   4.442  16.435  0.0103 -0.5858  0.3843
17263TIP3    H173204   0.832   4.440  16.436  0.0620  0.6187 -0.4003
17263TIP3    H273205   0.712   4.370  16.377  0.4569 -0.5895  0.1921
17264TIP3   OH273206   2.435   6.592  11.010 -0.0307 -0.6905 -0.5884
17264TIP3    H173207   2.531   6.585  11.011  0.0491  0.1478  0.9416
17264TIP3    H273208   2.408   6.553  11.094 -1.0283 -0.8676 -0.9858
17265TIP3   OH273209   4.530   2.291   3.569 -0.4498 -0.3599 -0.0412
17265TIP3    H173210   4.540   2.308   3.475 -2.1458 -1.9715 -0.5768
17265TIP3    H273211   4.583   2.213   3.584  0.1933  0.1651  0.4699
17266TIP3   OH273212   2.624   3.243   0.313 -0.4190 -0.0391 -0.5203
17266TIP3    H173213   2.622   3.176   0.381  0.2800 -0.8042 -1.2324
17266TIP3    H273214   2.601   3.324   0.358  0.1009 -0.5144  0.6379
17267TIP3   OH273215   0.972   6.008  14.941  0.1153  0.3448  0.6787
17267TIP3    H173216   1.067   6.015  14.940  0.0869  0.8614 -0.4824
17267TIP3    H273217   0.942   6.091  14.904 -0.6233 -1.3942 -3.0616
17268TIP3   OH273218   5.613   3.397   4.549 -0.0235 -0.2770  0.3394
17268TIP3    H173219   5.689   3.355   4.589  0.3311  0.1041  0.0783
17268TIP3    H273220   5.580   3.333   4.486  0.1261 -0.4114  0.3972
17269TIP3   OH273221   4.941   0.831   1.979  0.0396 -0.3510 -0.1026
17269TIP3    H173222   4.920   0.837   2.072  3.0835 -2.2373  0.8601
17269TIP3    H273223   4.920   0.740   1.955 -0.4460  0.0311 -1.2281
17270TIP3   OH273224   6.090   2.775  13.585 -0.2015  0.1057 -0.0955
17270TIP3    H173225   6.166   2.765  13.527 -0.7565 -1.5309 -0.5911
17270TIP3    H273226   6.091   2.696  13.640 -1.7840 -0.1734 -0.4334
17271TIP3   OH273227   3.145   5.465  13.063 -0.0726 -0.1760 -0.7948
17271TIP3    H173228   3.057   5.481  13.098  0.0874 -0.3413 -0.3083
17271TIP3    H273229   3.195   5.542  13.088  0.6234 -1.2359  1.3065
17272TIP3   OH273230   2.338   1.487   2.160 -0.3169  0.6140  0.1635
17272TIP3    H173231   2.428   1.458   2.142 -0.2136 -0.6474  2.3233
17272TIP3    H273232   2.288   1.461   2.083  0.8326 -0.3886 -0.2735
17273TIP3   OH273233   0.245   2.839   1.981  0.6485 -0.1794  0.7504
17273TIP3    H173234   0.194   2.920   1.973  1.3103  0.3235  1.4870
17273TIP3    H273235   0.333   2.868   2.005  1.5756 -0.9519 -1.3905
17274TIP3   OH273236   0.026   4.343   1.555 -0.0581 -0.1673 -0.4128
17274TIP3    H173237   0.020   4.334   1.460  1.1540 -0.1350 -0.5208
17274TIP3    H273238   0.036   4.437   1.570  0.8975 -0.2588 -0.3647
17275TIP3   OH273239   1.610   1.939  17.031 -0.1177 -0.2717 -0.0443
17275TIP3    H173240   1.656   1.924  16.948 -1.3939  0.1801 -0.8652
17275TIP3    H273241   1.527   1.893  17.021 -1.5672  2.1852 -0.2497
17276TIP3   OH273242   3.225   0.344  14.586 -0.4961  0.1017 -0.0718
17276TIP3    H173243   3.233   0.295  14.668 -1.0217 -1.4123 -0.8849
17276TIP3    H273244   3.308   0.392  14.580  0.4662 -1.4129  0.3354
17277TIP3   OH273245   4.485   0.384  14.127 -0.0577  0.0078  0.1887
17277TIP3    H173246   4.516   0.346  14.209  0.8831 -2.4308 -1.1758
17277TIP3    H273247   4.563   0.424  14.088  0.3179 -1.6780 -0.9200
17278TIP3   OH273248   5.166   3.568  10.407  0.8881  0.4989 -0.5791
17278TIP3    H173249   5.210   3.516  10.475 -0.6107  0.2812  0.2558
17278TIP3    H273250   5.234   3.627  10.376  1.4554  1.1367  1.6525
17279TIP3   OH273251   2.269   5.549  13.206  0.1178 -0.2954  0.4307
17279TIP3    H173252   2.206   5.492  13.251 -0.1348  0.9662  1.7540
17279TIP3    H273253   2.352   5.502  13.212 -0.2973 -1.0353  0.4941
17280TIP3   OH273254   4.266   2.228   3.497 -0.3490 -0.3869  0.9126
17280TIP3    H173255   4.357   2.256   3.501 -0.2609 -0.7731  2.1557
17280TIP3    H273256   4.264   2.162   3.428  0.2581 -0.1933  0.7013
17281TIP3   OH273257   0.921   3.222  16.408  0.6446  0.1152  0.5370
17281TIP3    H173258   0.973   3.189  16.482  1.5651 -0.4322 -0.3365
17281TIP3    H273259   0.839   3.173  16.413  0.7474 -0.0118  1.1172
17282TIP3   OH273260   3.117   4.030   6.366  0.2730 -0.0349 -0.1504
17282TIP3    H173261   3.165   4.084   6.428  0.4026  0.9041 -1.0511
17282TIP3    H273262   3.025   4.041   6.390  0.2852  0.7414 -0.4513
17283TIP3   OH273263   3.181   0.678   0.104  0.1870  0.2927  0.0027
17283TIP3    H173264   3.109   0.615   0.094  0.8337 -0.3086 -0.9815
17283TIP3    H273265   3.257   0.624   0.129  0.1663  1.0002  1.7928
17284TIP3   OH273266   3.373   1.459  16.816  0.2581 -0.1729 -0.3091
17284TIP3    H173267   3.418   1.397  16.874 -1.0851 -1.5102 -0.6533
17284TIP3    H273268   3.432   1.470  16.742  2.2782  1.9923  1.4383
17285TIP3   OH273269   2.787   5.449   3.210  0.0439  0.4650 -0.7690
17285TIP3    H173270   2.837   5.421   3.134  1.8991 -0.6815  0.8055
17285TIP3    H273271   2.701   5.408   3.199  1.2064 -2.0756 -0.8421
17286TIP3   OH273272   6.628   5.812  10.868  0.0458  0.2734  0.6155
17286TIP3    H173273   6.682   5.868  10.923 -1.6329  2.1958  0.4568
17286TIP3    H273274   6.563   5.872  10.830  0.0756 -1.2334 -2.1185
17287TIP3   OH273275   2.991   0.997  16.732 -0.4974 -0.1611 -0.5648
17287TIP3    H173276   2.938   0.918  16.735 -0.7952  0.0231 -0.8342
17287TIP3    H273277   3.058   0.985  16.799 -1.8340  0.2817  0.9181
17288TIP3   OH273278   0.875   5.436  16.918 -0.3245  0.1516 -0.1943
17288TIP3    H173279   0.912   5.443  16.830  1.6147 -1.3600  0.4233
17288TIP3    H273280   0.856   5.526  16.943  0.7040  0.7778 -1.5229
17289TIP3   OH273281   5.518   4.403  10.740 -0.0651  0.3522 -0.0601
17289TIP3    H173282   5.474   4.388  10.656 -0.5637 -0.4765  0.3352
17289TIP3    H273283   5.604   4.362  10.729  0.6948  2.0441 -0.8615
17290TIP3   OH273284   3.586   0.072   0.953 -0.4347  0.0310 -0.0947
17290TIP3    H173285   3.535   0.143   0.991  0.0753 -0.0533  0.7475
17290TIP3    H273286   3.644   0.115   0.890  0.4937  0.4811  1.0383
17291TIP3   OH273287   5.356   2.091  15.573  0.0373  0.0345 -0.6756
17291TIP3    H173288   5.383   2.122  15.659  0.0781  0.3817 -0.8091
17291TIP3    H273289   5.391   2.157  15.512 -1.5586  0.7749 -0.8270
17292TIP3   OH273290   6.046   2.816   0.538 -0.0508  0.0030 -0.0124
17292TIP3    H173291   5.977   2.767   0.494  1.3145  0.0814 -2.3787
17292TIP3    H273292   6.116   2.751   0.553 -0.2488  0.1135  1.5781
17293TIP3   OH273293   0.097   1.371  14.664 -0.2031  0.5014 -0.1871
17293TIP3    H173294   0.128   1.456  14.696  1.6257 -0.0729 -0.3361
17293TIP3    H273295   0.129   1.308  14.728  1.8988 -0.4631 -2.0623
17294TIP3   OH273296   6.267   0.459  15.710 -0.0732  0.0672  0.9240
17294TIP3    H173297   6.231   0.449  15.622  0.8399 -1.1234  0.6524
17294TIP3    H273298   6.348   0.509  15.698  1.2002 -1.9099  0.7296
17295TIP3   OH273299   4.319   4.116  15.255 -0.3937 -0.3680 -0.6740
17295TIP3    H173300   4.366   4.155  15.329 -0.6199 -1.0520 -0.1496
17295TIP3    H273301   4.376   4.130  15.180  0.7638 -1.3291 -0.0217
17296TIP3   OH273302   5.081   2.142   5.718 -0.1006  0.7046  0.0144
17296TIP3    H173303   5.090   2.203   5.791 -0.6708  2.0998 -1.0531
17296TIP3    H273304   4.991   2.110   5.725 -0.0972  0.6974  0.0264
17297TIP3   OH273305   4.492   5.830   0.220  0.2571 -0.3437  0.3431
17297TIP3    H173306   4.477   5.783   0.138  0.7761  1.6556 -0.9599
17297TIP3    H273307   4.551   5.773   0.270  1.6777 -0.6737 -1.5900
17298TIP3   OH273308   5.424   6.344  14.143  0.7897 -0.5274 -0.3171
17298TIP3    H173309   5.460   6.417  14.193  0.6971 -1.6280  1.4678
17298TIP3    H273310   5.490   6.325  14.076  0.8536  1.0967 -0.7386
17299TIP3   OH273311   1.851   0.659  14.987 -0.6721  0.2488 -0.0421
17299TIP3    H173312   1.809   0.670  15.073  0.1129  3.1369  0.0574
17299TIP3    H273313   1.945   0.659  15.006 -0.5046 -1.3566 -0.7283
17300TIP3   OH273314   1.077   0.952   3.383 -0.1951  0.1875  0.5179
17300TIP3    H173315   1.165   0.983   3.362 -0.4067 -0.7404 -2.0879
17300TIP3    H273316   1.091   0.868   3.426  0.2543 -0.7105 -1.2564
17301TIP3   OH273317   2.060   5.081   4.207 -0.2911  0.5882  0.6194
17301TIP3    H173318   2.053   5.044   4.295 -0.0780  2.0718  1.2985
17301TIP3    H273319   2.140   5.135   4.210  0.6551 -0.6318 -1.0006
17302TIP3   OH273320   0.784   1.449   4.860  1.0077  1.1284 -0.3968
17302TIP3    H173321   0.745   1.371   4.821  0.8898  0.8624  0.2425
17302TIP3    H273322   0.751   1.522   4.807  1.8168  0.6803 -1.5457
17303TIP3   OH273323   5.995   0.495  11.281  0.0594 -0.2185  0.9748
17303TIP3    H173324   5.971   0.559  11.215 -1.3558 -0.7512  0.9488
17303TIP3    H273325   6.084   0.521  11.308 -0.0276  1.0385  0.1427
17304TIP3   OH273326   6.153   4.718   1.848  0.5237 -0.4235  0.1498
17304TIP3    H173327   6.207   4.675   1.782  0.2282 -1.4671  0.5674
17304TIP3    H273328   6.214   4.740   1.918  1.0197  1.5457 -0.8233
17305TIP3   OH273329   4.787   4.386  11.426 -0.0350 -0.0899 -0.2254
17305TIP3    H173330   4.731   4.458  11.454 -1.2325 -1.1092  0.0673
17305TIP3    H273331   4.874   4.425  11.420  0.2473  0.4570  4.1525
17306TIP3   OH273332   4.833   1.447  12.483  0.1532 -0.0006  0.1891
17306TIP3    H173333   4.820   1.431  12.576 -2.1946 -1.1908 -0.2789
17306TIP3    H273334   4.816   1.363  12.441  1.8191  0.3427 -1.3135
17307TIP3   OH273335   1.656   2.580   3.187 -0.0322 -0.1768 -0.5317
17307TIP3    H173336   1.669   2.485   3.198 -1.2076 -0.2527  0.4596
17307TIP3    H273337   1.696   2.619   3.265 -0.9642  0.0024 -0.1350
17308TIP3   OH273338   0.439   3.432  16.547  0.4807  0.4385 -0.3554
17308TIP3    H173339   0.440   3.360  16.484 -1.3044  0.1500 -0.0802
17308TIP3    H273340   0.455   3.391  16.632 -1.6155  0.1670 -0.0508
17309TIP3   OH273341   0.301   5.587  12.954  0.1309  0.2006 -0.0221
17309TIP3    H173342   0.311   5.531  13.031 -0.2889  0.4486  0.2175
17309TIP3    H273343   0.226   5.550  12.908  0.8759 -0.4465 -0.7572
17310TIP3   OH273344   2.322   1.529  11.893  0.2362 -0.3282  0.0104
17310TIP3    H173345   2.273   1.576  11.960  0.1420 -1.2009  0.5685
17310TIP3    H273346   2.343   1.596  11.828 -0.2465  0.3975  0.5778
17311TIP3   OH273347   4.047   3.611  16.449  0.3503 -1.3042 -0.1438
17311TIP3    H173348   4.034   3.700  16.483  0.3259 -0.6106 -1.8544
17311TIP3    H273349   4.124   3.578  16.496 -1.5956 -1.7493  3.0214
17312TIP3   OH273350   1.914   4.986   4.743 -0.5945 -0.5826 -0.0031
17312TIP3    H173351   1.955   5.072   4.738 -1.0355 -0.2563  1.6219
17312TIP3    H273352   1.844   4.989   4.677 -0.3335  0.1435 -0.2495
17313TIP3   OH273353   3.680   2.464   3.551 -0.2366  0.1867 -0.2958
17313TIP3    H173354   3.768   2.500   3.554 -0.2747  0.3450 -0.8786
17313TIP3    H273355   3.687   2.385   3.497 -0.3264 -0.1793  0.2187
17314TIP3   OH273356   1.717   3.962   5.362  0.0037  0.1136  0.1789
17314TIP3    H173357   1.688   3.922   5.444  2.5090 -0.3439  0.9250
17314TIP3    H273358   1.813   3.966   5.369  0.8196 -3.3030 -4.0976
17315TIP3   OH273359   1.851   5.863   0.827 -0.5384 -0.3078  0.5333
17315TIP3    H173360   1.836   5.957   0.823 -2.2884 -0.4749  2.0277
17315TIP3    H273361   1.868   5.838   0.737 -2.2839  1.1081 -0.2490
17316TIP3   OH273362   1.770   0.691   2.344 -0.1944 -0.0931  0.2201
17316TIP3    H173363   1.747   0.784   2.351  1.3566  0.3230  0.3679
17316TIP3    H273364   1.833   0.688   2.271  0.4112 -0.8797  0.7551
17317TIP3   OH273365   3.074   1.556  13.205  0.3191 -0.7578 -0.6493
17317TIP3    H173366   3.008   1.491  13.183 -0.0094 -1.3177  1.6973
17317TIP3    H273367   3.156   1.508  13.206  0.1308 -1.0807  0.6939
17318TIP3   OH273368   6.034   0.036   5.550 -0.0732  0.2195  0.2706
17318TIP3    H173369   5.948   0.058   5.585  0.5224  0.4944  1.6249
17318TIP3    H273370   6.079   0.121   5.541  0.8737 -0.0792  1.8476
17319TIP3   OH273371   2.737   1.716  16.174  0.0763 -0.6122 -0.1202
17319TIP3    H173372   2.789   1.659  16.231  0.5167 -1.2428 -1.1241
17319TIP3    H273373   2.658   1.734  16.224  0.0419 -1.9055  0.3350
17320TIP3   OH273374   5.788   0.197  15.170  0.1383 -0.3660  0.3271
17320TIP3    H173375   5.719   0.149  15.216  1.1565 -1.1234  1.0991
17320TIP3    H273376   5.741   0.251  15.107 -1.1574 -0.9414  0.7646
17321TIP3   OH273377   2.955   6.364   4.271 -0.0680  0.1191  0.4819
17321TIP3    H173378   2.888   6.389   4.334 -0.4209  1.4404 -0.3691
17321TIP3    H273379   2.910   6.306   4.209 -0.0246 -0.2076  0.7511
17322TIP3   OH273380   3.980   2.816  11.614 -0.0991 -1.2680  0.4316
17322TIP3    H173381   4.016   2.876  11.548 -1.1116  0.9945  1.8395
17322TIP3    H273382   3.892   2.797  11.584 -0.3870 -0.6276  0.8406
17323TIP3   OH273383   1.464   3.350   2.871  0.3987  0.0880  0.0880
17323TIP3    H173384   1.490   3.422   2.813  0.6153 -0.0264  0.0406
17323TIP3    H273385   1.524   3.279   2.849  1.7104  0.6281  1.7228
17324TIP3   OH273386   5.368   4.012  17.170  0.3169 -0.2462  0.2491
17324TIP3    H173387   5.336   4.079  17.109 -0.0656 -1.7263 -1.2473
17324TIP3    H273388   5.420   4.061  17.234 -2.4608  1.9190  1.0855
17325TIP3   OH273389   0.279   4.927   2.948  0.0189  0.2070 -0.0379
17325TIP3    H173390   0.327   5.008   2.929  0.3843 -0.1486 -0.6866
17325TIP3    H273391   0.189   4.956   2.961  0.1247  0.7111 -0.3754
17326TIP3   OH273392   1.608   5.680   5.660  0.1437 -0.0403 -0.1596
17326TIP3    H173393   1.688   5.641   5.626  0.2805 -0.6493  0.8258
17326TIP3    H273394   1.552   5.690   5.582  0.7713 -0.5844 -0.6971
17327TIP3   OH273395   5.591   6.063  12.309 -0.7513  0.1766 -0.2166
17327TIP3    H173396   5.574   6.053  12.215 -0.6518  1.2889 -0.3629
17327TIP3    H273397   5.533   6.133  12.337  0.2026  0.8006  0.2541
17328TIP3   OH273398   6.252   2.180  13.550  0.6950  0.2412  0.6048
17328TIP3    H173399   6.184   2.113  13.546  0.6999  0.2896 -1.9328
17328TIP3    H273400   6.327   2.140  13.507  0.7811  1.7305 -0.7092
17329TIP3   OH273401   1.375   4.342   0.956 -0.3077 -0.7137 -0.6571
17329TIP3    H173402   1.437   4.300   1.014  2.0329  1.1226 -1.6799
17329TIP3    H273403   1.379   4.291   0.875  0.5983 -0.0633 -1.0327
17330TIP3   OH273404   0.652   5.507  12.475 -1.2369 -0.1824  0.2163
17330TIP3    H173405   0.579   5.542  12.423 -1.5992 -1.2894 -0.0473
17330TIP3    H273406   0.675   5.579  12.535 -0.8922  1.0765 -1.3525
17331TIP3   OH273407   6.736   0.337  11.758 -0.2008 -0.3226 -0.7407
17331TIP3    H173408   6.815   0.284  11.751 -0.9084 -1.1904 -2.7786
17331TIP3    H273409   6.716   0.364  11.669 -0.9249  1.8703  0.0003
17332TIP3   OH273410   0.531   1.319  10.416  0.1086  0.4700  0.3121
17332TIP3    H173411   0.568   1.378  10.350  0.7273  0.6466  0.8061
17332TIP3    H273412   0.446   1.292  10.380  0.9268 -0.3441 -1.0854
17333TIP3   OH273413   1.247   4.618  14.524  0.0728 -0.2031 -0.7464
17333TIP3    H173414   1.161   4.642  14.491  0.2826 -0.6192 -1.6431
17333TIP3    H273415   1.240   4.625  14.619 -0.1531  2.3782 -0.8990
17334TIP3   OH273416   6.370   0.277   0.054 -0.2177 -0.6622  0.1755
17334TIP3    H173417   6.286   0.241   0.082 -0.1760 -1.4699 -0.7066
17334TIP3    H273418   6.412   0.207   0.005  1.2211 -0.4651  1.0553
17335TIP3   OH273419   4.881   0.794   5.564 -0.3409 -0.0628  0.3269
17335TIP3    H173420   4.870   0.749   5.648 -1.1548 -0.6456 -0.0741
17335TIP3    H273421   4.919   0.727   5.507  0.4029  0.3930  0.2840
17336TIP3   OH273422   2.461   1.574  14.363 -0.2385 -0.3075  0.1254
17336TIP3    H173423   2.506   1.586  14.279 -1.1342  0.6549 -0.2444
17336TIP3    H273424   2.377   1.534  14.340 -0.2259 -0.6324  0.6374
17337TIP3   OH273425   6.781   5.644  15.796  0.0059  0.4139 -0.0205
17337TIP3    H173426   6.866   5.687  15.796 -1.2028  2.9762  0.7268
17337TIP3    H273427   6.757   5.637  15.703  1.2508 -0.9446 -0.2806
17338TIP3   OH273428   3.637   1.776   4.780  0.2102  0.1191  0.4948
17338TIP3    H173429   3.640   1.707   4.847 -0.2002 -0.1458  0.2483
17338TIP3    H273430   3.726   1.778   4.744  0.8183  1.1977  1.9664
17339TIP3   OH273431   6.468   0.537  15.189 -0.0499  0.8183 -0.5801
17339TIP3    H173432   6.459   0.623  15.229 -0.4572  0.4369  0.1643
17339TIP3    H273433   6.495   0.555  15.099  0.4434  1.7014 -0.2662
17340TIP3   OH273434   1.435   5.730   5.028 -0.3488  0.6563 -0.4218
17340TIP3    H173435   1.357   5.785   5.032 -2.2674 -1.9553  1.5876
17340TIP3    H273436   1.418   5.668   4.958 -0.6503 -0.6193  0.7328
17341TIP3   OH273437   6.092   2.102   1.239  0.2126 -0.3498  0.4283
17341TIP3    H173438   6.129   2.154   1.167  0.4265  0.1262  0.8744
17341TIP3    H273439   6.004   2.136   1.251  0.6268  0.4865  1.2539
17342TIP3   OH273440   5.671   2.522  15.132 -0.4267 -0.1231  0.0610
17342TIP3    H173441   5.648   2.566  15.051  1.9453 -0.7362 -1.0342
17342TIP3    H273442   5.732   2.582  15.176 -0.1294 -0.6527  0.3913
17343TIP3   OH273443   3.457   2.458  12.465 -0.0628  0.0970  0.2044
17343TIP3    H173444   3.509   2.382  12.491  0.1146 -0.5471 -1.8729
17343TIP3    H273445   3.471   2.522  12.535  1.0322 -1.2003  1.2196
17344TIP3   OH273446   5.058   5.203  11.731  0.1540  0.6451  0.0850
17344TIP3    H173447   5.133   5.211  11.789  1.4017 -1.5978 -1.0825
17344TIP3    H273448   5.094   5.213  11.643 -0.5939 -1.6881 -0.5687
17345TIP3   OH273449   0.236   2.066   4.765  0.6107  0.2165 -0.0303
17345TIP3    H173450   0.297   2.138   4.752  0.7318 -0.0204 -0.8334
17345TIP3    H273451   0.201   2.080   4.853  0.1254  1.6309 -0.4177
17346TIP3   OH273452   4.493   1.037  15.197  0.7123  0.4792 -0.0250
17346TIP3    H173453   4.570   1.047  15.251  0.3975 -0.0925  0.5412
17346TIP3    H273454   4.518   0.974  15.130  1.1031  1.1910 -0.5626
17347TIP3   OH273455   3.656   4.935  14.337 -0.2558  0.1641 -0.3782
17347TIP3    H173456   3.628   4.848  14.310 -1.5657 -0.2153  1.9470
17347TIP3    H273457   3.590   4.994  14.300 -1.2525 -0.2066  0.7487
17348TIP3   OH273458   4.605   6.405   5.929 -0.4814  0.4513  0.4557
17348TIP3    H173459   4.548   6.481   5.916 -0.6681  0.2246 -0.0750
17348TIP3    H273460   4.607   6.362   5.844  1.6434  1.2603  0.0126
17349TIP3   OH273461   2.421   0.106   4.814 -0.4134  0.3052 -0.0686
17349TIP3    H173462   2.437   0.143   4.900 -1.4412  0.1891  0.1874
17349TIP3    H273463   2.417   0.012   4.828 -1.0820  0.3132 -0.1422
17350TIP3   OH273464   2.524   5.433  16.382 -0.1261  0.9404 -0.3771
17350TIP3    H173465   2.565   5.424  16.468  0.4020  2.8583 -0.3724
17350TIP3    H273466   2.530   5.346  16.342 -0.8224 -0.1143  1.6940
17351TIP3   OH273467   0.297   5.758  13.475  0.4447  0.5877 -0.0166
17351TIP3    H173468   0.276   5.819  13.545 -0.5130  1.0404 -0.6825
17351TIP3    H273469   0.285   5.672  13.514 -1.2810  0.8297  0.0505
17352TIP3   OH273470   2.230   3.842   5.839 -0.1216 -0.1571  0.0436
17352TIP3    H173471   2.208   3.873   5.752 -0.3381  0.6643  0.3830
17352TIP3    H273472   2.148   3.806   5.873  0.2217 -1.5375 -0.5049
17353TIP3   OH273473   4.369   3.319  15.845 -0.9285  0.5320  0.0240
17353TIP3    H173474   4.324   3.313  15.930  0.0863  1.9662  0.6978
17353TIP3    H273475   4.456   3.352  15.867  0.0971 -1.0900 -1.3675
17354TIP3   OH273476   6.427   5.748  16.818  0.1356 -0.1356  0.6745
17354TIP3    H173477   6.462   5.662  16.796  0.4649 -0.0367  0.8147
17354TIP3    H273478   6.403   5.786  16.733  1.1010  0.1144  0.4999
17355TIP3   OH273479   4.811   3.465   0.351  0.2801 -0.5938 -0.2790
17355TIP3    H173480   4.804   3.545   0.403  2.1470 -0.4367 -0.1832
17355TIP3    H273481   4.815   3.395   0.416  0.1402 -0.6220 -0.3014
17356TIP3   OH273482   4.975   6.392  12.676  0.3345  0.2027  0.0155
17356TIP3    H173483   4.977   6.355  12.588  0.8864 -1.3425  0.6468
17356TIP3    H273484   5.030   6.470  12.670  0.3072  0.1617 -1.0078
17357TIP3   OH273485   5.713   3.367   0.611  0.1489 -0.4142 -0.3413
17357TIP3    H173486   5.795   3.332   0.576  0.5407  0.9899 -0.9341
17357TIP3    H273487   5.731   3.461   0.623 -1.9024  0.3323 -2.2667
17358TIP3   OH273488   1.114   5.191  15.638  0.1897 -0.5569 -0.2650
17358TIP3    H173489   1.069   5.141  15.569  1.0112  0.1891 -1.3725
17358TIP3    H273490   1.056   5.184  15.714 -0.2216 -2.3251 -0.6798
17359TIP3   OH273491   6.100   1.411   1.956  0.2603 -0.0035  0.1120
17359TIP3    H173492   6.066   1.497   1.933  0.5034  0.2324  0.6301
17359TIP3    H273493   6.154   1.386   1.881 -0.2699  0.0414 -0.2885
17360TIP3   OH273494   5.088   2.359   5.920 -0.3474 -0.2424  0.0393
17360TIP3    H173495   5.091   2.446   5.880  0.8327  0.7523  2.1046
17360TIP3    H273496   5.073   2.376   6.013  0.3556 -2.2263  0.5777
17361TIP3   OH273497   4.738   2.702  12.383 -0.4019  0.2987 -0.2587
17361TIP3    H173498   4.672   2.730  12.446  0.2152 -0.9347  0.9872
17361TIP3    H273499   4.742   2.607  12.393  0.3993  0.1773 -1.4911
17362TIP3   OH273500   4.821   1.830   1.918 -0.1158  0.7170 -0.5641
17362TIP3    H173501   4.734   1.870   1.925 -0.3853  0.0440  0.0160
17362TIP3    H273502   4.836   1.822   1.824 -1.4099 -0.6943 -0.6906
17363TIP3   OH273503   2.592   3.521   5.132 -0.1260 -0.2812  0.4269
17363TIP3    H173504   2.625   3.503   5.044  1.1473 -2.0705  1.2281
17363TIP3    H273505   2.561   3.612   5.127  1.4348  0.2201 -1.4176
17364TIP3   OH273506   0.143   1.066   1.898 -0.2204 -0.0030  0.1672
17364TIP3    H173507   0.171   1.114   1.819  0.2003 -0.0606  0.2766
17364TIP3    H273508   0.126   1.134   1.963 -1.9484  0.1312 -0.3887
17365TIP3   OH273509   4.883   4.279   3.720 -0.1704 -0.3191 -0.4168
17365TIP3    H173510   4.877   4.374   3.729  0.5822 -0.3398  0.5021
17365TIP3    H273511   4.967   4.264   3.675 -0.2996 -0.5501 -0.5872
17366TIP3   OH273512   4.309   6.618   0.670 -0.3835  0.4096  0.2487
17366TIP3    H173513   4.356   6.544   0.633 -1.1219  0.8054 -1.5846
17366TIP3    H273514   4.373   6.689   0.671 -0.4362  0.4751 -0.5742
17367TIP3   OH273515   4.312   4.832   5.690  0.1168 -0.2287 -0.4816
17367TIP3    H173516   4.340   4.920   5.665 -1.5943  0.3156 -0.6197
17367TIP3    H273517   4.339   4.777   5.616  3.1096 -0.2800  0.5049
17368TIP3   OH273518   3.766   5.554   6.417 -0.2164  0.1642 -0.3464
17368TIP3    H173519   3.697   5.612   6.383 -2.2802 -2.1031 -0.3015
17368TIP3    H273520   3.817   5.530   6.340 -1.4975 -0.6254 -0.9921
17369TIP3   OH273521   5.547   1.784  14.677 -0.2935 -0.3180  0.1807
17369TIP3    H173522   5.466   1.797  14.726  0.6664  0.2620  1.6806
17369TIP3    H273523   5.565   1.869  14.636 -1.0332 -0.7695 -1.1387
17370TIP3   OH273524   5.277   5.061   2.892  0.0187  0.3811  0.2002
17370TIP3    H173525   5.208   5.096   2.948 -0.1436  0.0708  0.1956
17370TIP3    H273526   5.263   5.104   2.807 -0.4808 -0.0595  0.0563
17371TIP3   OH273527   6.320   3.470  14.919  0.6791  0.1679  0.4355
17371TIP3    H173528   6.374   3.409  14.970  2.3507  1.3685  0.1803
17371TIP3    H273529   6.255   3.502  14.981 -0.2765 -1.8781  0.5692
17372TIP3   OH273530   0.764   0.431   5.721  0.2067  0.7610 -0.0530
17372TIP3    H173531   0.762   0.390   5.634 -1.3648 -0.0650  0.3282
17372TIP3    H273532   0.705   0.506   5.713 -0.0243  0.6222  0.3194
17373TIP3   OH273533   2.167   4.135   2.643  0.2040 -0.1543  0.1835
17373TIP3    H173534   2.230   4.160   2.575  0.7958  0.7919  1.0569
17373TIP3    H273535   2.202   4.053   2.678  1.1546  0.5140  0.8705
17374TIP3   OH273536   2.929   2.794   4.544 -0.0474  0.5677  0.8529
17374TIP3    H173537   3.000   2.764   4.601 -0.3919  0.2074  1.1047
17374TIP3    H273538   2.948   2.886   4.527  0.9024  0.2789  0.2776
17375TIP3   OH273539   1.401   2.027  14.309 -0.3668 -0.6586 -0.1163
17375TIP3    H173540   1.448   2.109  14.316  0.3792 -0.7850 -2.6550
17375TIP3    H273541   1.309   2.052  14.300 -0.1101 -0.0430 -1.2081
17376TIP3   OH273542   5.247   2.629   3.863  0.4088 -0.0363 -0.5416
17376TIP3    H173543   5.304   2.565   3.906 -0.4728 -1.8041 -1.8596
17376TIP3    H273544   5.186   2.575   3.812 -2.4072  1.7268  0.7148
17377TIP3   OH273545   1.881   1.055  16.621 -0.0041  0.1943 -0.0957
17377TIP3    H173546   1.880   1.109  16.701  0.1896  1.4459 -0.9029
17377TIP3    H273547   1.970   1.064  16.588  0.3723 -1.5854  0.3376
17378TIP3   OH273548   2.014   1.312  12.582  0.2894 -0.8664 -0.0052
17378TIP3    H173549   1.957   1.249  12.537  0.3284 -1.1554  0.3514
17378TIP3    H273550   2.099   1.268  12.588  0.6719 -0.2947 -0.8712
17379TIP3   OH273551   4.879   2.704  10.768  0.0561  0.7115 -0.7187
17379TIP3    H173552   4.873   2.630  10.708  0.2061 -0.7978  1.0612
17379TIP3    H273553   4.789   2.733  10.780  0.0729  1.3713 -2.0502
17380TIP3   OH273554   1.303   4.975   2.267  0.3126  0.3793 -0.0681
17380TIP3    H173555   1.239   4.935   2.325  0.6676  0.3471  0.3058
17380TIP3    H273556   1.320   5.061   2.306  0.5954  0.3357 -0.0948
17381TIP3   OH273557   1.193   5.263   3.345  0.0261  0.0927 -0.5196
17381TIP3    H173558   1.209   5.332   3.410  1.2618 -0.8263  0.1814
17381TIP3    H273559   1.274   5.213   3.342 -0.5680 -0.8548 -1.6161
17382TIP3   OH273560   0.145   4.559  16.814 -0.3559 -0.1604 -0.4735
17382TIP3    H173561   0.051   4.572  16.825 -0.2858 -0.4632  0.4965
17382TIP3    H273562   0.175   4.638  16.769 -0.8923  0.4414  0.2162
17383TIP3   OH273563   0.488   6.725   1.220 -0.4606 -0.2644 -0.0263
17383TIP3    H173564   0.520   6.815   1.213 -1.5507  0.2826  1.4260
17383TIP3    H273565   0.404   6.726   1.174 -1.2205 -0.1070  1.3202
17384TIP3   OH273566   3.795   0.009   2.914  0.1798  0.0087 -0.0719
17384TIP3    H173567   3.790  -0.070   2.862  1.3109  0.3509 -0.7225
17384TIP3    H273568   3.877   0.002   2.962 -0.0966  0.4195  0.4811
17385TIP3   OH273569   3.196   2.843  15.896 -0.3809 -0.5739  0.2068
17385TIP3    H173570   3.116   2.814  15.939 -0.1471 -0.2563  0.8740
17385TIP3    H273571   3.190   2.939  15.896 -1.2857 -0.5644 -2.2193
17386TIP3   OH273572   5.509   1.746  12.149 -0.2791 -0.8394  0.8012
17386TIP3    H173573   5.513   1.680  12.080 -0.3038  1.4547 -1.5503
17386TIP3    H273574   5.415   1.759  12.165 -0.3259 -0.2634  0.0955
17387TIP3   OH273575   0.441   5.817  11.571  0.3043  0.2271  0.2417
17387TIP3    H173576   0.525   5.863  11.575  0.8997 -0.6431 -1.5163
17387TIP3    H273577   0.398   5.850  11.492  0.2864 -1.4438 -0.4807
17388TIP3   OH273578   5.570   3.389   1.845  0.2700 -0.5674 -0.4507
17388TIP3    H173579   5.563   3.376   1.939  0.0827 -3.1601 -0.7504
17388TIP3    H273580   5.484   3.421   1.819  0.6256  1.1203  0.3474
17389TIP3   OH273581   6.260   2.759   3.288 -0.1833  0.5952 -0.8073
17389TIP3    H173582   6.324   2.803   3.232 -0.4513  0.0333 -1.5649
17389TIP3    H273583   6.259   2.669   3.257 -0.4269  0.3021  0.0321
17390TIP3   OH273584   4.251   5.689  10.176  0.3430  0.1729 -0.4508
17390TIP3    H173585   4.288   5.607  10.206 -1.3740 -0.5481 -0.1743
17390TIP3    H273586   4.191   5.716  10.246  1.9466  2.4572  0.1418
17391TIP3   OH273587   6.624   0.777  13.489 -0.2885  0.0447  0.1603
17391TIP3    H173588   6.698   0.833  13.462 -0.2187  0.6757  1.5449
17391TIP3    H273589   6.651   0.689  13.464  0.2847  0.4377 -0.6874
17392TIP3   OH273590   5.346   5.733  14.036  0.6236  0.4475 -0.2388
17392TIP3    H173591   5.282   5.742  14.106  1.6286  2.0340  0.5287
17392TIP3    H273592   5.323   5.802  13.974  0.5681 -0.0924 -0.8400
17393TIP3   OH273593   1.218   6.715  13.955 -0.3630  0.4785 -0.4499
17393TIP3    H173594   1.151   6.673  14.009 -0.7482  1.5736 -0.0465
17393TIP3    H273595   1.215   6.668  13.871 -2.0616  0.8812 -0.6505
17394TIP3   OH273596   0.632   5.273   0.008 -0.1009  0.2268 -0.0577
17394TIP3    H173597   0.630   5.368  -0.008 -2.5554  0.4851  1.2192
17394TIP3    H273598   0.617   5.265   0.102 -0.9307 -1.4167 -0.2936
17395TIP3   OH273599   6.515   3.309   2.823  0.4847 -0.3281  0.2110
17395TIP3    H173600   6.602   3.289   2.858 -0.3140 -2.3744  1.1562
17395TIP3    H273601   6.456   3.296   2.897 -0.8689 -1.0901 -0.9592
17396TIP3   OH273602   1.905   5.576   3.752  0.8306 -0.1396  0.2278
17396TIP3    H173603   1.991   5.537   3.736  0.8028  0.0119 -0.3391
17396TIP3    H273604   1.900   5.648   3.689  0.5608  0.2773  0.7169
17397TIP3   OH273605   1.250   0.644  13.880 -0.2406 -0.3183  0.4485
17397TIP3    H173606   1.253   0.736  13.854 -0.3350 -0.3300  0.3955
17397TIP3    H273607   1.324   0.604  13.835  0.5658 -0.0178  1.4642
17398TIP3   OH273608   1.967   4.277   2.523 -0.5200  0.5995  0.0113
17398TIP3    H173609   2.029   4.207   2.547  1.5867  2.8283  1.5911
17398TIP3    H273610   1.892   4.231   2.485  2.0830 -2.3305 -2.1341
17399TIP3   OH273611   5.951   5.250   2.087 -0.2071 -0.1847 -0.5659
17399TIP3    H173612   5.887   5.278   2.022  1.7431  0.2404 -2.4112
17399TIP3    H273613   5.940   5.312   2.160  0.8466  2.6132 -2.5969
17400TIP3   OH273614   1.401   3.244   0.620 -0.0441 -0.7776 -0.0161
17400TIP3    H173615   1.356   3.328   0.631 -0.3777 -0.8249 -0.9401
17400TIP3    H273616   1.369   3.190   0.693 -0.6790 -0.4685 -0.0556
17401TIP3   OH273617   5.935   2.106   2.724 -0.1470  0.0344 -0.0863
17401TIP3    H173618   5.885   2.108   2.805 -0.6532  0.5589 -0.4021
17401TIP3    H273619   5.981   2.191   2.723 -0.7867  0.3803 -0.7376
17402TIP3   OH273620   3.275   4.232   0.461  0.1528 -0.2272  0.0852
17402TIP3    H173621   3.287   4.204   0.370 -0.3049  0.5978 -0.2384
17402TIP3    H273622   3.221   4.163   0.500  0.4773 -0.6615 -0.2218
17403TIP3   OH273623   4.473   1.722   1.153  0.4433  0.4126 -0.6382
17403TIP3    H173624   4.394   1.752   1.198  0.4707  0.0690 -0.3606
17403TIP3    H273625   4.457   1.745   1.061  0.5038  1.3547 -0.4227
17404TIP3   OH273626   4.996   2.471  13.022  0.3104 -0.4961  0.4580
17404TIP3    H173627   5.048   2.396  12.994 -0.9041 -1.8772  1.6925
17404TIP3    H273628   4.905   2.439  13.018 -0.3449  1.3009 -0.0821
17405TIP3   OH273629   1.933   4.893  15.740  0.4849 -0.3938  0.1401
17405TIP3    H173630   1.942   4.965  15.803  0.5485 -0.1562 -0.1379
17405TIP3    H273631   1.854   4.846  15.768  0.8098 -0.6128  0.7180
17406TIP3   OH273632   2.467   0.444   5.385 -0.2352  0.0857 -0.4446
17406TIP3    H173633   2.378   0.448   5.420 -0.7760  1.3256 -1.8686
17406TIP3    H273634   2.519   0.406   5.456 -1.6762  0.4010  0.8301
17407TIP3   OH273635   6.306   5.793  12.158  0.4436  0.2448 -0.1094
17407TIP3    H173636   6.361   5.749  12.094  1.0606 -1.5930  1.5708
17407TIP3    H273637   6.363   5.860  12.197  0.0867  1.3174 -1.3556
17408TIP3   OH273638   4.266   6.331   5.815 -0.3572 -0.0689  0.0939
17408TIP3    H173639   4.311   6.332   5.731 -2.0105  0.0084 -0.8506
17408TIP3    H273640   4.247   6.423   5.833 -0.8086 -0.1511  0.0705
17409TIP3   OH273641   6.665   5.516  16.098  0.7921 -0.0066 -0.1157
17409TIP3    H173642   6.669   5.609  16.119 -1.5500  0.3283 -0.8636
17409TIP3    H273643   6.755   5.485  16.110  1.1717  1.7626  2.6973
17410TIP3   OH273644   4.216   0.594   1.075 -0.3514  0.0307  0.5562
17410TIP3    H173645   4.210   0.689   1.068  0.1926 -0.0413 -1.3360
17410TIP3    H273646   4.285   0.579   1.140 -0.2864  0.9206  0.7037
17411TIP3   OH273647   6.669   2.610   2.659  0.0929  0.3779 -0.6019
17411TIP3    H173648   6.676   2.519   2.628  0.2140  0.8314 -2.0009
17411TIP3    H273649   6.574   2.627   2.660  0.1148  0.9738 -2.7867
17412TIP3   OH273650   4.426   5.902  10.789 -0.2202 -0.0160  0.4473
17412TIP3    H173651   4.505   5.852  10.772  1.2836  1.9717  1.2049
17412TIP3    H273652   4.376   5.897  10.708  1.3459 -0.1412 -0.5449
17413TIP3   OH273653   1.006   4.196   2.822 -0.2885  0.0546  0.1118
17413TIP3    H173654   0.965   4.216   2.738 -3.0213  0.7450  1.5103
17413TIP3    H273655   0.942   4.141   2.867  0.3302  1.1376  2.4109
17414TIP3   OH273656   0.983   1.955   3.814  0.1835 -0.3502  0.6055
17414TIP3    H173657   0.945   2.007   3.743  2.8062  1.1490  0.1520
17414TIP3    H273658   0.990   1.867   3.778 -0.4403 -0.0774 -0.2185
17415TIP3   OH273659   2.914   5.641   3.608  0.0489 -0.9712 -0.0626
17415TIP3    H173660   2.951   5.718   3.564  2.4213 -0.4442  2.5618
17415TIP3    H273661   2.916   5.663   3.701 -0.6447 -3.6317  0.6712
17416TIP3   OH273662   0.906   0.311   3.856 -0.5076 -0.0840 -0.9411
17416TIP3    H173663   0.986   0.348   3.895 -2.0703  1.9900  0.5633
17416TIP3    H273664   0.904   0.221   3.889  1.1118 -0.1363 -0.8769
17417TIP3   OH273665   5.791   3.742  11.380  0.1437 -0.5242  0.0441
17417TIP3    H173666   5.841   3.661  11.376 -0.2607 -0.7564 -0.4808
17417TIP3    H273667   5.701   3.715  11.362  0.3835  0.3867 -3.1910
17418TIP3   OH273668   3.380   3.896  15.830 -0.3129 -0.1247 -0.2554
17418TIP3    H173669   3.376   3.947  15.911 -1.9187 -0.2333 -0.2521
17418TIP3    H273670   3.341   3.953  15.764  0.2750 -0.3499 -0.8079
17419TIP3   OH273671   3.957   1.711   2.916 -0.3354  0.5047 -0.2610
17419TIP3    H173672   4.045   1.675   2.926 -1.1077 -2.0604 -1.7653
17419TIP3    H273673   3.924   1.719   3.006  0.9197  0.1593  0.2499
17420TIP3   OH273674   1.079   4.904  15.110 -0.4778 -0.8082  0.2019
17420TIP3    H173675   1.069   4.892  15.016  0.8767  1.2650 -0.2791
17420TIP3    H273676   1.173   4.912  15.123 -0.7554  3.1055  1.0381
17421TIP3   OH273677   0.986   6.597  14.391  0.3298 -0.8024 -0.7557
17421TIP3    H173678   0.966   6.652  14.467 -1.5688 -0.7588 -1.2441
17421TIP3    H273679   0.994   6.659  14.319  1.2926 -0.9233 -0.7725
17422TIP3   OH273680   3.944   1.155   4.826 -0.4942  0.0570  0.8187
17422TIP3    H173681   3.892   1.076   4.824 -0.9192  0.3339  0.8775
17422TIP3    H273682   3.881   1.226   4.814 -0.0054  0.3304 -0.2847
17423TIP3   OH273683   5.106   1.675  13.316  0.1853  0.7242 -0.5039
17423TIP3    H173684   5.129   1.763  13.285  0.0260  1.4271  1.2341
17423TIP3    H273685   5.180   1.649  13.371  0.4905 -0.4910 -1.4789
17424TIP3   OH273686   5.108   5.950  10.361  0.4393 -0.3411 -0.0926
17424TIP3    H173687   5.143   6.038  10.348  0.5990 -0.0621  1.8301
17424TIP3    H273688   5.013   5.961  10.352  0.3452  0.3361  1.3919
17425TIP3   OH273689   3.631   5.425   5.005  0.2433 -0.3907  0.5166
17425TIP3    H173690   3.700   5.492   5.006 -0.0245 -0.0857 -0.5488
17425TIP3    H273691   3.555   5.469   4.968 -0.4857 -0.7859  1.4912
17426TIP3   OH273692   2.907   6.513  15.957 -0.0749  0.7168  0.0799
17426TIP3    H173693   2.811   6.515  15.955 -0.1300 -0.2137  1.0002
17426TIP3    H273694   2.929   6.421  15.944  0.7364  1.0481 -0.9886
17427TIP3   OH273695   1.237   4.161   3.421  0.5071  0.5864  0.0408
17427TIP3    H173696   1.229   4.253   3.395  0.2748  0.5854  0.1038
17427TIP3    H273697   1.331   4.147   3.434  0.5347  0.8372  0.1105
17428TIP3   OH273698   0.478   2.557  13.025 -0.2644 -0.0534 -0.2887
17428TIP3    H173699   0.456   2.582  13.114  0.8248  0.4162 -0.1293
17428TIP3    H273700   0.395   2.559  12.978 -0.6652  0.9100  0.4287
17429TIP3   OH273701   3.695   6.259   1.615 -0.2007 -0.0137 -0.0213
17429TIP3    H173702   3.629   6.280   1.682  0.9756  1.2056  0.8160
17429TIP3    H273703   3.754   6.197   1.657  0.2853  0.4037 -0.0719
17430TIP3   OH273704   6.496   6.271  13.876 -0.7985 -0.1124 -0.5089
17430TIP3    H173705   6.436   6.336  13.840 -0.5054  0.3581 -0.1557
17430TIP3    H273706   6.556   6.321  13.931 -1.0026 -0.7652  0.3337
17431TIP3   OH273707   3.424   1.831   4.365 -0.0638  0.2038  0.2752
17431TIP3    H173708   3.487   1.765   4.394  0.6697  1.0312  0.6203
17431TIP3    H273709   3.474   1.888   4.306 -0.6448  0.5360  0.0878
17432TIP3   OH273710   5.084   6.250   0.340  0.5924  0.1514  0.0768
17432TIP3    H173711   5.092   6.322   0.277  0.3765  0.5402  0.4915
17432TIP3    H273712   4.997   6.213   0.323  0.6880  0.0126 -0.1105
17433TIP3   OH273713   3.047   6.202   4.678  0.2995 -0.6872 -0.2756
17433TIP3    H173714   2.954   6.180   4.681  0.2202 -0.2645  1.7317
17433TIP3    H273715   3.050   6.295   4.703  1.2417 -0.5859 -0.7162
17434TIP3   OH273716   4.246   5.615  11.440 -0.3819 -0.0337 -0.3371
17434TIP3    H173717   4.159   5.578  11.456 -0.7261  1.3519  1.2237
17434TIP3    H273718   4.231   5.682  11.374 -0.9536  1.7211  1.4907
17435TIP3   OH273719   0.639   5.917   3.384  0.5287 -0.5756  0.3537
17435TIP3    H173720   0.614   5.920   3.291  1.1594  1.6527  0.2015
17435TIP3    H273721   0.557   5.900   3.430  0.1721 -1.5238 -0.5776
17436TIP3   OH273722   4.979   6.229  17.223  0.1210  0.1308  0.1032
17436TIP3    H173723   4.926   6.218  17.144  0.1239 -1.4421  0.2980
17436TIP3    H273724   4.917   6.216  17.295  0.5658 -0.8144  0.3333
17437TIP3   OH273725   5.851   6.243   2.189 -0.4727  0.7234  0.4766
17437TIP3    H173726   5.763   6.278   2.197 -0.8580 -0.2420  0.6446
17437TIP3    H273727   5.904   6.317   2.160 -1.5461  1.0425 -0.7595
17438TIP3   OH273728   0.766   1.737  11.833 -0.4352 -0.0873  0.1282
17438TIP3    H173729   0.733   1.821  11.799 -1.2300  0.3605  1.8889
17438TIP3    H273730   0.859   1.737  11.811 -0.3847  1.3503  0.2519
17439TIP3   OH273731   3.478   0.097  11.193  0.4731 -0.0601 -0.4031
17439TIP3    H173732   3.457   0.077  11.102 -0.5077 -1.8116  0.1620
17439TIP3    H273733   3.396   0.129  11.230  0.6633 -0.1135  0.0687
17440TIP3   OH273734   0.718   4.207  16.316 -0.4446 -0.3015  0.3370
17440TIP3    H173735   0.635   4.171  16.284 -1.1524  1.0067  0.6232
17440TIP3    H273736   0.783   4.140  16.296 -1.4675 -1.0790 -0.4731
17441TIP3   OH273737   2.836   1.485  14.300  0.4724  0.0935  0.1007
17441TIP3    H173738   2.872   1.574  14.291 -0.8673  0.7489  0.9500
17441TIP3    H273739   2.847   1.464  14.393 -0.1997 -0.1906  0.1214
17442TIP3   OH273740   5.283   3.190   0.745  0.2740 -0.1107 -0.6668
17442TIP3    H173741   5.209   3.203   0.686  1.0680  2.5616 -1.2163
17442TIP3    H273742   5.250   3.214   0.831  0.5617  1.6841 -1.0026
17443TIP3   OH273743   3.040   3.019  12.781 -0.0572 -0.6791 -0.2212
17443TIP3    H173744   3.125   2.994  12.818 -0.2717 -2.8557 -1.0813
17443TIP3    H273745   2.996   2.937  12.762 -1.6284  0.3790 -1.5033
17444TIP3   OH273746   1.306   6.077   0.517  0.0266 -0.1911  1.1992
17444TIP3    H173747   1.213   6.056   0.522 -0.0719  0.4051  4.3232
17444TIP3    H273748   1.349   5.993   0.504 -0.8890 -0.6003  0.6857
17445TIP3   OH273749   4.751   4.998   6.733  0.5085  0.3065  0.0716
17445TIP3    H173750   4.722   4.943   6.660  1.3652 -0.2797  0.1492
17445TIP3    H273751   4.695   5.075   6.729 -1.2858 -0.9062  0.4416
17446TIP3   OH273752   1.897   5.907   0.163  0.9593  0.2265  0.3201
17446TIP3    H173753   1.986   5.943   0.163  0.1609  2.4230 -1.1335
17446TIP3    H273754   1.900   5.838   0.097  1.6292  0.1935  0.3748
17447TIP3   OH273755   0.666   3.664   2.195 -0.8430 -0.2620  0.6504
17447TIP3    H173756   0.614   3.734   2.156  0.2539 -0.9383 -2.2918
17447TIP3    H273757   0.650   3.588   2.138  1.3565 -1.1696  1.1629
17448TIP3   OH273758   3.320   1.814  11.777  0.2892 -0.1715  0.1123
17448TIP3    H173759   3.321   1.899  11.820  0.3048  0.8170 -1.7416
17448TIP3    H273760   3.368   1.827  11.696  0.6287 -2.0633 -0.0489
17449TIP3   OH273761   4.925   4.807   5.124 -0.2870  0.2316  0.4073
17449TIP3    H173762   4.885   4.778   5.042  0.3530  0.3082  0.0632
17449TIP3    H273763   4.989   4.739   5.145 -1.6184 -0.6901  1.7710
17450TIP3   OH273764   4.928   5.419   1.639 -0.2327  0.3443 -0.0782
17450TIP3    H173765   5.001   5.473   1.607 -0.4980  0.9928  0.3699
17450TIP3    H273766   4.965   5.332   1.649 -0.0963  0.1601 -1.9588
17451TIP3   OH273767   2.679   5.290   0.258  0.0063 -0.5975  0.2460
17451TIP3    H173768   2.708   5.223   0.320 -1.3128 -0.1519  1.3881
17451TIP3    H273769   2.583   5.291   0.267 -0.2085 -0.4051 -1.7010
17452TIP3   OH273770   4.112   4.845  13.852  0.5118 -0.5104  0.4241
17452TIP3    H173771   4.061   4.765  13.862 -0.2655 -0.0417  0.2774
17452TIP3    H273772   4.094   4.874  13.762 -0.9452  0.9691  1.1315
17453TIP3   OH273773   3.176   1.239  13.401 -0.0710 -0.4761 -0.2534
17453TIP3    H173774   3.100   1.250  13.343 -0.1613 -0.6389 -0.1671
17453TIP3    H273775   3.203   1.148  13.388  1.4286  0.1585 -1.8865
17454TIP3   OH273776   1.821   5.626   1.843  0.3119  0.4824 -0.2626
17454TIP3    H173777   1.744   5.649   1.790  1.0544  0.2955 -1.4841
17454TIP3    H273778   1.882   5.698   1.827  0.8305  0.0453 -0.2618
17455TIP3   OH273779   2.071   0.289   4.244 -0.3550  0.6644  0.3062
17455TIP3    H173780   2.038   0.215   4.296 -0.6496  0.3107 -0.3748
17455TIP3    H273781   2.059   0.365   4.301 -2.7611  0.6184 -0.0310
17456TIP3   OH273782   2.902   4.037  16.477  0.4889 -0.7776  0.2321
17456TIP3    H173783   2.898   4.004  16.387  3.0091 -0.0927 -0.1950
17456TIP3    H273784   2.866   4.126  16.471  1.9467 -0.2026 -0.4243
17457TIP3   OH273785   0.411   2.098  10.917 -0.2267  0.3609  0.2467
17457TIP3    H173786   0.488   2.149  10.890  0.7423 -0.8843  0.5354
17457TIP3    H273787   0.384   2.051  10.838 -1.5911  1.8493 -0.2174
17458TIP3   OH273788   2.677   1.718  16.970  0.1769  0.2464  0.4522
17458TIP3    H173789   2.736   1.779  16.924 -1.0668 -0.1175 -1.8072
17458TIP3    H273790   2.704   1.723  17.061  1.2512  2.9004  0.1068
17459TIP3   OH273791   3.344   5.659  13.086 -0.2022  0.1753 -0.1331
17459TIP3    H173792   3.286   5.703  13.024 -1.0042 -0.7014 -0.0234
17459TIP3    H273793   3.432   5.675  13.051 -0.6818 -1.5904 -2.4055
17460TIP3   OH273794   1.794   2.874  12.071  0.0421 -0.0993 -0.0172
17460TIP3    H173795   1.803   2.875  12.167 -0.4183  0.9255  0.0346
17460TIP3    H273796   1.747   2.793  12.052  2.9022 -1.9785  0.3064
17461TIP3   OH273797   2.854   0.332   2.796  0.3629 -0.2268  0.6538
17461TIP3    H173798   2.865   0.345   2.702 -0.1652 -2.1050  0.2905
17461TIP3    H273799   2.943   0.318   2.828  0.6670  1.4344  0.6601
17462TIP3   OH273800   2.436   2.755   2.739  0.0895  0.0968  0.2629
17462TIP3    H173801   2.454   2.661   2.730 -0.1228  0.2392 -2.6474
17462TIP3    H273802   2.374   2.761   2.812  2.0424 -1.6921  2.2270
17463TIP3   OH273803   6.459   2.360  16.513  0.1168  0.5578  0.3455
17463TIP3    H173804   6.546   2.329  16.539 -0.5435 -1.2325  0.5710
17463TIP3    H273805   6.404   2.345  16.590 -0.9372 -0.8166 -0.6134
17464TIP3   OH273806   4.597   2.372   0.389  0.6830 -0.2678  0.0819
17464TIP3    H173807   4.687   2.364   0.357  1.8443  0.2439  2.9222
17464TIP3    H273808   4.601   2.439   0.458 -1.8433 -0.3736  0.4450
17465TIP3   OH273809   5.904   0.611  12.846  0.0460 -0.4356 -0.4934
17465TIP3    H173810   5.950   0.668  12.784  1.0788  1.8438  2.1579
17465TIP3    H273811   5.811   0.633  12.835  0.1571 -0.4583 -1.5551
17466TIP3   OH273812   3.600   0.043  16.396 -0.4453 -0.1934 -0.0426
17466TIP3    H173813   3.667   0.055  16.464  0.4417 -1.3059 -0.6732
17466TIP3    H273814   3.566   0.130  16.380  1.7559  0.6446 -0.5792
17467TIP3   OH273815   5.703   3.858  15.216  0.1925  0.3299 -0.6015
17467TIP3    H173816   5.628   3.840  15.159 -0.4883 -0.0145  0.3925
17467TIP3    H273817   5.724   3.773  15.255 -1.7819  1.1710  2.5901
17468TIP3   OH273818   5.935   2.345  14.904  0.5311 -0.2959  0.0471
17468TIP3    H173819   6.013   2.378  14.948 -0.1293  0.7669  0.4507
17468TIP3    H273820   5.922   2.258  14.940  0.2686  0.3734  1.6373
17469TIP3   OH273821   3.845   3.040  15.045 -0.1072 -0.0206  0.5645
17469TIP3    H173822   3.865   2.995  14.962  3.0493  1.2855  0.4932
17469TIP3    H273823   3.814   3.126  15.018  0.4955  0.2500  0.7311
17470TIP3   OH273824   1.270   2.329  12.035 -0.2469  0.6213 -0.2133
17470TIP3    H173825   1.338   2.319  11.968 -1.4425 -0.5325 -1.3005
17470TIP3    H273826   1.291   2.412  12.079  4.2231 -1.4208  2.2178
17471TIP3   OH273827   3.289   0.959   5.161  0.2725  0.2386 -0.2309
17471TIP3    H173828   3.284   1.051   5.133  1.2603  1.4003  2.9477
17471TIP3    H273829   3.203   0.941   5.199  0.9034  0.8606  1.6348
17472TIP3   OH273830   3.110   2.041  15.828 -0.1332  0.5612 -0.5869
17472TIP3    H173831   3.122   1.950  15.799  1.6796  0.3442  0.6548
17472TIP3    H273832   3.028   2.040  15.877  0.3494 -0.6682  0.2597
17473TIP3   OH273833   5.168   4.533  17.067  0.1848  0.0027  0.1958
17473TIP3    H173834   5.228   4.479  17.119  0.9995  0.5023 -0.1964
17473TIP3    H273835   5.145   4.478  16.992 -0.4588 -0.4691  0.7264
17474TIP3   OH273836   6.289   0.518   2.993 -0.1717 -0.1081 -0.0482
17474TIP3    H173837   6.305   0.442   3.048 -2.0115  0.5514  1.5258
17474TIP3    H273838   6.274   0.590   3.054 -1.1300  0.9337 -1.4149
17475TIP3   OH273839   4.880   3.589  10.670 -0.1658  0.2537  0.4339
17475TIP3    H173840   4.834   3.654  10.617 -0.7123  0.8491  1.6016
17475TIP3    H273841   4.842   3.505  10.643 -0.3016  0.5263 -0.2364
17476TIP3   OH273842   3.360   2.704  11.011 -0.4711  0.2554 -0.0197
17476TIP3    H173843   3.341   2.641  10.942  0.9624  0.5688 -0.7494
17476TIP3    H273844   3.305   2.677  11.085 -0.9292 -0.9764 -0.7798
17477TIP3   OH273845   4.791   3.484  15.721  0.1574  0.7831  0.6548
17477TIP3    H173846   4.765   3.545  15.789 -1.7542  0.9045 -0.0934
17477TIP3    H273847   4.712   3.474  15.667  1.2430 -0.2076 -0.8428
17478TIP3   OH273848   1.591   1.523  16.160 -0.3355  0.4063 -0.1506
17478TIP3    H173849   1.635   1.539  16.244  0.2364 -0.2197 -0.3259
17478TIP3    H273850   1.599   1.605  16.112  0.8640  0.2300 -0.2713
17479TIP3   OH273851   4.263   6.375  15.095  0.0470 -0.3123  0.1513
17479TIP3    H173852   4.266   6.469  15.079  0.3045  0.1220  2.4149
17479TIP3    H273853   4.328   6.360  15.163  0.6850 -2.3117 -0.8336
17480TIP3   OH273854   5.585   0.698   4.211  0.0491  0.2819  0.0578
17480TIP3    H173855   5.655   0.653   4.258  0.7767  1.2803 -0.0365
17480TIP3    H273856   5.629   0.737   4.135 -0.6606  0.7297 -0.1304
17481TIP3   OH273857   4.428   3.446   0.647 -0.2310 -0.3758 -0.4410
17481TIP3    H173858   4.375   3.525   0.641  1.1717  0.5622 -0.9697
17481TIP3    H273859   4.424   3.408   0.559  0.5470  0.0841 -0.6762
17482TIP3   OH273860   0.078   6.571   0.749 -0.0602  0.4102  0.5191
17482TIP3    H173861   0.148   6.566   0.684  1.2977 -0.0398  1.9590
17482TIP3    H273862  -0.002   6.550   0.699  1.1460 -1.8327 -0.6636
17483TIP3   OH273863   2.414   2.678  15.091 -0.2346  0.0558 -0.2330
17483TIP3    H173864   2.416   2.662  14.997  0.1079 -0.6123 -0.1153
17483TIP3    H273865   2.369   2.763  15.100 -0.9374 -0.2251 -0.9518
17484TIP3   OH273866   1.644   3.148   2.839 -0.2450  0.1093  0.1295
17484TIP3    H173867   1.728   3.182   2.869 -0.8261  1.8160 -0.0936
17484TIP3    H273868   1.665   3.099   2.760  0.4067  1.6837 -0.7202
17485TIP3   OH273869   0.150   1.762   6.006 -0.0590 -0.1273  0.5742
17485TIP3    H173870   0.109   1.841   6.040 -0.5544 -0.3943  0.6057
17485TIP3    H273871   0.223   1.746   6.065 -1.3309 -0.9994  1.9924
17486TIP3   OH273872   4.611   5.471   2.913 -0.3309  0.1396 -0.1907
17486TIP3    H173873   4.516   5.460   2.917 -0.5763  1.7430 -0.6015
17486TIP3    H273874   4.627   5.509   2.826  0.7492 -0.5918 -0.3306
17487TIP3   OH273875   0.329   6.548  13.997  0.4483 -0.2021 -0.0938
17487TIP3    H173876   0.346   6.554  14.092 -1.2878 -1.0082  0.3035
17487TIP3    H273877   0.260   6.612  13.981  0.5097 -0.2994 -0.7571
17488TIP3   OH273878   5.157   4.718   2.514  0.8199 -0.5626 -0.3209
17488TIP3    H173879   5.242   4.756   2.537  1.3568 -1.4459 -0.7877
17488TIP3    H273880   5.134   4.664   2.590 -0.1636  1.0163  0.5402
17489TIP3   OH273881   1.978   0.992  13.156  0.0715  0.0274  0.1226
17489TIP3    H173882   2.035   1.042  13.215 -0.9349 -0.3531  1.4506
17489TIP3    H273883   1.961   1.053  13.083  1.2846  0.5250  0.2219
17490TIP3   OH273884   0.749   4.089  10.743  0.0884  0.3828 -0.1023
17490TIP3    H173885   0.654   4.085  10.748  0.0663  0.8124 -0.1835
17490TIP3    H273886   0.776   3.998  10.729 -0.3485  0.3604 -0.8182
17491TIP3   OH273887   0.755   5.962  10.660 -0.0842  0.3340  0.1785
17491TIP3    H173888   0.834   5.909  10.659 -0.4986 -0.3350  1.0114
17491TIP3    H273889   0.782   6.045  10.699  0.2774  0.2271  0.1564
17492TIP3   OH273890   6.661   2.728   2.290 -0.1492 -0.0387  0.3129
17492TIP3    H173891   6.605   2.704   2.216 -0.2501 -1.2810  0.7814
17492TIP3    H273892   6.605   2.784   2.345  0.7879  3.3807 -1.9184
17493TIP3   OH273893   3.629   0.691  16.040  0.1076 -0.3078 -0.2596
17493TIP3    H173894   3.548   0.652  16.008 -0.9490 -0.4443  2.2700
17493TIP3    H273895   3.692   0.619  16.041 -0.7929 -1.1232  1.0045
17494TIP3   OH273896   3.930   4.904   3.103  0.0751  0.7152  0.5553
17494TIP3    H173897   3.875   4.830   3.129  3.2346 -0.8703  3.4891
17494TIP3    H273898   3.955   4.885   3.013 -0.2133 -1.1369  0.8317
17495TIP3   OH273899   4.994   2.131  13.715 -0.3493  0.6613 -0.4582
17495TIP3    H173900   4.972   2.070  13.644 -0.7041  0.4183 -0.1446
17495TIP3    H273901   5.039   2.076  13.780 -2.7107  0.1927  0.8876
17496TIP3   OH273902   0.312   1.031   2.491  0.1258  0.7873  0.2564
17496TIP3    H173903   0.230   1.020   2.540 -0.8543 -0.0036 -1.4857
17496TIP3    H273904   0.379   1.039   2.559 -1.1200 -0.5711  1.7260
17497TIP3   OH273905   3.412   6.291  15.949  0.3195  0.0965  0.1455
17497TIP3    H173906   3.456   6.302  15.865 -0.9731  0.2048 -0.5401
17497TIP3    H273907   3.414   6.197  15.965  1.6782  0.1859  0.6323
17498TIP3   OH273908   4.699   6.184   3.702  0.3294 -0.2597  0.0358
17498TIP3    H173909   4.758   6.253   3.733  1.1392 -1.2624  0.8110
17498TIP3    H273910   4.689   6.200   3.608  0.2485  1.0764  0.2539
17499TIP3   OH273911   4.264   3.315   3.057 -0.2320  0.5165 -0.4073
17499TIP3    H173912   4.359   3.308   3.063  0.0025  1.5305 -2.2677
17499TIP3    H273913   4.236   3.344   3.144  1.3908  2.1759 -0.3949
17500TIP3   OH273914   2.063   5.461  11.739  0.0381 -0.4031  1.1881
17500TIP3    H173915   2.157   5.477  11.747  0.1277 -0.2824  0.1074
17500TIP3    H273916   2.024   5.548  11.746  0.1251 -0.2826  0.3109
17501TIP3   OH273917   2.985   2.040  14.857  0.4059 -0.8676  0.3427
17501TIP3    H173918   3.048   2.058  14.787 -0.5421 -0.5560 -0.4667
17501TIP3    H273919   3.037   2.003  14.928  1.6676  0.4365  0.1498
17502TIP3   OH273920   4.299   2.942   1.694 -0.4751 -0.7834 -0.3402
17502TIP3    H173921   4.233   2.879   1.725 -2.2857 -0.4654 -3.2108
17502TIP3    H273922   4.249   3.010   1.650  1.6561  1.0116 -0.1660
17503TIP3   OH273923   4.324   5.713   5.205  0.7239 -0.0294 -0.2510
17503TIP3    H173924   4.327   5.714   5.109 -1.0172  3.4176 -0.4540
17503TIP3    H273925   4.304   5.804   5.229  0.8474 -0.8036  3.4016
17504TIP3   OH273926   1.137   1.631  14.236  0.0449 -0.3350  0.8692
17504TIP3    H173927   1.210   1.579  14.202  0.6964  1.4177 -0.6001
17504TIP3    H273928   1.066   1.615  14.174  0.0433 -0.0054  0.7827
17505TIP3   OH273929   3.260   0.209  11.877 -0.0986  0.4262  0.4887
17505TIP3    H173930   3.261   0.208  11.972 -2.3278  0.7347  0.5737
17505TIP3    H273931   3.294   0.295  11.853 -0.1727  0.6073  1.0365
17506TIP3   OH273932   0.617   4.654  13.977  0.8761  0.2039  0.2543
17506TIP3    H173933   0.648   4.692  14.059  0.0231  0.0023  0.6862
17506TIP3    H273934   0.525   4.682  13.971  0.2646 -1.6106  0.4952
17507TIP3   OH273935   6.529   5.609   4.852  0.5659  0.0590  0.2859
17507TIP3    H173936   6.522   5.627   4.946  0.2814  0.7559  0.1330
17507TIP3    H273937   6.619   5.576   4.841  0.2219 -1.1789  0.9775
17508TIP3   OH273938   0.346   2.298  12.257 -0.0752  0.4186 -0.0624
17508TIP3    H173939   0.439   2.321  12.260  0.8166 -2.7496  1.0332
17508TIP3    H273940   0.340   2.231  12.189 -1.5573  0.4551 -0.0032
17509TIP3   OH273941   3.115   0.014  13.008 -0.1591  0.1418 -0.2273
17509TIP3    H173942   3.201  -0.018  12.982 -0.4814 -1.2255  0.2801
17509TIP3    H273943   3.070  -0.064  13.041 -0.1380  1.4629  3.3994
17510TIP3   OH273944   0.021   0.983  13.430 -0.1541  0.1920 -0.6354
17510TIP3    H173945   0.071   0.941  13.501 -0.4622  0.7948 -0.0510
17510TIP3    H273946  -0.010   1.066  13.468 -3.0927 -0.9148 -0.3836
17511TIP3   OH273947   0.937   5.571   0.030  0.5542  0.1748 -0.2257
17511TIP3    H173948   1.022   5.602   0.059  0.4232 -0.0444  0.3944
17511TIP3    H273949   0.928   5.607  -0.059  0.5306  1.6776  0.3523
17512TIP3   OH273950   1.453   2.643   1.818 -0.5440 -0.0506  0.6536
17512TIP3    H173951   1.386   2.580   1.843 -0.8912 -1.0434 -2.3334
17512TIP3    H273952   1.411   2.697   1.750  0.6992  1.4740  1.0279
17513TIP3   OH273953   2.672   0.682  15.538  0.1649 -0.1774 -0.1265
17513TIP3    H173954   2.763   0.665  15.513  0.5427  1.2191  0.2377
17513TIP3    H273955   2.628   0.705  15.456  0.3776  0.1257 -0.1564
17514TIP3   OH273956   6.658   2.373  16.196 -0.1445  0.7896 -1.5128
17514TIP3    H173957   6.589   2.407  16.139  0.3050  0.7091 -2.1105
17514TIP3    H273958   6.736   2.422  16.171  0.2152  0.2449 -1.4731
17515TIP3   OH273959   1.891   0.485   4.608  0.2411 -0.4391 -0.0693
17515TIP3    H173960   1.797   0.501   4.598  0.4846  1.4637  0.3898
17515TIP3    H273961   1.896   0.403   4.657 -1.1852 -0.3548  0.2554
17516TIP3   OH273962   4.358   5.581   1.506  0.2586 -0.1195 -0.2442
17516TIP3    H173963   4.389   5.640   1.575 -2.3067  0.8809  0.1504
17516TIP3    H273964   4.434   5.571   1.448  2.2052 -0.1736  2.1099
17517TIP3   OH273965   4.989   1.367  11.273 -0.2524  0.1126 -0.1992
17517TIP3    H173966   4.983   1.413  11.356  1.1460  0.1133 -0.0739
17517TIP3    H273967   4.908   1.317  11.266 -0.2512 -0.1293  1.3093
17518TIP3   OH273968   1.663   0.943  11.535  0.3052  0.4699  0.1787
17518TIP3    H173969   1.687   0.850  11.532  0.5787  0.5333  0.4318
17518TIP3    H273970   1.736   0.988  11.492  0.6594  0.6649  0.9743
17519TIP3   OH273971   6.080   0.899   2.798  0.4982 -0.1020 -0.0128
17519TIP3    H173972   6.145   0.868   2.860  1.6105 -0.0428 -1.1161
17519TIP3    H273973   6.077   0.994   2.810 -0.3490 -0.2292  0.9261
17520TIP3   OH273974   5.037   5.983   4.336  0.4522 -0.0096 -0.3379
17520TIP3    H173975   5.125   6.021   4.329  0.2008  0.6109 -0.2399
17520TIP3    H273976   5.047   5.912   4.399  0.7349  0.5578  0.2798
17521TIP3   OH273977   4.510   1.310   2.135 -0.4578 -0.2782  0.0386
17521TIP3    H173978   4.512   1.216   2.117 -1.8805 -0.6373  1.5265
17521TIP3    H273979   4.585   1.345   2.086 -0.3936 -2.0360 -1.2396
17522TIP3   OH273980   2.666   2.722  17.230  0.6474  0.6175 -0.1810
17522TIP3    H173981   2.674   2.767  17.314 -2.0555 -0.8089  1.0162
17522TIP3    H273982   2.738   2.755  17.177  1.5695  2.7152  2.1727
17523TIP3   OH273983   0.502   2.085   2.359  0.0365 -0.6058  0.7778
17523TIP3    H173984   0.456   2.110   2.439 -0.0807  0.2257  0.4666
17523TIP3    H273985   0.490   1.990   2.353 -1.4800 -0.4376  0.8112
17524TIP3   OH273986   1.561   2.125   2.997  0.3768 -0.3823  0.2721
17524TIP3    H173987   1.472   2.161   2.991  0.0011 -1.5812 -2.3605
17524TIP3    H273988   1.576   2.082   2.913  2.2565 -3.0267  1.8070
17525TIP3   OH273989   3.707   2.469  11.497 -0.3048  0.8569 -0.7959
17525TIP3    H173990   3.645   2.532  11.460 -2.1357 -1.2088 -1.5192
17525TIP3    H273991   3.695   2.475  11.592 -1.5525  0.6122 -0.9189
17526TIP3   OH273992   5.899   0.931  15.228 -0.5844 -0.1788  0.4331
17526TIP3    H173993   5.976   0.876  15.215  0.7424  1.6094  0.3605
17526TIP3    H273994   5.933   1.010  15.271 -2.2626  0.9447 -0.2026
17527TIP3   OH273995   4.731   5.973  16.219 -0.2062 -0.4928  0.2720
17527TIP3    H173996   4.711   6.026  16.296  0.6178  0.9456 -0.4648
17527TIP3    H273997   4.647   5.960  16.175 -0.4538 -0.0441  0.6088
17528TIP3   OH273998   4.244   3.597  13.493 -0.0747 -0.2474  0.0585
17528TIP3    H173999   4.244   3.569  13.585 -0.2242 -0.5474 -0.0291
17528TIP3    H274000   4.152   3.607  13.471 -0.0277  0.1318  0.0308
17529TIP3   OH274001   2.886   5.255   6.474 -0.4220 -0.6833  0.1245
17529TIP3    H174002   2.907   5.348   6.460 -0.3772 -0.4772  1.3959
17529TIP3    H274003   2.933   5.232   6.555 -1.3719 -1.4865  0.4701
17530TIP3   OH274004   3.084   2.625  12.333  0.2500 -0.0963 -0.3300
17530TIP3    H174005   3.110   2.645  12.423 -0.0869 -0.6588 -0.1033
17530TIP3    H274006   3.030   2.546  12.340 -3.1811  2.0230 -0.5443
17531TIP3   OH274007   2.852   5.261  11.000  0.3423  0.5640  0.3371
17531TIP3    H174008   2.895   5.179  10.978  0.0906  0.2292  1.0629
17531TIP3    H274009   2.895   5.326  10.944  0.1602 -0.1372 -0.6587
17532TIP3   OH274010   5.243   1.246  11.855 -0.2562 -0.0529  0.6205
17532TIP3    H174011   5.280   1.282  11.936 -1.0414  2.6303 -0.1089
17532TIP3    H274012   5.299   1.172  11.833  0.7995  0.0000  2.8632
17533TIP3   OH274013   2.146   4.853   5.537 -0.3649  0.2676 -0.2519
17533TIP3    H174014   2.111   4.863   5.448 -1.9334  1.7659  0.4858
17533TIP3    H274015   2.086   4.791   5.579  0.4097 -0.4854 -0.2289
17534TIP3   OH274016   3.116   4.522   3.997  0.0621 -0.2741  0.2587
17534TIP3    H174017   3.150   4.491   4.081  0.8537 -0.0080  0.0457
17534TIP3    H274018   3.035   4.567   4.020 -0.9751 -2.2017  0.6093
17535TIP3   OH274019   4.639   4.851   4.584  0.4434 -0.3475 -0.5072
17535TIP3    H174020   4.582   4.811   4.649  1.6329 -0.1177  0.7345
17535TIP3    H274021   4.671   4.778   4.531 -1.8096 -0.3796 -1.9870
17536TIP3   OH274022   3.307   0.960  13.375  0.2333 -0.1558  0.5544
17536TIP3    H174023   3.400   0.979  13.362  0.5873 -1.9904  0.0617
17536TIP3    H274024   3.306   0.872  13.412 -1.3487 -0.6981 -0.6864
17537TIP3   OH274025   1.818   5.663  16.247 -0.3377 -0.3609  0.1654
17537TIP3    H174026   1.750   5.681  16.311 -1.1282 -2.0027 -0.1679
17537TIP3    H274027   1.783   5.696  16.164 -0.2271 -0.1612  0.1968
17538TIP3   OH274028   1.415   3.277  16.884  0.4125  0.3266  0.0025
17538TIP3    H174029   1.466   3.227  16.820  0.1653  0.2629 -0.1439
17538TIP3    H274030   1.422   3.227  16.965 -0.8019 -0.5845 -0.4163
17539TIP3   OH274031   3.245   0.791   4.345  0.1998  0.7517 -0.4243
17539TIP3    H174032   3.243   0.872   4.397  3.2836  0.2733  0.5920
17539TIP3    H274033   3.250   0.721   4.409  0.5375 -0.0685 -1.3249
17540TIP3   OH274034   1.833   2.534   0.706 -0.7000 -0.9624 -0.2597
17540TIP3    H174035   1.848   2.605   0.769  3.2535 -2.1352  0.3943
17540TIP3    H274036   1.803   2.461   0.759 -0.3805 -1.0717 -0.2308
17541TIP3   OH274037   6.040   4.383  13.950 -0.2079  0.5255  0.0127
17541TIP3    H174038   6.089   4.464  13.945  2.1312 -0.6772  1.5611
17541TIP3    H274039   6.036   4.351  13.860 -0.2783  1.8331 -0.4679
17542TIP3   OH274040   1.047   2.426  14.575 -0.1105  0.1222  0.0357
17542TIP3    H174041   1.067   2.471  14.657 -0.6582 -0.8805  0.7513
17542TIP3    H274042   1.133   2.397  14.542  0.0243 -0.4474  0.8528
17543TIP3   OH274043   6.684   6.507   5.803 -0.0050 -0.0987  0.1865
17543TIP3    H174044   6.759   6.498   5.745  0.0018 -0.1489  0.2033
17543TIP3    H274045   6.659   6.599   5.797 -0.1384 -0.1512 -0.0611
17544TIP3   OH274046   3.088   3.578  17.073 -0.1668  0.0253  0.1770
17544TIP3    H174047   3.171   3.557  17.030 -1.0568 -0.3319 -1.4348
17544TIP3    H274048   3.036   3.497  17.065 -1.5064  0.9435 -0.9401
17545TIP3   OH274049   4.354   6.206  11.927 -0.1861  0.3431  0.1399
17545TIP3    H174050   4.333   6.187  11.835  0.6085  1.0302 -0.1960
17545TIP3    H274051   4.445   6.235  11.925 -0.8434  2.6548  0.7947
17546TIP3   OH274052   4.307   6.057  15.553 -0.4618 -0.0429 -0.1736
17546TIP3    H174053   4.274   6.130  15.605  0.3514 -0.3695  0.8520
17546TIP3    H274054   4.369   6.096  15.492  0.2019  0.1161  0.5770
17547TIP3   OH274055   0.866   6.620   2.227  0.3322 -0.5802  0.1978
17547TIP3    H174056   0.901   6.692   2.174 -0.0576 -0.3522  0.2505
17547TIP3    H274057   0.772   6.623   2.212  0.2069 -0.4499  0.9887
17548TIP3   OH274058   3.326   2.445  16.500 -0.9233 -0.0179 -0.4884
17548TIP3    H174059   3.355   2.485  16.418  0.0559  1.0110  0.3220
17548TIP3    H274060   3.305   2.354  16.477  1.4561 -0.3999 -1.4809
17549TIP3   OH274061   5.376   0.528  11.033  0.9869  0.5085  0.1853
17549TIP3    H174062   5.304   0.556  11.090  1.4404 -0.1039  1.0663
17549TIP3    H274063   5.342   0.452  10.986  1.2126 -0.0531  0.9308
17550TIP3   OH274064   6.019   0.626  14.002  0.0272  0.8307 -0.2363
17550TIP3    H174065   6.104   0.667  13.983 -1.0466  2.6194 -1.5000
17550TIP3    H274066   6.011   0.556  13.938  0.0961  1.3645 -0.8392
17551TIP3   OH274067   6.120   5.576   4.844 -0.2515 -0.0215 -0.2046
17551TIP3    H174068   6.148   5.618   4.925 -0.6514  0.2524 -0.2054
17551TIP3    H274069   6.084   5.492   4.871 -3.1167  1.2536  0.2669
17552TIP3   OH274070   2.947   4.714  11.336 -0.7832 -0.2557 -0.6209
17552TIP3    H174071   3.037   4.729  11.366 -1.4528  2.5741  0.2568
17552TIP3    H274072   2.923   4.794  11.290 -2.8113 -1.0171 -0.9919
17553TIP3   OH274073   3.119   5.422   4.058  0.3179 -0.0415  0.5966
17553TIP3    H174074   3.045   5.437   4.116  0.4818  2.1078  0.3402
17553TIP3    H274075   3.131   5.506   4.013  1.5964 -0.9790 -0.8949
17554TIP3   OH274076   4.895   6.167   3.304  0.4145 -0.3978 -0.0283
17554TIP3    H174077   4.943   6.246   3.331 -0.6439  0.4195 -0.4779
17554TIP3    H274078   4.927   6.099   3.363  0.5489  0.6151  1.1280
17555TIP3   OH274079   3.086   6.026   5.419 -0.2517  0.8458  0.1341
17555TIP3    H174080   3.150   6.028   5.490  0.1511  0.1323 -0.1977
17555TIP3    H274081   3.049   6.114   5.418 -0.3367  0.8381  1.2908
17556TIP3   OH274082   5.146   4.181  15.258 -0.3663  0.4530 -0.1923
17556TIP3    H174083   5.106   4.221  15.335 -1.5323  0.4043 -0.7602
17556TIP3    H274084   5.083   4.194  15.188  0.4905  0.1158 -1.0573
17557TIP3   OH274085   4.312   3.796   4.123 -0.3569  0.6800  0.1392
17557TIP3    H174086   4.229   3.755   4.099 -0.2192  0.7518 -0.4858
17557TIP3    H274087   4.336   3.847   4.046 -0.8468  2.4705  1.1243
17558TIP3   OH274088   4.490   0.179   4.439 -0.3654 -0.2162 -0.0495
17558TIP3    H174089   4.517   0.091   4.412  0.2203  0.1369 -0.6599
17558TIP3    H274090   4.398   0.185   4.412 -0.1661 -0.3446 -0.7712
17559TIP3   OH274091   0.956   6.222   5.175  0.0518 -0.2731  0.1306
17559TIP3    H174092   0.926   6.308   5.146  0.4872 -1.1681 -3.3839
17559TIP3    H274093   0.979   6.235   5.267 -1.1931  2.9805  0.1219
17560TIP3   OH274094   1.233   2.743  14.351  0.4154 -0.0001 -0.1312
17560TIP3    H174095   1.267   2.788  14.273  1.0257  0.2782  0.2913
17560TIP3    H274096   1.138   2.743  14.338  0.5519 -0.6747 -1.2648
17561TIP3   OH274097   0.508   2.357   2.293 -0.4442  0.3172 -0.0871
17561TIP3    H174098   0.584   2.373   2.237 -0.3271 -2.0207 -0.6958
17561TIP3    H274099   0.495   2.262   2.289 -0.9868  0.1520  3.1739
17562TIP3   OH274100   3.766   1.741  15.689  0.1428 -0.8121 -0.5805
17562TIP3    H174101   3.784   1.737  15.595 -0.3574  0.7748 -0.7706
17562TIP3    H274102   3.731   1.829  15.703  0.0813 -1.0723  1.0779
17563TIP3   OH274103   1.610   5.321   1.190  0.1330 -0.8123  0.1653
17563TIP3    H174104   1.601   5.376   1.112  2.2193  0.5514  0.7880
17563TIP3    H274105   1.581   5.376   1.262  0.5946 -1.1427  0.6125
17564TIP3   OH274106   4.090   3.812  12.236  0.7416  0.0310 -0.0634
17564TIP3    H174107   4.044   3.890  12.205  2.2479  1.1437  0.4019
17564TIP3    H274108   4.163   3.801  12.175  3.0235  1.5303  2.1808
17565TIP3   OH274109   4.753   1.129   1.150  0.5723 -0.0481  0.6860
17565TIP3    H174110   4.740   1.203   1.091 -1.0447  0.1918  1.2707
17565TIP3    H274111   4.830   1.152   1.201  0.3980  1.0046  0.5013
17566TIP3   OH274112   3.660   6.095  16.855 -0.7491 -0.4668  0.2879
17566TIP3    H174113   3.600   6.152  16.904 -1.2343 -0.2555 -0.5321
17566TIP3    H274114   3.734   6.151  16.833 -0.5227 -0.5668  0.7966
17567TIP3   OH274115   5.445   3.688  13.110 -0.1914  0.0338  0.0969
17567TIP3    H174116   5.391   3.740  13.051  0.8256  0.4496 -0.4884
17567TIP3    H274117   5.399   3.605  13.119  0.1092 -0.4280 -2.0812
17568TIP3   OH274118   4.283   1.436   2.021  0.1941 -0.6320  0.2441
17568TIP3    H174119   4.295   1.512   2.079 -0.0951 -1.4455  1.3990
17568TIP3    H274120   4.369   1.395   2.018  0.8020  0.6509 -1.7569
17569TIP3   OH274121   0.625   2.270  13.433  0.7045 -0.4270 -0.1031
17569TIP3    H174122   0.541   2.225  13.434  0.3339  0.2204  1.0080
17569TIP3    H274123   0.655   2.265  13.343  0.9043 -3.2484  0.0325
17570TIP3   OH274124   6.313   2.667  14.900  0.0261  0.1669 -0.2540
17570TIP3    H174125   6.277   2.586  14.863 -0.9538  0.1236  0.7455
17570TIP3    H274126   6.271   2.737  14.850 -1.0477  0.1031  0.5447
17571TIP3   OH274127   3.804   5.879  11.436  0.2699  0.1378  0.2184
17571TIP3    H174128   3.819   5.866  11.343  0.8742 -0.4733  0.3972
17571TIP3    H274129   3.751   5.804  11.463  0.6499 -0.0359  0.4948
17572TIP3   OH274130   5.966   3.364   2.280  0.9913  0.3120  0.6510
17572TIP3    H174131   5.896   3.430   2.275  2.3766  1.9668  1.9764
17572TIP3    H274132   5.932   3.297   2.340  0.4247  0.9530  1.0593
17573TIP3   OH274133   2.749   3.217  13.172  0.3545  0.0144  0.2724
17573TIP3    H174134   2.683   3.221  13.102  1.6067 -0.3621 -0.9809
17573TIP3    H274135   2.714   3.153  13.234  0.5425 -1.9903 -1.5419
17574TIP3   OH274136   5.328   0.256  14.192  0.2167 -0.6543  0.1375
17574TIP3    H174137   5.332   0.204  14.111 -2.5797  0.5021 -0.8737
17574TIP3    H274138   5.373   0.338  14.170 -0.3428 -0.4327 -0.2181
17575TIP3   OH274139   6.119   2.343  15.385 -0.5243 -0.2271  0.1209
17575TIP3    H174140   6.139   2.300  15.302  0.1714 -1.2253  0.7742
17575TIP3    H274141   6.172   2.423  15.384 -3.1888  1.6548 -1.8823
17576TIP3   OH274142   6.551   1.417   1.988  0.2276 -0.1026 -0.3825
17576TIP3    H174143   6.552   1.503   1.947  1.9006 -0.4581 -1.1850
17576TIP3    H274144   6.504   1.362   1.925 -2.1505  0.4603  0.7907
17577TIP3   OH274145   2.405   2.125  14.758  0.3583 -0.5189  0.0152
17577TIP3    H174146   2.349   2.066  14.708  0.8989  0.4033 -1.7790
17577TIP3    H274147   2.491   2.116  14.718  0.1639  2.4836 -1.3472
17578TIP3   OH274148   1.387   6.343   6.276 -0.2408  1.0433 -0.0432
17578TIP3    H174149   1.324   6.291   6.325  0.3700  1.4988  1.2738
17578TIP3    H274150   1.337   6.381   6.204 -0.9692 -0.3402 -0.2893
17579TIP3   OH274151   5.125   1.475   6.341  0.4236 -0.0307  0.1119
17579TIP3    H174152   5.177   1.538   6.391  2.1920  0.6124 -2.3635
17579TIP3    H274153   5.044   1.466   6.392  0.5022  3.4241  1.1478
17580TIP3   OH274154   3.965   6.611   0.201  0.2874 -0.9767 -0.4580
17580TIP3    H174155   3.912   6.535   0.223  1.3167 -1.2375  1.2910
17580TIP3    H274156   3.980   6.655   0.285 -0.4780  1.3169 -1.4385
17581TIP3   OH274157   4.854   5.001   0.200  0.2181  0.7470 -0.0771
17581TIP3    H174158   4.806   4.924   0.230  1.5472  0.9236  2.8481
17581TIP3    H274159   4.939   4.967   0.172  0.3944  1.0031  0.1406
17582TIP3   OH274160   5.448   0.367   5.449  0.3901 -0.7649  0.1712
17582TIP3    H174161   5.538   0.382   5.478  1.1123 -0.7426 -1.8660
17582TIP3    H274162   5.394   0.398   5.521  2.0131 -0.4547  1.3149
17583TIP3   OH274163   0.967   1.938   6.366 -0.4838 -0.2977 -0.2567
17583TIP3    H174164   1.061   1.931   6.384 -0.2871  0.1012 -1.0669
17583TIP3    H274165   0.944   2.026   6.395  0.0733  0.7793 -2.8179
17584TIP3   OH274166   5.286   0.434   5.640  0.0108  0.4714  0.2805
17584TIP3    H174167   5.213   0.372   5.648 -0.4638  0.7125 -1.7230
17584TIP3    H274168   5.260   0.508   5.695 -0.6731  0.0424  0.5565
17585TIP3   OH274169   2.262   2.480   2.901  0.0489 -0.0993  0.2863
17585TIP3    H174170   2.252   2.536   2.978  0.8626 -0.6234  0.7745
17585TIP3    H274171   2.356   2.481   2.882  0.1985 -1.9527  0.7890
17586TIP3   OH274172   4.049   4.222   3.346 -0.4161 -0.0227 -0.0042
17586TIP3    H174173   3.971   4.175   3.318 -0.4398 -1.4362  2.2381
17586TIP3    H274174   4.015   4.295   3.399 -0.2657 -0.7859  1.1856
17587TIP3   OH274175   6.515   1.093  13.301 -0.6684 -0.4646 -0.3865
17587TIP3    H174176   6.459   1.157  13.258 -0.9630 -0.8190 -0.5332
17587TIP3    H274177   6.539   1.031  13.232 -1.5780 -1.3371  0.0605
17588TIP3   OH274178   2.066   3.930   0.984 -0.7564  0.0888  0.2959
17588TIP3    H174179   2.097   4.015   1.018 -1.5944  0.3252  0.4924
17588TIP3    H274180   2.115   3.918   0.903 -0.6925  0.8113  0.2190
17589TIP3   OH274181   4.390   1.720  15.423 -0.4556  0.4980  0.2805
17589TIP3    H174182   4.445   1.766  15.486  0.1110  1.0046 -0.5710
17589TIP3    H274183   4.451   1.669  15.370 -0.9694 -0.2925  0.4295
17590TIP3   OH274184   4.053   4.354  15.077 -0.2779  0.4221 -0.0599
17590TIP3    H174185   4.144   4.383  15.062  0.5122 -1.2758  1.1741
17590TIP3    H274186   4.039   4.370  15.171 -1.1353  0.3080 -0.1675
17591TIP3   OH274187   3.526   5.173  14.272  0.4167 -0.3368 -0.6422
17591TIP3    H174188   3.530   5.252  14.327 -1.0657 -0.4329 -0.3520
17591TIP3    H274189   3.604   5.178  14.218  0.6016  1.0936 -0.2927
17592TIP3   OH274190   1.190   6.474   3.912  0.4398 -0.3803  0.1887
17592TIP3    H174191   1.171   6.566   3.931 -2.5448 -1.0341  0.8671
17592TIP3    H274192   1.129   6.450   3.843  0.0455 -2.2355  1.1058
17593TIP3   OH274193   2.170   1.654   6.012  0.1091  0.1021 -0.1508
17593TIP3    H174194   2.157   1.606   6.094  0.4796  1.8895  1.0105
17593TIP3    H274195   2.115   1.608   5.948 -0.9535 -0.7553  1.3211
17594TIP3   OH274196   2.184   5.420  15.624  0.2599  0.0775  0.4032
17594TIP3    H174197   2.151   5.419  15.713 -0.7932  0.5807  0.0331
17594TIP3    H274198   2.258   5.480  15.626 -1.1899  1.9348  0.4671
17595TIP3   OH274199   1.122   0.241   2.520 -0.0902 -0.1754  0.6771
17595TIP3    H174200   1.055   0.217   2.456 -2.2077  0.8611  2.3708
17595TIP3    H274201   1.135   0.162   2.572  0.0118 -0.3989  0.3094
17596TIP3   OH274202   4.831   0.453  15.661  0.1492  0.3207  0.0607
17596TIP3    H174203   4.831   0.358  15.662 -1.6986  0.2482  2.4670
17596TIP3    H274204   4.818   0.476  15.569  2.7477 -1.6205 -0.9153
17597TIP3   OH274205   4.068   2.954  16.607  0.1396  0.0750  0.3163
17597TIP3    H174206   3.999   2.888  16.616  0.0166 -0.1418 -1.6909
17597TIP3    H274207   4.148   2.904  16.590 -0.0379  0.3669 -1.6923
17598TIP3   OH274208   2.104   1.614  16.996  0.3187  0.2448  0.1271
17598TIP3    H174209   2.169   1.561  17.042  0.8454  0.4282 -0.3904
17598TIP3    H274210   2.033   1.625  17.059 -0.1465 -1.6779  0.0000
17599TIP3   OH274211   0.900   5.333  14.402 -0.2141  0.7139  0.1075
17599TIP3    H174212   0.890   5.387  14.323  0.9296 -0.7651 -1.1018
17599TIP3    H274213   0.814   5.294  14.415 -0.2922  0.6061 -0.6898
17600TIP3   OH274214   6.100   5.749  17.005 -0.0298 -0.3670  0.2751
17600TIP3    H174215   6.083   5.837  17.038  0.9312 -0.1190  0.1379
17600TIP3    H274216   6.179   5.721  17.051  0.2945 -0.7223 -0.4846
17601TIP3   OH274217   0.420   2.008   2.786  0.5174  0.1769 -0.1789
17601TIP3    H174218   0.511   1.981   2.797  1.1090  1.9225 -0.4310
17601TIP3    H274219   0.396   2.046   2.870 -0.0565 -0.4377 -0.0565
17602TIP3   OH274220   0.076   5.506   5.875 -0.5156 -0.5893 -0.5021
17602TIP3    H174221   0.070   5.569   5.947 -0.8686 -0.1049 -0.9494
17602TIP3    H274222   0.029   5.547   5.803 -0.3285 -1.1546 -0.9555
17603TIP3   OH274223   6.307   4.114  16.255 -0.1284  0.1254  0.0135
17603TIP3    H174224   6.363   4.080  16.325 -1.4233 -0.0236  1.0304
17603TIP3    H274225   6.366   4.162  16.198  1.0255  0.0219  1.0771
17604TIP3   OH274226   5.997   0.675   3.952  0.0215  0.1612  0.5987
17604TIP3    H174227   5.904   0.656   3.943  0.1498 -0.2669  0.1748
17604TIP3    H274228   6.022   0.633   4.034  0.0182 -0.3947  0.3147
17605TIP3   OH274229   4.664   4.361  12.521 -0.6454 -0.4145  0.7355
17605TIP3    H174230   4.626   4.339  12.436  0.7419 -1.0345  0.2411
17605TIP3    H274231   4.700   4.278  12.554  1.5391  0.3469  0.4862
17606TIP3   OH274232   5.421   2.412   3.937 -0.6650  0.1048 -0.3747
17606TIP3    H174233   5.365   2.335   3.943 -0.3019 -0.1952 -0.8115
17606TIP3    H274234   5.489   2.388   3.874  0.3970  0.1765  0.7036
17607TIP3   OH274235   0.170   3.203  16.531  0.3258  0.3093 -0.1390
17607TIP3    H174236   0.122   3.187  16.450  0.6624  0.1731 -0.3139
17607TIP3    H274237   0.160   3.297  16.546  0.4647  0.3809 -0.4718
17608TIP3   OH274238   5.974   0.327  13.189  0.3365 -0.5172 -0.2856
17608TIP3    H174239   5.925   0.272  13.127 -1.8802  1.0140  0.0044
17608TIP3    H274240   5.954   0.290  13.275 -2.0461  1.2721  0.0045
17609TIP3   OH274241   4.629   1.195   5.163  0.6827  0.3016 -0.5872
17609TIP3    H174242   4.630   1.291   5.167 -1.0760  0.3840 -1.0395
17609TIP3    H274243   4.721   1.170   5.156  1.3313  1.8403  1.4956
17610TIP3   OH274244   3.362   3.401  14.433 -0.1360  0.2606 -0.4582
17610TIP3    H174245   3.432   3.437  14.487 -0.7051 -0.0264  0.4967
17610TIP3    H274246   3.398   3.317  14.401 -0.1637 -0.0400  0.2912
17611TIP3   OH274247   3.156   0.581  15.702 -0.0720  0.2399 -0.1665
17611TIP3    H174248   3.190   0.665  15.673  1.8833 -0.0614  1.1393
17611TIP3    H274249   3.081   0.603  15.758  0.4629  1.1286  0.2150
17612TIP3   OH274250   0.931   0.229   2.280  0.8392  0.3475  0.4443
17612TIP3    H174251   0.840   0.203   2.269  1.3504 -1.9646  1.0560
17612TIP3    H274252   0.931   0.323   2.267 -1.7212  0.5022  1.0123
17613TIP3   OH274253   1.727   1.489   5.033 -0.0019 -0.4667  0.3419
17613TIP3    H174254   1.687   1.550   4.972  1.1302  0.3818  0.4228
17613TIP3    H274255   1.688   1.510   5.118  2.4799  2.2772  0.9861
17614TIP3   OH274256   2.320   6.433  14.364  0.0691  0.0570 -0.0889
17614TIP3    H174257   2.378   6.369  14.322  0.1466 -0.2068  0.4170
17614TIP3    H274258   2.275   6.475  14.291  0.7235  0.1026 -0.4825
17615TIP3   OH274259   3.918   1.043  12.100  0.4042 -0.1646 -0.1194
17615TIP3    H174260   3.898   0.961  12.056 -0.3126 -0.1625  0.1865
17615TIP3    H274261   3.846   1.101  12.075 -0.3584 -0.3559  1.5418
17616TIP3   OH274262   6.363   4.849   4.985  0.2689 -0.0640  0.1063
17616TIP3    H174263   6.358   4.760   4.952  1.7275  0.3108 -1.2197
17616TIP3    H274264   6.452   4.858   5.019 -0.3200  0.4530  1.5958
17617TIP3   OH274265   0.917   5.574  11.948 -0.1523 -0.2134  0.5180
17617TIP3    H174266   1.005   5.610  11.960 -0.4616  0.0816  2.0987
17617TIP3    H274267   0.931   5.496  11.895  0.8861  0.5863 -0.4448
17618TIP3   OH274268   1.475   1.342   3.851  0.1264  0.2440  0.2906
17618TIP3    H174269   1.522   1.279   3.796  0.5398 -0.9536  1.9540
17618TIP3    H274270   1.543   1.383   3.905 -0.0944  2.3648 -0.9150
17619TIP3   OH274271   4.222   1.935  12.552  0.4080 -0.5806 -0.0684
17619TIP3    H174272   4.178   2.017  12.528  0.8205  0.0543  1.2740
17619TIP3    H274273   4.294   1.927  12.489 -0.6057 -0.7846 -1.2493
17620TIP3   OH274274   5.671   6.452   2.320 -0.1030 -0.5656  0.1459
17620TIP3    H174275   5.626   6.527   2.361  0.5289 -0.6415  1.0202
17620TIP3    H274276   5.761   6.482   2.310  0.1714 -1.2361  0.5772
17621TIP3   OH274277   3.877   6.593  12.443  0.0470 -0.0012 -0.1918
17621TIP3    H174278   3.934   6.654  12.490  0.4308 -1.7170  1.7032
17621TIP3    H274279   3.837   6.540  12.512 -1.7666 -0.6305 -1.6609
17622TIP3   OH274280   6.451   1.397  14.864  0.1516  0.1467 -0.3607
17622TIP3    H174281   6.525   1.452  14.889  1.3052 -0.6818 -1.7879
17622TIP3    H274282   6.464   1.379  14.771  0.2022 -3.0530  0.1529
17623TIP3   OH274283   5.338   2.964  13.374 -0.1434 -0.2533  0.0393
17623TIP3    H174284   5.423   3.005  13.355 -0.0802 -0.0124  0.8158
17623TIP3    H274285   5.323   2.982  13.466 -2.1942  1.8268 -0.5903
17624TIP3   OH274286   2.741   5.420  14.660 -0.1368 -0.0485 -0.3573
17624TIP3    H174287   2.686   5.341  14.663 -0.6326  0.2955 -0.3483
17624TIP3    H274288   2.735   5.450  14.570 -0.8925  0.6341 -0.0957
17625TIP3   OH274289   6.586   5.983  15.774 -0.3531 -0.0583 -0.4717
17625TIP3    H174290   6.494   5.985  15.747  0.1523  1.5504 -2.2414
17625TIP3    H274291   6.623   5.909  15.726 -0.3662  0.2876 -1.0177
17626TIP3   OH274292   4.324   4.967   4.119  0.4384  0.5009 -0.6378
17626TIP3    H174293   4.348   5.058   4.101  0.3198  0.5152 -0.7230
17626TIP3    H274294   4.343   4.955   4.212 -0.7970  0.9954 -0.3067
17627TIP3   OH274295   2.714   5.631   5.068 -0.0847  0.1794  0.3532
17627TIP3    H174296   2.663   5.623   4.988 -0.5554  2.0336  0.4196
17627TIP3    H274297   2.800   5.596   5.046  0.3261  2.1742 -1.5220
17628TIP3   OH274298   6.122   3.300  13.044 -0.4362  0.6665  0.2078
17628TIP3    H174299   6.118   3.288  13.139  0.5793  0.2177  0.2137
17628TIP3    H274300   6.216   3.309  13.025 -0.5719  0.1102 -0.8143
17629TIP3   OH274301   5.724   1.377  13.490 -0.0500  0.2596  0.0253
17629TIP3    H174302   5.692   1.312  13.552  0.6345  0.1344  0.2544
17629TIP3    H274303   5.742   1.328  13.410 -0.3488  0.3173 -0.0791
17630TIP3   OH274304   0.088   5.891  13.965 -0.2032 -0.1937  0.3347
17630TIP3    H174305   0.092   5.834  14.042 -1.2188  0.0114  0.5461
17630TIP3    H274306   0.060   5.976  13.999  2.9796  1.0220  0.3215
17631TIP3   OH274307   3.527   1.196   1.089  0.1440  0.7010  0.4222
17631TIP3    H174308   3.445   1.150   1.108  0.4763 -0.0907 -0.0344
17631TIP3    H274309   3.569   1.206   1.174 -0.3057  0.8900  0.6272
17632TIP3   OH274310   2.408   1.642   3.895 -0.7016  0.6454  0.1622
17632TIP3    H174311   2.354   1.671   3.821 -1.2333  0.8858  0.6451
17632TIP3    H274312   2.377   1.554   3.914 -0.0318  0.2762 -0.3985
17633TIP3   OH274313   6.682   4.936   0.443 -0.1440  0.9362  0.5008
17633TIP3    H174314   6.771   4.970   0.433  0.4872 -0.5989  0.6528
17633TIP3    H274315   6.667   4.937   0.538 -0.3646  1.3549  0.4642
17634TIP3   OH274316   1.867   0.323   2.472  0.0981 -0.2575 -0.1450
17634TIP3    H174317   1.925   0.280   2.534 -0.1751 -1.9010 -0.9794
17634TIP3    H274318   1.874   0.271   2.392 -3.3301 -1.2111  0.0418
17635TIP3   OH274319   4.222   4.777  11.225  0.1587  0.7528 -1.0581
17635TIP3    H174320   4.168   4.804  11.299  0.9816 -3.0640  1.2503
17635TIP3    H274321   4.311   4.776  11.260  0.2137 -4.9440 -0.3879
17636TIP3   OH274322   2.996   5.229   2.070 -0.4342 -0.3046  0.2505
17636TIP3    H174323   3.014   5.240   2.163 -0.7147 -1.6371  0.4813
17636TIP3    H274324   2.973   5.317   2.039  3.4989  1.0148  0.5235
17637TIP3   OH274325   1.560   2.432  15.862  0.3230  0.0696  0.1216
17637TIP3    H174326   1.568   2.361  15.799  0.8379  0.0980  0.1487
17637TIP3    H274327   1.466   2.443  15.875  0.1060  1.4528 -2.1878
17638TIP3   OH274328   0.236   0.865  13.570 -0.6679  0.5040  0.5682
17638TIP3    H174329   0.239   0.776  13.536  0.6779  0.4200  0.8796
17638TIP3    H274330   0.319   0.877  13.615  0.0083  2.5583 -1.0618
17639TIP3   OH274331   2.215   2.243   0.736  0.3995 -0.0879  0.3560
17639TIP3    H174332   2.143   2.268   0.678  0.3962  1.6532  1.0508
17639TIP3    H274333   2.290   2.229   0.678 -0.2901 -1.1823 -0.3018
17640TIP3   OH274334   6.748   0.440   5.309  0.2060  0.1511 -0.0490
17640TIP3    H174335   6.748   0.354   5.268 -0.1666  0.4635 -0.7220
17640TIP3    H274336   6.714   0.499   5.241 -1.5144  0.5161  1.0687
17641TIP3   OH274337   1.654   0.948   3.798 -0.5714  0.2324 -0.5508
17641TIP3    H174338   1.640   0.965   3.891 -0.5809  0.0369 -0.5165
17641TIP3    H274339   1.611   0.864   3.782  0.9500 -0.6095 -0.3490
17642TIP3   OH274340   6.306   5.035  12.141 -0.2759  1.1016 -0.2758
17642TIP3    H174341   6.273   5.104  12.199  0.1749  1.4072 -0.3846
17642TIP3    H274342   6.228   5.005  12.094 -0.8940 -0.0202  1.3801
17643TIP3   OH274343   2.332   5.630   1.002  0.1713 -0.1602  0.2809
17643TIP3    H174344   2.279   5.709   1.012  0.6809  0.0619  1.3827
17643TIP3    H274345   2.389   5.629   1.079  1.2957 -0.7517 -0.5228
17644TIP3   OH274346   1.107   3.554   5.506 -0.0817  0.0010 -0.1003
17644TIP3    H174347   1.180   3.494   5.520 -0.5510 -0.1254  2.1221
17644TIP3    H274348   1.030   3.498   5.499 -0.1500  0.2055 -1.1859
17645TIP3   OH274349   3.891   4.859  17.097 -0.1129  0.1435  0.0766
17645TIP3    H174350   3.799   4.883  17.114 -0.5839 -1.4224 -0.0948
17645TIP3    H274351   3.890   4.763  17.095  1.6814  0.0883  0.8188
17646TIP3   OH274352   5.504   2.732  11.804  0.2791  0.2055  0.1162
17646TIP3    H174353   5.546   2.699  11.884  0.6464 -1.0407 -0.5774
17646TIP3    H274354   5.565   2.799  11.772  0.5797  0.0596  0.3752
17647TIP3   OH274355   2.080   0.921  13.527 -0.2250  0.3695 -0.0176
17647TIP3    H174356   2.168   0.889  13.506  0.5074  2.0273  0.2686
17647TIP3    H274357   2.090   1.017  13.530 -2.6087  0.7937 -2.4461
17648TIP3   OH274358   0.112   0.412   3.669 -0.4767  0.4256  0.3945
17648TIP3    H174359   0.203   0.423   3.694  0.4198 -4.2809  0.2248
17648TIP3    H274360   0.111   0.424   3.574 -0.3658  1.7151  0.5395
17649TIP3   OH274361   0.990   4.648  15.250 -0.0203 -0.2119  0.1067
17649TIP3    H174362   1.015   4.724  15.196  1.0761  1.8192  3.1799
17649TIP3    H274363   1.073   4.618  15.288 -0.7988 -1.1710  1.0947
17650TIP3   OH274364   0.718   6.143   3.550  0.1200 -0.5061  0.4682
17650TIP3    H174365   0.686   6.066   3.502  0.4117 -0.2815 -0.0877
17650TIP3    H274366   0.811   6.126   3.563  0.1097 -0.4128  0.6662
17651TIP3   OH274367   6.651   0.338  16.957  0.5526 -0.4206  0.6033
17651TIP3    H174368   6.559   0.364  16.947 -0.4915 -2.9842  2.2034
17651TIP3    H274369   6.693   0.413  16.999 -1.5639 -0.1932  2.5616
17652TIP3   OH274370   6.614   0.054   6.619 -0.0139 -1.0858  0.2420
17652TIP3    H174371   6.649   0.141   6.639 -0.2994 -0.9480  0.1580
17652TIP3    H274372   6.686   0.007   6.579 -0.2883 -0.3759 -1.1395
17653TIP3   OH274373   6.683   5.960   5.197 -1.1012 -0.1862  0.1363
17653TIP3    H174374   6.600   5.915   5.183 -0.3312 -1.5393 -0.2641
17653TIP3    H274375   6.730   5.905   5.260 -1.3709  1.7231  2.1330
17654TIP3   OH274376   5.043   6.728  16.358 -0.4642 -0.0640 -0.2198
17654TIP3    H174377   5.099   6.650  16.357  0.7763  0.8036 -1.0709
17654TIP3    H274378   5.020   6.739  16.450  0.8255 -0.4183  0.1673
17655TIP3   OH274379   5.725   5.887  13.642 -0.0810 -0.2008 -0.2197
17655TIP3    H174380   5.804   5.937  13.623 -0.6420  0.3743 -1.0749
17655TIP3    H274381   5.737   5.805  13.595 -0.0451 -0.0664 -0.4475
17656TIP3   OH274382   5.389   4.011  12.208 -0.0045 -0.1844 -0.1038
17656TIP3    H174383   5.465   4.002  12.266  0.8819  0.9197 -1.0609
17656TIP3    H274384   5.337   4.080  12.248  1.2283  1.4566 -1.2232
17657TIP3   OH274385   0.291   4.785   1.948  0.5645 -0.0731 -0.3287
17657TIP3    H174386   0.340   4.703   1.950 -2.3346 -1.9643 -1.3474
17657TIP3    H274387   0.260   4.797   2.038  0.3398 -0.5175 -0.3464
17658TIP3   OH274388   4.551   3.063  14.596 -0.4073  0.1060  0.5515
17658TIP3    H174389   4.554   3.153  14.561 -1.2832  0.6894  1.8834
17658TIP3    H274390   4.532   3.075  14.689  3.2538 -1.3045  1.6327
17659TIP3   OH274391   5.691   5.470  11.162 -0.4933  0.0469 -0.2788
17659TIP3    H174392   5.745   5.400  11.197  0.2732  0.0142 -1.4711
17659TIP3    H274393   5.716   5.476  11.070  0.8513  3.1494  0.1592
17660TIP3   OH274394   5.142   1.135  15.242 -0.0723  0.1340  0.3911
17660TIP3    H174395   5.092   1.107  15.318 -0.6564  0.4548  0.1287
17660TIP3    H274396   5.162   1.053  15.196 -2.6915  0.1484 -0.9401
17661TIP3   OH274397   6.393   5.743  15.575 -0.1820 -0.0589 -0.0625
17661TIP3    H174398   6.396   5.776  15.665  1.9223  0.2595 -0.1932
17661TIP3    H274399   6.394   5.648  15.584  1.8413 -0.0442  0.2819
17662TIP3   OH274400   4.764   2.111  16.922 -0.5858  0.1328 -0.4404
17662TIP3    H174401   4.771   2.094  17.016  0.5853 -0.0094 -0.5402
17662TIP3    H274402   4.694   2.053  16.891  0.6163 -1.5767 -0.0701
17663TIP3   OH274403   4.603   2.872  11.486  0.3882  0.2160 -0.8440
17663TIP3    H174404   4.523   2.914  11.455 -0.1086 -0.6874 -0.8023
17663TIP3    H274405   4.613   2.904  11.576 -0.9136 -1.0449 -0.2287
17664TIP3   OH274406   4.421   1.003  11.949  0.2908  0.3484  0.2391
17664TIP3    H174407   4.406   0.989  11.855  0.7738  2.0499 -0.1239
17664TIP3    H274408   4.339   0.977  11.991  0.3490 -1.1982 -0.5599
17665TIP3   OH274409   6.643   5.889  12.596 -0.4740  0.4354  0.4347
17665TIP3    H174410   6.656   5.807  12.644 -0.7287 -0.1742 -0.5164
17665TIP3    H274411   6.699   5.952  12.641 -0.7344 -0.0966  1.5623
17666TIP3   OH274412   5.151   5.843   1.955  0.0334  0.0819  0.0392
17666TIP3    H174413   5.075   5.898   1.977 -0.5719 -0.4538 -0.6472
17666TIP3    H274414   5.113   5.764   1.917  0.9354 -0.3061 -0.0832
17667TIP3   OH274415   3.637   1.250  12.501 -0.2867  0.1275 -0.0635
17667TIP3    H174416   3.718   1.300  12.489 -1.4995  1.9978 -1.0130
17667TIP3    H274417   3.659   1.184  12.566  1.7196  1.2557  0.4937
17668TIP3   OH274418   4.117   1.730  14.514 -0.1074 -0.1172  0.1154
17668TIP3    H174419   4.126   1.680  14.596 -1.0494  0.6299  0.6911
17668TIP3    H274420   4.189   1.793  14.517  1.3465 -1.6194 -0.8062
17669TIP3   OH274421   5.958   0.584   1.089  0.3373 -0.2901 -0.5821
17669TIP3    H174422   5.961   0.679   1.105  1.7057 -0.3545 -0.2802
17669TIP3    H274423   5.933   0.547   1.173  1.4599 -0.2755 -0.2258
17670TIP3   OH274424   5.379   2.560   0.525 -0.0299  0.1452 -0.1871
17670TIP3    H174425   5.356   2.647   0.492  0.8737 -0.3793 -2.3749
17670TIP3    H274426   5.411   2.576   0.614 -1.7640  1.7522  0.2155
17671TIP3   OH274427   5.278   1.470  13.118 -0.1151  0.5327  0.4155
17671TIP3    H174428   5.222   1.436  13.188 -1.9276 -1.1258 -1.7078
17671TIP3    H274429   5.217   1.496  13.049  1.6533  0.9300 -1.0710
17672TIP3   OH274430   6.367   4.101   6.136  0.2038  0.0388 -0.6589
17672TIP3    H174431   6.337   4.143   6.055  0.3335 -1.2615 -1.4108
17672TIP3    H274432   6.391   4.174   6.193 -0.5172  0.9995 -1.5475
17673TIP3   OH274433   1.681   6.041   4.318 -0.2857  0.3051 -0.2104
17673TIP3    H174434   1.760   6.014   4.270 -0.5728 -0.2494 -0.3750
17673TIP3    H274435   1.691   6.002   4.404 -0.2912  0.4013 -0.1656
17674TIP3   OH274436   2.032   3.011   3.458 -0.0153 -0.1611 -0.2773
17674TIP3    H174437   2.044   2.961   3.539 -1.0495 -1.9251 -1.1505
17674TIP3    H274438   1.937   3.023   3.451  0.2111  2.2931  0.0635
17675TIP3   OH274439   5.947   4.536  12.756  0.3916  0.0151 -0.1625
17675TIP3    H174440   6.022   4.510  12.702 -0.1993 -1.9051 -0.1294
17675TIP3    H274441   5.981   4.536  12.846  0.5974  0.1535 -0.2403
17676TIP3   OH274442   2.055   2.781   5.618 -0.4091  0.1608  0.4074
17676TIP3    H174443   2.132   2.772   5.562 -0.8358  0.6464 -0.2726
17676TIP3    H274444   2.061   2.870   5.652 -1.0632  0.4668 -0.2564
17677TIP3   OH274445   2.941   1.341   1.028 -0.2527 -0.0274  0.5793
17677TIP3    H174446   3.000   1.415   1.015 -0.9050  0.8411  2.2816
17677TIP3    H274447   2.865   1.378   1.075 -0.0043 -1.9667  2.7133
17678TIP3   OH274448   3.907   2.424   5.804  0.0388 -0.0686 -0.3292
17678TIP3    H174449   3.947   2.353   5.753  0.4108 -0.8499  1.0120
17678TIP3    H274450   3.820   2.433   5.766 -0.7474 -2.5831  0.6239
17679TIP3   OH274451   6.542   3.357  13.318  0.0022 -0.0792  0.4653
17679TIP3    H174452   6.550   3.395  13.405 -2.4571 -1.9692  1.6210
17679TIP3    H274453   6.473   3.408  13.276  0.6669  0.3432 -0.1393
17680TIP3   OH274454   2.912   1.551  13.903  0.2494  0.1822 -0.0600
17680TIP3    H174455   2.886   1.625  13.847 -0.7983  0.2834  0.5227
17680TIP3    H274456   2.961   1.493  13.845  0.0347  0.7543 -0.8380
17681TIP3   OH274457   4.660   3.877   5.463 -0.1996 -0.0644 -0.1670
17681TIP3    H174458   4.616   3.898   5.546 -1.4823 -1.9707 -0.3166
17681TIP3    H274459   4.618   3.934   5.399  1.2051  1.8614  0.5118
17682TIP3   OH274460   1.444   1.768  16.375  0.4377  0.0034 -0.5714
17682TIP3    H174461   1.533   1.752  16.406  0.4078 -0.5995 -0.7844
17682TIP3    H274462   1.406   1.681  16.366 -0.5268  0.2834  0.5292
17683TIP3   OH274463   6.112   6.400  12.616 -0.3502  0.2599  0.1331
17683TIP3    H174464   6.095   6.408  12.522  2.0723  0.4788 -0.3491
17683TIP3    H274465   6.168   6.323  12.624 -0.3262  0.3836  1.3882
17684TIP3   OH274466   6.591   5.058   3.888 -0.1548 -0.0745 -0.0516
17684TIP3    H174467   6.681   5.027   3.900 -0.2948 -1.0590 -1.2686
17684TIP3    H274468   6.600   5.140   3.840  0.1430  0.5636  1.0848
17685TIP3   OH274469   5.737   3.263   3.266 -0.1355 -0.0012  0.4429
17685TIP3    H174470   5.708   3.291   3.353 -1.6377 -1.4311  0.4405
17685TIP3    H274471   5.757   3.170   3.277  1.6307  0.2545 -0.2943
17686TIP3   OH274472   1.239   2.388   3.537 -0.4183 -0.5359 -0.4525
17686TIP3    H174473   1.195   2.450   3.595 -0.6932 -1.3054  0.1721
17686TIP3    H274474   1.326   2.426   3.523 -0.3421 -0.3459  0.4799
17687TIP3   OH274475   4.262   6.687   1.184 -0.5605  0.2369  0.0356
17687TIP3    H174476   4.282   6.697   1.091  1.2571  0.2598  0.4015
17687TIP3    H274477   4.284   6.597   1.204 -0.2315  0.4416  0.6147
17688TIP3   OH274478   5.142   3.553  17.176  0.8828 -0.2889 -1.0998
17688TIP3    H174479   5.132   3.576  17.268 -0.4771 -0.8001 -1.0959
17688TIP3    H274480   5.168   3.635  17.134  1.3141 -0.0045 -0.3102
17689TIP3   OH274481   5.375   5.257   0.354 -0.1354 -0.1550 -0.2390
17689TIP3    H174482   5.423   5.198   0.296 -0.1928 -1.0144  0.5771
17689TIP3    H274483   5.286   5.260   0.317  0.2903  0.7187 -1.2208
17690TIP3   OH274484   3.664   3.990   1.838  0.0282 -1.0064  0.3400
17690TIP3    H174485   3.720   4.063   1.863 -1.2109  0.4147 -0.8196
17690TIP3    H274486   3.657   3.996   1.743 -0.7627 -2.1436  0.2956
17691TIP3   OH274487   2.959   3.223   2.201  0.0702  0.3811 -0.0187
17691TIP3    H174488   3.046   3.262   2.200 -0.0722  0.9968  2.7989
17691TIP3    H274489   2.971   3.137   2.242 -0.7528  0.9802  1.5811
17692TIP3   OH274490   2.357   2.564  10.652  0.2713 -0.3306  0.8346
17692TIP3    H174491   2.290   2.518  10.704  0.8386 -1.7643  0.3497
17692TIP3    H274492   2.307   2.623  10.595 -0.4041  0.6798  2.4074
17693TIP3   OH274493   3.074   1.203   0.678 -0.1592  0.6033  0.4017
17693TIP3    H174494   3.052   1.181   0.587  2.3097  2.2474 -0.6949
17693TIP3    H274495   3.158   1.160   0.693 -0.8150 -0.1483  2.1823
17694TIP3   OH274496   6.035   2.840  12.521  0.0496 -0.1258  0.3060
17694TIP3    H174497   6.026   2.819  12.614  0.1034  0.1888  0.3843
17694TIP3    H274498   6.120   2.884  12.515  1.1050 -2.1241 -0.2475
17695TIP3   OH274499   3.297   6.195  15.035  0.1247  0.4342  0.1745
17695TIP3    H174500   3.337   6.205  15.122  0.6329 -0.0509 -0.0016
17695TIP3    H274501   3.371   6.186  14.976 -0.2517 -0.8913 -0.1075
17696TIP3   OH274502   1.131   0.235  16.762  0.4567 -0.3560 -0.0314
17696TIP3    H174503   1.082   0.158  16.791 -1.1848  0.2817 -0.9713
17696TIP3    H274504   1.171   0.269  16.842 -0.2929 -1.1594  0.7163
17697TIP3   OH274505   3.821   3.534  11.302  0.2499 -0.4068  0.6126
17697TIP3    H174506   3.787   3.624  11.302 -0.7389 -0.7770  0.4119
17697TIP3    H274507   3.838   3.516  11.209  0.8042 -0.3034  0.6900
17698TIP3   OH274508   1.642   1.501   4.006  0.2228  0.2752 -0.1225
17698TIP3    H174509   1.718   1.455   3.972  0.2602  0.3741 -0.1739
17698TIP3    H274510   1.679   1.575   4.055  0.1793  0.0206  0.3056
17699TIP3   OH274511   1.544   3.359  15.973  0.1314 -0.4655 -0.1290
17699TIP3    H174512   1.525   3.428  16.037 -0.5173 -1.6420  0.9869
17699TIP3    H274513   1.551   3.405  15.890 -0.2501  0.9502  0.5933
17700TIP3   OH274514   2.268   1.521   4.576 -0.1111  0.2077  0.5364
17700TIP3    H174515   2.250   1.429   4.594  1.4026  0.0199  1.1908
17700TIP3    H274516   2.224   1.537   4.492 -1.0134 -0.8918  0.7676
17701TIP3   OH274517   5.064   2.599   0.887 -0.0855  0.4558 -0.6275
17701TIP3    H174518   5.087   2.506   0.886  0.0845  0.4912 -2.2462
17701TIP3    H274519   5.147   2.644   0.873 -0.5253  0.7212 -2.6487
17702TIP3   OH274520   2.710   5.527   1.805  0.5406  0.2673  0.5332
17702TIP3    H174521   2.788   5.505   1.856  0.9020  1.6219  0.6138
17702TIP3    H274522   2.639   5.532   1.869  0.9119  1.5464  0.8876
17703TIP3   OH274523   2.093   3.008  10.621  0.2796 -0.8548  0.0788
17703TIP3    H174524   2.003   2.976  10.615  0.1174 -0.2877 -0.6318
17703TIP3    H274525   2.084   3.103  10.631  0.7838 -0.8732  0.7928
17704TIP3   OH274526   3.132   3.001   5.259  0.4776  0.0678 -0.4495
17704TIP3    H174527   3.080   2.939   5.209  0.4256 -0.2712  0.0254
17704TIP3    H274528   3.211   2.953   5.283  2.3304  1.3005 -3.4031
17705TIP3   OH274529   3.549   6.475  10.929  0.0484  0.1505  0.4105
17705TIP3    H174530   3.575   6.384  10.941 -0.2309  0.3101  2.4810
17705TIP3    H274531   3.604   6.506  10.857  0.4841 -1.4925 -0.0094
17706TIP3   OH274532   1.052   0.742  15.705 -0.4153 -0.2463 -0.1581
17706TIP3    H174533   1.080   0.700  15.786 -1.7217 -1.6337 -0.3857
17706TIP3    H274534   1.134   0.768  15.663  0.4028 -1.5636  0.5441
17707TIP3   OH274535   0.905   3.220  14.009 -0.0037  0.5343  0.3938
17707TIP3    H174536   0.946   3.205  14.094 -2.0744  0.7656  1.5203
17707TIP3    H274537   0.969   3.271  13.959  1.7503 -0.6558  1.3445
17708TIP3   OH274538   4.109   5.224  12.800 -0.1594 -0.3398  0.0099
17708TIP3    H174539   4.193   5.271  12.798 -0.8267  0.8632 -1.6151
17708TIP3    H274540   4.076   5.231  12.711 -2.6952  0.4926  0.9471
17709TIP3   OH274541   4.052   1.100  16.857 -0.2957 -0.9630 -0.0377
17709TIP3    H174542   4.077   1.025  16.911 -3.6411 -2.0675  0.2514
17709TIP3    H274543   4.122   1.108  16.793  1.7631 -2.2509  1.8925
17710TIP3   OH274544   3.068   4.633   5.311  0.7502  0.2913 -0.2346
17710TIP3    H174545   3.058   4.610   5.403  0.5538 -1.5357 -0.6665
17710TIP3    H274546   2.978   4.642   5.279  0.7224 -1.3927 -0.7382
17711TIP3   OH274547   5.174   5.652  15.918  0.3692 -0.0899  0.1348
17711TIP3    H174548   5.109   5.638  15.849 -0.1707  0.9704  0.4131
17711TIP3    H274549   5.258   5.652  15.872  0.1065 -0.5432 -0.3536
17712TIP3   OH274550   1.236   6.618  13.418 -0.3555  0.1532  0.2465
17712TIP3    H174551   1.308   6.607  13.357 -1.4575 -0.4601 -0.9715
17712TIP3    H274552   1.192   6.534  13.420 -1.6374  0.7989  0.2090
17713TIP3   OH274553   4.460   2.489   2.024 -0.1298  0.2916 -0.4550
17713TIP3    H174554   4.376   2.444   2.029 -0.5023  0.9432 -0.7153
17713TIP3    H274555   4.480   2.492   1.931  0.1618  0.1899 -0.3979
17714TIP3   OH274556   1.592   5.560  11.612  1.0734 -0.0572  0.1774
17714TIP3    H174557   1.664   5.497  11.620 -1.1739 -3.3940 -2.8185
17714TIP3    H274558   1.608   5.604  11.529  0.3315  0.1134  0.1240
17715TIP3   OH274559   1.833   3.446   4.350  0.0171 -0.0883  0.1037
17715TIP3    H174560   1.922   3.425   4.321 -0.2492 -0.7328 -0.2669
17715TIP3    H274561   1.812   3.379   4.415  0.4494  1.0995  1.5364
17716TIP3   OH274562   3.672   3.110  16.520 -0.3813 -0.2713  0.0990
17716TIP3    H174563   3.578   3.121  16.505 -0.3843 -2.8515 -2.6036
17716TIP3    H274564   3.678   3.045  16.590 -0.5848 -0.0411  0.3337
17717TIP3   OH274565   5.054   3.265   0.936 -0.3171 -0.0150 -0.1270
17717TIP3    H174566   4.975   3.313   0.962 -1.0326 -0.6307 -1.0903
17717TIP3    H274567   5.028   3.172   0.940  1.3545 -0.4626  2.7689
17718TIP3   OH274568   5.049   4.060  13.520 -0.1876 -0.5191  0.6235
17718TIP3    H174569   5.095   4.000  13.578  1.2932  0.8727  0.9699
17718TIP3    H274570   4.963   4.072  13.561  0.6747  0.1210  2.3815
17719TIP3   OH274571   4.521   4.525  15.871 -0.2231 -0.0579  0.3354
17719TIP3    H174572   4.524   4.434  15.840  1.7591  0.9889 -3.1540
17719TIP3    H274573   4.428   4.542  15.887 -0.6690 -2.5812  0.7859
17720TIP3   OH274574   2.473   5.014  11.901  0.2422 -0.1883  0.1022
17720TIP3    H174575   2.401   4.958  11.872  1.1684 -0.5166 -1.6668
17720TIP3    H274576   2.447   5.102  11.874  0.6510 -0.3605 -0.9009
17721TIP3   OH274577   3.526   1.549  12.710 -0.5530 -0.0862  0.2871
17721TIP3    H174578   3.621   1.536  12.720 -0.5549  0.8247  2.0096
17721TIP3    H274579   3.511   1.638  12.743 -1.8372  0.3199 -1.2891
17722TIP3   OH274580   4.304   2.562  10.989  0.6042  0.2368 -0.1101
17722TIP3    H174581   4.320   2.483  10.936  1.8222 -0.1664  0.8203
17722TIP3    H274582   4.391   2.600  11.002 -0.0810  2.5696 -1.7338
17723TIP3   OH274583   3.898   3.644   3.002  0.1201  0.0967 -0.2311
17723TIP3    H174584   3.832   3.709   3.025  0.0855 -0.0797  0.1860
17723TIP3    H274585   3.890   3.577   3.070  0.7045  0.0557 -0.2000
17724TIP3   OH274586   6.073   1.176   1.069 -0.2080  0.5824 -0.3738
17724TIP3    H174587   6.141   1.188   1.003  1.3419 -1.2963  0.7893
17724TIP3    H274588   6.017   1.106   1.033  1.2786 -1.2383  0.6849
17725TIP3   OH274589   0.867   1.746  12.604  0.2451  0.1310  0.3142
17725TIP3    H174590   0.869   1.675  12.668  2.4110  2.0642  2.6178
17725TIP3    H274591   0.954   1.787  12.611 -0.1738  1.7575 -2.4045
17726TIP3   OH274592   3.378   4.154  15.992 -0.5518  0.6435 -0.6265
17726TIP3    H174593   3.362   4.184  16.082 -0.0712 -1.6817  0.3089
17726TIP3    H274594   3.303   4.185  15.942 -1.3482  1.1096  0.8107
17727TIP3   OH274595   6.001   4.734  15.661  0.4428 -0.7382  0.2555
17727TIP3    H174596   6.073   4.732  15.723  0.9255  1.4801 -0.1630
17727TIP3    H274597   5.924   4.755  15.714  0.2764 -1.9214  0.5187
17728TIP3   OH274598   4.545   5.786   1.927  0.0221 -0.0813 -0.1589
17728TIP3    H174599   4.531   5.741   2.010  1.5122 -0.9580 -0.3645
17728TIP3    H274600   4.564   5.717   1.864  0.2372  0.6711 -0.9475
17729TIP3   OH274601   5.038   3.323  11.488 -0.0011  0.3934 -0.1291
17729TIP3    H174602   5.028   3.228  11.485 -0.5378  0.4236  0.4905
17729TIP3    H274603   5.058   3.348  11.398  0.8872 -0.3808 -0.1635
17730TIP3   OH274604   2.641   5.738  15.859 -0.0854  0.3111  0.1024
17730TIP3    H174605   2.726   5.764  15.823  0.4068 -2.0115 -0.5600
17730TIP3    H274606   2.663   5.679  15.931 -1.1594  0.8153  0.8793
17731TIP3   OH274607   1.527   1.893  12.532  0.3767  0.0748  0.5843
17731TIP3    H174608   1.452   1.950  12.550  1.4031  1.0580  1.8970
17731TIP3    H274609   1.591   1.951  12.490 -0.4429 -1.2795 -2.8662
17732TIP3   OH274610   4.404   0.748   3.553 -0.2203  0.6814  0.3745
17732TIP3    H174611   4.484   0.752   3.606 -0.6358  1.2087  0.9661
17732TIP3    H274612   4.333   0.740   3.616 -0.8152  2.4430 -0.0210
17733TIP3   OH274613   5.570   1.267  16.417  0.2159  0.0779 -0.3245
17733TIP3    H174614   5.643   1.320  16.384 -0.0661  1.6308  1.3146
17733TIP3    H274615   5.605   1.178  16.422  1.7274  0.6330 -0.4008
17734TIP3   OH274616   5.820   1.636  12.720  0.2465 -0.1485 -0.0336
17734TIP3    H174617   5.754   1.574  12.750  0.4349 -0.4785 -0.2968
17734TIP3    H274618   5.904   1.591  12.733  0.4058  0.1724  0.0662
17735TIP3   OH274619   1.453   1.989  11.014 -0.3768 -0.1383  0.4144
17735TIP3    H174620   1.532   1.994  10.959 -1.5012  0.8436 -1.1826
17735TIP3    H274621   1.413   1.905  10.991  0.0691 -0.5468  1.0825
17736TIP3   OH274622   0.260   0.103   2.692 -0.6257  0.2511  0.1729
17736TIP3    H174623   0.304   0.027   2.654  0.1470  0.3555  0.8264
17736TIP3    H274624   0.167   0.081   2.689 -0.3175 -1.7422  2.4376
17737TIP3   OH274625   4.291   4.399   2.025 -0.4945  0.0231 -0.5225
17737TIP3    H174626   4.262   4.487   2.050  0.9094  0.4212 -0.1674
17737TIP3    H274627   4.281   4.346   2.104 -1.8105 -0.2800 -0.8752
17738TIP3   OH274628   0.040   4.682   1.512  0.1909  0.8210 -0.1998
17738TIP3    H174629   0.099   4.729   1.571  1.7460  0.5762 -1.4688
17738TIP3    H274630   0.098   4.625   1.461 -1.2390  0.1126 -1.0906
17739TIP3   OH274631   3.664   5.886   0.988  0.2960  0.2191  0.1273
17739TIP3    H174632   3.689   5.959   1.043 -0.5554 -1.2106  2.5490
17739TIP3    H274633   3.746   5.857   0.947  1.4497 -0.1798  2.5716
17740TIP3   OH274634   1.806   4.778  17.024  0.0742 -0.5778 -0.2769
17740TIP3    H174635   1.853   4.695  17.023 -0.5001 -0.9003 -0.2933
17740TIP3    H274636   1.718   4.757  16.995 -1.3442 -0.7134  3.5378
17741TIP3   OH274637   1.233   0.829  10.576 -0.5210  0.0935  0.2858
17741TIP3    H174638   1.235   0.768  10.502  1.8385  0.2331  0.1578
17741TIP3    H274639   1.188   0.782  10.645  0.4605 -1.4687 -0.0980
17742TIP3   OH274640   2.230   2.614  14.584 -0.2298 -0.2567  0.1160
17742TIP3    H174641   2.259   2.566  14.662  0.1597  0.9466  0.7309
17742TIP3    H274642   2.289   2.688  14.578 -0.4892 -0.1421 -1.1340
17743TIP3   OH274643   2.559   5.180   2.042 -0.6468 -0.2369  0.3345
17743TIP3    H174644   2.646   5.217   2.057 -0.9896  0.1484  1.4858
17743TIP3    H274645   2.548   5.116   2.112 -2.1503  1.3169  1.6286
17744TIP3   OH274646   5.836   3.034  14.506  0.0987 -0.2568  0.1896
17744TIP3    H174647   5.846   3.127  14.528 -0.1250  0.5757 -2.8702
17744TIP3    H274648   5.925   2.999  14.509  0.2177  0.0883  1.0824
17745TIP3   OH274649   3.840   0.431  14.466  0.1920  0.2859  0.4800
17745TIP3    H174650   3.927   0.413  14.429  0.3092  1.3685  0.2081
17745TIP3    H274651   3.792   0.472  14.394  0.6566  3.1662  1.6702
17746TIP3   OH274652   5.614   1.780  10.336 -0.1182 -0.2241  0.2131
17746TIP3    H174653   5.653   1.745  10.416  1.1689  1.4476  0.3679
17746TIP3    H274654   5.681   1.767  10.269 -0.2258  0.5607 -0.0555
17747TIP3   OH274655   3.044   1.370   5.774 -0.4229  0.5000  0.5331
17747TIP3    H174656   3.080   1.430   5.839  0.7787  1.9398 -1.3600
17747TIP3    H274657   3.033   1.287   5.822 -0.3512  1.6791  2.7365
17748TIP3   OH274658   0.996   4.341  13.421  0.0581  0.2095 -0.4381
17748TIP3    H174659   0.924   4.338  13.484  0.2677  2.5049  0.0010
17748TIP3    H274660   0.970   4.280  13.352 -0.9927 -1.0754  0.9921
17749TIP3   OH274661   3.244   0.097  12.530 -0.0487  0.2460 -0.0386
17749TIP3    H174662   3.199   0.131  12.452  0.4665  1.8806  0.3400
17749TIP3    H274663   3.334   0.081  12.500 -0.4710 -1.6353 -0.4201
17750TIP3   OH274664   3.417   6.029   2.971  0.0418 -0.7093 -0.1709
17750TIP3    H174665   3.471   5.952   2.993  0.7367 -0.2059 -0.0603
17750TIP3    H274666   3.350   6.031   3.039  1.1352 -0.1630  0.9480
17751TIP3   OH274667   0.084   2.747  17.134 -0.1162 -0.1972  0.2695
17751TIP3    H174668   0.148   2.814  17.112  0.2724 -0.2340  1.2245
17751TIP3    H274669   0.136   2.672  17.164 -0.5856 -0.3087  0.8362
17752TIP3   OH274670   5.110   3.521  15.925 -0.9127  0.4416  0.3360
17752TIP3    H174671   5.023   3.561  15.927 -0.7959  0.7457 -0.2735
17752TIP3    H274672   5.140   3.534  15.835 -1.2439 -1.8620 -0.1575
17753TIP3   OH274673   5.722   3.972   4.908  0.4582  0.3580 -0.3297
17753TIP3    H174674   5.653   3.920   4.949  1.6909 -1.5014 -0.5071
17753TIP3    H274675   5.707   4.061   4.940 -0.2834 -0.5105  1.9414
17754TIP3   OH274676   6.306   0.020   1.597  0.0269 -0.0729 -0.0601
17754TIP3    H174677   6.250   0.051   1.526 -1.1697  1.2954  1.3948
17754TIP3    H274678   6.368   0.092   1.612 -0.9375  0.4856  1.4741
17755TIP3   OH274679   6.445   1.728  13.114  0.2435  0.4850  0.2546
17755TIP3    H174680   6.491   1.804  13.080  0.2899  0.1464 -0.4638
17755TIP3    H274681   6.501   1.653  13.091  0.0836  0.2083  0.7372
17756TIP3   OH274682   0.022   6.762   5.386 -0.0666  0.4211  0.1424
17756TIP3    H174683   0.044   6.790   5.475  0.1615 -0.3212  0.3285
17756TIP3    H274684  -0.046   6.695   5.398 -0.0245  0.3091 -0.2392
17757TIP3   OH274685   1.773   0.114   2.006 -0.2653 -0.2507 -0.1480
17757TIP3    H174686   1.768   0.178   1.935 -0.0022  1.1160  1.0305
17757TIP3    H274687   1.699   0.054   1.990  0.3127 -0.5144 -2.0459
17758TIP3   OH274688   3.845   6.292   2.148  0.2805 -0.6419  0.6689
17758TIP3    H174689   3.767   6.324   2.104  0.4736 -0.2862  0.5715
17758TIP3    H274690   3.827   6.200   2.168  0.6828 -1.1966 -1.3052
17759TIP3   OH274691   4.605   3.607  14.309 -0.0124 -0.2455  0.4637
17759TIP3    H174692   4.538   3.575  14.249  1.7635 -1.2789 -1.0755
17759TIP3    H274693   4.597   3.703  14.305  0.4874 -0.2557 -2.0016
17760TIP3   OH274694   0.228   6.011  12.534  0.1228  0.0761 -0.1081
17760TIP3    H174695   0.240   5.920  12.563 -0.8780  0.5978  2.1657
17760TIP3    H274696   0.186   6.054  12.609 -0.1820  2.2224 -1.4477
17761TIP3   OH274697   5.916   2.925  15.734 -0.4814  0.1902 -0.6850
17761TIP3    H174698   5.996   2.919  15.786  0.1713  0.2892 -1.6549
17761TIP3    H274699   5.913   3.016  15.705 -1.0572  0.2367 -0.4938
17762TIP3   OH274700   6.263   1.776   4.443 -0.1387  0.7299 -0.6031
17762TIP3    H174701   6.245   1.829   4.365 -0.8303 -0.0713 -1.0027
17762TIP3    H274702   6.254   1.685   4.413  0.8578  0.3734  0.1067
17763TIP3   OH274703   3.190   1.108   1.794  0.1726 -0.2751 -0.0005
17763TIP3    H174704   3.144   1.192   1.799  0.1612 -0.2199 -0.8297
17763TIP3    H274705   3.119   1.042   1.795  0.0746 -0.1986 -1.0603
17764TIP3   OH274706   3.015   2.311   1.216 -0.4664 -0.9775  0.2611
17764TIP3    H174707   3.108   2.302   1.236 -0.1246  0.0969 -0.7573
17764TIP3    H274708   2.972   2.257   1.282  0.9050 -2.1181  0.2865
17765TIP3   OH274709   6.707   1.871   1.287 -0.2064 -0.2465 -0.1192
17765TIP3    H174710   6.766   1.810   1.244  0.7116  1.9190 -2.1799
17765TIP3    H274711   6.752   1.896   1.368  1.0458  0.2200 -0.9257
17766TIP3   OH274712   1.346   6.040   5.354  0.1994 -0.6525  0.3124
17766TIP3    H174713   1.296   6.023   5.274 -2.1091  1.0421  1.2732
17766TIP3    H274714   1.327   6.131   5.376  2.7193 -0.3240  1.5232
17767TIP3   OH274715   4.103   5.732   2.522 -0.1236 -0.1814  0.4254
17767TIP3    H174716   4.140   5.661   2.469  1.3995 -0.9927  2.4496
17767TIP3    H274717   4.171   5.799   2.523 -1.1959  0.9918 -0.7166
17768TIP3   OH274718   4.289   5.314   5.570  0.0322  0.4094  0.1766
17768TIP3    H174719   4.289   5.392   5.515  3.2541  0.1572 -0.3659
17768TIP3    H274720   4.199   5.280   5.564 -0.2638  1.4641 -3.3468
17769TIP3   OH274721   6.104   3.268   0.656  0.2961  1.1246  0.4324
17769TIP3    H174722   6.189   3.228   0.672  0.5157  1.5328  0.3149
17769TIP3    H274723   6.042   3.195   0.657  0.7399  0.7363 -0.2032
17770TIP3   OH274724   0.850   4.246   4.620  0.0690  0.1736 -0.1670
17770TIP3    H174725   0.813   4.159   4.608 -0.5621  0.3841  0.2129
17770TIP3    H274726   0.776   4.300   4.647  0.6619  0.5901  0.6756
17771TIP3   OH274727   4.958   1.115   5.190  0.0633  0.1391  0.1220
17771TIP3    H174728   5.045   1.083   5.167  0.6623  1.9019 -0.2509
17771TIP3    H274729   4.970   1.209   5.200 -1.7655  0.3798  0.2980
17772TIP3   OH274730   2.100   2.708  12.203  0.0900 -0.4625 -0.1280
17772TIP3    H174731   2.189   2.743  12.204  0.4023 -1.2423 -0.0125
17772TIP3    H274732   2.044   2.785  12.208  0.7807 -0.0451  2.4265
17773TIP3   OH274733   6.328   3.487   5.662 -0.3027  0.0987 -0.0892
17773TIP3    H174734   6.367   3.521   5.582 -0.9757  1.5589  0.1666
17773TIP3    H274735   6.237   3.518   5.660  0.1395  1.8072  2.0839
17774TIP3   OH274736   5.998   0.650  13.668 -0.0343 -0.0918  0.2819
17774TIP3    H174737   6.026   0.683  13.583  0.4346 -1.4305 -0.1184
17774TIP3    H274738   6.080   0.632  13.715 -0.2827 -0.0999  0.7192
17775TIP3   OH274739   3.472   5.125   1.093  0.6525 -0.2665  0.1747
17775TIP3    H174740   3.421   5.194   1.135 -0.9650 -1.1029 -0.3202
17775TIP3    H274741   3.563   5.150   1.108  0.1173  1.3716  0.9631
17776TIP3   OH274742   5.815   0.409   0.739  0.0608 -0.6139  0.4439
17776TIP3    H174743   5.889   0.412   0.799 -0.4778 -0.0685  1.0860
17776TIP3    H274744   5.812   0.496   0.699 -0.6149 -0.4207  0.8971
17777TIP3   OH274745   0.229   3.516   4.733 -0.1844 -0.1391  0.3485
17777TIP3    H174746   0.305   3.570   4.712 -0.7613  0.9481  0.9816
17777TIP3    H274747   0.250   3.479   4.819 -0.8835  1.1841  1.1208
17778TIP3   OH274748   4.570   1.708   1.540 -0.3721  0.0180 -0.0061
17778TIP3    H174749   4.591   1.788   1.586 -0.4672  0.0197  0.0338
17778TIP3    H274750   4.530   1.737   1.458 -0.6908  0.0067  0.1446
17779TIP3   OH274751   6.568   2.163   6.423  0.1048  0.1751 -0.6276
17779TIP3    H174752   6.550   2.100   6.493  1.4556 -0.0681 -0.4718
17779TIP3    H274753   6.482   2.181   6.384 -0.5726 -0.2474  0.6019
17780TIP3   OH274754   4.167   2.497   1.617  0.0311  0.2220  0.2002
17780TIP3    H174755   4.201   2.541   1.695 -1.8410  1.7620  0.2395
17780TIP3    H274756   4.075   2.482   1.636 -0.0371 -1.0770 -1.0096
17781TIP3   OH274757   0.179   0.893   2.842  0.4774  0.4342 -0.0804
17781TIP3    H174758   0.238   0.821   2.864  0.0393 -0.0241 -0.3868
17781TIP3    H274759   0.091   0.857   2.854  0.2103  0.2226 -2.3211
17782TIP3   OH274760   0.315   6.451  15.526 -0.1850 -0.1336 -0.9825
17782TIP3    H174761   0.220   6.462  15.522 -0.3868 -0.9952  0.6248
17782TIP3    H274762   0.348   6.539  15.544 -0.8863 -0.1608  0.6686
17783TIP3   OH274763   3.087   3.719  11.208 -0.3055  0.4404  0.5641
17783TIP3    H174764   3.019   3.772  11.250 -0.1646  0.3556  0.9073
17783TIP3    H274765   3.045   3.635  11.192 -0.4564  0.5741  0.2397
17784TIP3   OH274766   3.527   3.056  16.080 -0.0499 -0.4082  0.0542
17784TIP3    H174767   3.603   3.038  16.134  0.6602 -0.2421 -0.8666
17784TIP3    H274768   3.515   3.151  16.086 -0.9335 -0.5595  1.1462
17785TIP3   OH274769   1.061   1.892  17.173  0.2792 -0.5518  0.2471
17785TIP3    H174770   1.114   1.825  17.217  0.9023  0.4955  1.1411
17785TIP3    H274771   1.026   1.945  17.244  1.3963  1.2558 -0.4912
17786TIP3   OH274772   4.061   5.695  10.380 -0.6805  0.7302  0.0655
17786TIP3    H174773   3.994   5.634  10.350  1.1584 -0.6416 -1.4995
17786TIP3    H274774   4.077   5.670  10.471  0.1617 -1.3350 -0.5898
17787TIP3   OH274775   4.824   1.386   2.663 -0.5933  0.2342  1.0894
17787TIP3    H174776   4.819   1.333   2.583 -2.2325 -0.1588  1.4170
17787TIP3    H274777   4.875   1.463   2.638 -1.8041  0.5490 -0.5948
17788TIP3   OH274778   4.576   5.036   0.812  0.0036 -0.2499 -0.7008
17788TIP3    H174779   4.501   5.096   0.815  0.5711  0.4823 -1.0878
17788TIP3    H274780   4.541   4.957   0.770 -0.2361  0.5851 -2.1638
17789TIP3   OH274781   2.003   2.857  11.829  0.4573  0.0243 -0.0023
17789TIP3    H174782   1.976   2.767  11.814 -1.8217  0.7950 -0.9333
17789TIP3    H274783   1.948   2.886  11.902 -0.1991  1.2189 -0.9547
17790TIP3   OH274784   5.663   2.146  16.676  0.0030  0.0591 -0.3633
17790TIP3    H174785   5.615   2.070  16.641 -0.3479  0.3815 -0.5827
17790TIP3    H274786   5.746   2.145  16.628  0.3660 -0.6979  0.2547
17791TIP3   OH274787   2.813   1.542  14.589 -0.3119 -0.1885  0.3382
17791TIP3    H174788   2.769   1.627  14.599  0.2238  0.5270 -2.5695
17791TIP3    H274789   2.896   1.553  14.637 -1.0677  0.2105  1.6100
17792TIP3   OH274790   0.754   1.753   2.123 -0.1177 -0.4182  0.2413
17792TIP3    H174791   0.832   1.712   2.160  1.2133  1.8042  0.0808
17792TIP3    H274792   0.745   1.713   2.036  1.6469  0.1826 -0.2603
17793TIP3   OH274793   2.161   3.150  15.746 -0.3043  0.8006  0.0784
17793TIP3    H174794   2.160   3.110  15.833  1.0475  1.9424  0.6479
17793TIP3    H274795   2.242   3.201  15.744 -1.3960  2.5744 -1.0309
17794TIP3   OH274796   0.504   1.113   2.677 -0.3912  0.0857  0.1289
17794TIP3    H174797   0.557   1.192   2.667 -0.6787  0.1936 -0.6342
17794TIP3    H274798   0.567   1.045   2.702 -0.1738  0.5878  0.9604
17795TIP3   OH274799   2.542   2.577  12.605 -0.0797 -0.5668  0.5600
17795TIP3    H174800   2.556   2.483  12.602  2.8696 -0.1951 -0.6207
17795TIP3    H274801   2.560   2.602  12.696  2.2735 -0.8181  0.2129
17796TIP3   OH274802   0.924   6.435  13.277 -0.2240 -0.5502 -0.0661
17796TIP3    H174803   0.904   6.366  13.214  0.3073  0.5982 -1.5452
17796TIP3    H274804   0.841   6.480  13.290 -0.3707 -0.8890  0.1954
17797TIP3   OH274805   5.572   6.602   3.226 -0.0996  0.2471  0.1623
17797TIP3    H174806   5.582   6.513   3.192  0.6249 -0.8297  2.8721
17797TIP3    H274807   5.637   6.653   3.179 -0.1416 -0.7885 -1.0669
17798TIP3   OH274808   6.396   4.983  14.928 -0.0188  0.1243  0.1158
17798TIP3    H174809   6.387   4.888  14.928 -0.4998  0.0733  3.3484
17798TIP3    H274810   6.372   5.009  14.839 -2.1285 -2.6004 -0.2508
17799TIP3   OH274811   0.294   1.744   0.535  0.1814 -0.0364  0.2405
17799TIP3    H174812   0.339   1.786   0.462 -0.4534  0.4038  0.0933
17799TIP3    H274813   0.225   1.805   0.560  0.5833 -0.0330  1.4252
17800TIP3   OH274814   6.404   2.154   3.560  0.5055  0.4952 -0.2968
17800TIP3    H174815   6.351   2.150   3.639 -0.5227 -1.9396 -1.0268
17800TIP3    H274816   6.448   2.069   3.556 -0.5432 -0.0130 -3.0086
17801TIP3   OH274817   3.948   1.547  15.798 -0.8007  0.1406 -0.5718
17801TIP3    H174818   3.897   1.615  15.754 -1.9228 -0.8104 -0.8013
17801TIP3    H274819   3.963   1.481  15.731  1.5575  0.7779 -0.7505
17802TIP3   OH274820   0.259   0.011  16.803  0.0578  0.5562  0.0075
17802TIP3    H174821   0.282   0.063  16.880  2.4642 -0.0107 -0.2405
17802TIP3    H274822   0.256  -0.079  16.835  0.1533  0.4133 -0.3815
17803TIP3   OH274823   0.583   5.966   3.107 -1.1322  0.6468  0.4193
17803TIP3    H174824   0.520   6.009   3.049 -0.9229 -0.2818 -0.5363
17803TIP3    H274825   0.557   5.874   3.108  0.8412 -0.0073 -0.9569
17804TIP3   OH274826   0.932   0.017  11.395  0.2771 -0.1379 -0.2537
17804TIP3    H174827   1.016  -0.027  11.405 -0.5101 -1.5185  0.7638
17804TIP3    H274828   0.876  -0.048  11.352 -0.2008  0.8825 -1.2347
17805TIP3   OH274829   3.214   3.007   3.164 -0.1375  0.0406  0.4838
17805TIP3    H174830   3.194   3.083   3.218  1.0709  0.2802  0.6166
17805TIP3    H274831   3.254   3.044   3.085  0.3499 -0.4437  0.4990
17806TIP3   OH274832   3.622   1.859  16.714  0.8291 -0.4246  0.2021
17806TIP3    H174833   3.707   1.831  16.747  0.7891 -1.6477 -0.6766
17806TIP3    H274834   3.563   1.786  16.734  0.3646 -0.3206 -0.7279
17807TIP3   OH274835   2.926   4.351   5.151  0.1434  0.4327  0.0454
17807TIP3    H174836   2.880   4.267   5.155  1.1526 -0.1457 -0.0788
17807TIP3    H274837   2.906   4.393   5.235 -0.6534  0.2316 -0.0352
17808TIP3   OH274838   3.749   0.298  12.727 -0.0080  0.0915 -0.2777
17808TIP3    H174839   3.707   0.322  12.810 -0.4710 -1.8335  0.0902
17808TIP3    H274840   3.800   0.375  12.703 -0.0501  0.7829  1.6737
17809TIP3   OH274841   2.758   0.741  16.945  0.2584 -0.2207 -0.4250
17809TIP3    H174842   2.678   0.793  16.951 -0.4532 -1.4032  0.8380
17809TIP3    H274843   2.789   0.735  17.036 -0.0714 -2.5532 -0.4137
17810TIP3   OH274844   2.545   5.781  12.239 -0.7524 -0.3490  0.4057
17810TIP3    H174845   2.604   5.783  12.163 -0.1743  0.1062  0.8616
17810TIP3    H274846   2.574   5.853  12.294 -1.7882 -0.0773  0.6074
17811TIP3   OH274847   3.857   3.198  12.462 -0.5718 -0.1591  0.0410
17811TIP3    H174848   3.770   3.231  12.484 -0.4511  1.1470 -1.3367
17811TIP3    H274849   3.842   3.136  12.391 -0.3083  0.7603 -0.8325
17812TIP3   OH274850   5.289   0.991  12.077  0.5960 -0.1759  0.3757
17812TIP3    H174851   5.301   0.898  12.098  0.3235  0.0364  1.5640
17812TIP3    H274852   5.267   0.992  11.984  1.2171 -1.2494  0.2019
17813TIP3   OH274853   0.501   2.640  14.424  0.0454 -0.4568 -0.1266
17813TIP3    H174854   0.500   2.595  14.339 -0.1081  0.8773 -0.8627
17813TIP3    H274855   0.593   2.639  14.449  0.4667  1.1115 -1.4415
17814TIP3   OH274856   5.243   5.803  16.313 -0.1341  0.4281  0.1683
17814TIP3    H174857   5.154   5.784  16.340 -0.0013 -0.3148  0.1232
17814TIP3    H274858   5.242   5.894  16.284 -0.6954  0.6535  0.9007
17815TIP3   OH274859   2.678   5.501   1.086  0.0338 -0.0557 -0.0608
17815TIP3    H174860   2.759   5.453   1.102 -1.4239 -1.6139  3.7588
17815TIP3    H274861   2.679   5.572   1.151 -1.0912  0.6826 -0.8171
17816TIP3   OH274862   0.040   1.945   0.867  0.2821 -0.1762  0.3135
17816TIP3    H174863   0.070   1.999   0.794 -0.8814  0.9052  0.5944
17816TIP3    H274864   0.003   1.867   0.826 -2.0785  1.2344 -0.4549
17817TIP3   OH274865   2.429   2.984   6.079 -0.1760  0.4127 -1.0639
17817TIP3    H174866   2.403   2.893   6.096  1.6069  0.1614  0.6724
17817TIP3    H274867   2.524   2.980   6.069  0.1760  2.2822  0.8218
17818TIP3   OH274868   4.989   3.898  15.237  0.1911 -0.3334  0.2145
17818TIP3    H174869   5.021   3.830  15.297  0.4591 -0.0080  0.4510
17818TIP3    H274870   5.068   3.945  15.211 -0.1804  1.1884  1.6716
17819TIP3   OH274871   6.299   3.425   4.619  0.0619 -0.0235 -0.2254
17819TIP3    H174872   6.260   3.421   4.532 -1.2476 -0.6268  0.3565
17819TIP3    H274873   6.248   3.492   4.665  3.7216  3.9483 -1.2343
17820TIP3   OH274874   1.720   1.255   1.013 -0.8901 -0.7080 -0.0204
17820TIP3    H174875   1.670   1.309   1.073 -0.3897  1.1866 -1.2259
17820TIP3    H274876   1.684   1.275   0.926 -0.1892 -1.7508 -0.5786
17821TIP3   OH274877   3.059   0.156  12.312  0.0598  0.2566  0.5759
17821TIP3    H174878   2.965   0.142  12.300  0.1604 -0.8796  0.9460
17821TIP3    H274879   3.100   0.113  12.237  0.2925  0.5694  0.5221
17822TIP3   OH274880   6.260   3.094   1.256 -0.0103 -0.2378 -0.6073
17822TIP3    H174881   6.234   3.178   1.219  1.1837  0.7032  0.6178
17822TIP3    H274882   6.352   3.086   1.234 -0.0275 -1.0721 -0.4021
17823TIP3   OH274883   1.353   1.742  10.905 -0.0053 -0.3344 -0.5528
17823TIP3    H174884   1.430   1.686  10.892  0.4760  0.5291 -1.6212
17823TIP3    H274885   1.293   1.716  10.835 -0.5412 -0.7318  0.0389
17824TIP3   OH274886   2.554   4.541  10.718  0.1498 -0.0249 -0.5612
17824TIP3    H174887   2.625   4.477  10.726 -0.0372 -0.3120 -1.1290
17824TIP3    H274888   2.477   4.488  10.700 -0.1875  0.2959 -0.0653
17825TIP3   OH274889   1.991   4.481   2.266 -0.0554  0.4587 -0.0429
17825TIP3    H174890   2.015   4.534   2.342  0.9932 -0.2332  0.1291
17825TIP3    H274891   2.018   4.533   2.191 -0.4648  0.8432  0.0708
17826TIP3   OH274892   2.314   5.703  14.445 -0.1185  0.3746 -0.7829
17826TIP3    H174893   2.406   5.686  14.468 -0.2954 -1.1858 -1.1204
17826TIP3    H274894   2.273   5.726  14.528  0.1785 -0.8994 -0.2523
17827TIP3   OH274895   2.113   2.009  15.294 -0.2518  0.2781 -0.5933
17827TIP3    H174896   2.046   2.075  15.311 -1.3612 -0.7709 -0.6678
17827TIP3    H274897   2.066   1.940  15.246  0.7169 -0.8164 -0.0236
17828TIP3   OH274898   4.778   6.649   0.412  0.4937  0.8616  0.7619
17828TIP3    H174899   4.683   6.649   0.426  0.1472 -0.3292 -1.2480
17828TIP3    H274900   4.807   6.565   0.448  0.9556  1.6154  2.2023
17829TIP3   OH274901   2.955   2.117  16.481  0.3706  0.2033 -0.2673
17829TIP3    H174902   2.980   2.028  16.455  1.5927  0.6513 -0.6864
17829TIP3    H274903   2.935   2.162  16.399 -1.2836  0.0344  0.0191
17830TIP3   OH274904   6.606   1.724  11.714  0.0960  0.3538 -0.1956
17830TIP3    H174905   6.626   1.660  11.782 -0.3284 -0.5952 -0.9409
17830TIP3    H274906   6.587   1.805  11.761 -1.3154 -0.5655  0.9049
17831TIP3   OH274907   1.387   3.760   1.330 -0.4459  0.1897  0.2999
17831TIP3    H174908   1.470   3.778   1.287  0.8094 -1.8075  1.7298
17831TIP3    H274909   1.385   3.665   1.343 -3.3405  0.0380 -0.3819
17832TIP3   OH274910   1.061   5.759  13.181 -0.1451 -0.2477 -0.1551
17832TIP3    H174911   1.064   5.785  13.089 -1.4820 -1.4553 -0.5787
17832TIP3    H274912   1.153   5.757  13.209  0.2322  0.8874 -1.2227
17833TIP3   OH274913   0.102   6.755  13.400  0.0625  0.7296  0.2575
17833TIP3    H174914   0.192   6.788  13.402  1.5650 -2.6636  3.8166
17833TIP3    H274915   0.104   6.684  13.337  0.9697 -1.3281  2.4188
17834TIP3   OH274916   2.761   4.527  14.247  0.1808 -0.3135  0.3984
17834TIP3    H174917   2.786   4.436  14.231 -0.0518 -0.2459 -0.3577
17834TIP3    H274918   2.819   4.579  14.191 -1.8747 -0.1710 -1.7476
17835TIP3   OH274919   1.445   6.402   5.185 -0.3123 -0.5640 -0.3837
17835TIP3    H174920   1.368   6.354   5.154 -0.4848  0.6243 -1.8740
17835TIP3    H274921   1.516   6.372   5.129  0.6018 -2.3565  1.5783
17836TIP3   OH274922   1.322   1.526   5.760 -0.8367  0.1301  0.0786
17836TIP3    H174923   1.348   1.591   5.694 -0.6686 -0.9555 -0.9649
17836TIP3    H274924   1.373   1.548   5.837 -0.0007  0.6159 -0.5945
17837TIP3   OH274925   0.932   5.438  12.514 -0.1812 -0.1862  0.0018
17837TIP3    H174926   0.965   5.524  12.539  0.1512 -0.1525 -0.5256
17837TIP3    H274927   0.856   5.456  12.458 -1.3538 -0.2678  1.5207
17838TIP3   OH274928   3.511   1.392   1.940  0.2357 -0.3440 -0.5522
17838TIP3    H174929   3.510   1.474   1.990 -0.6634 -0.0062 -1.0969
17838TIP3    H274930   3.508   1.420   1.849  0.6589 -0.9813 -0.7668
17839TIP3   OH274931   0.243   0.079  15.173  0.1134 -1.0498 -0.1963
17839TIP3    H174932   0.218   0.006  15.230  2.3352 -1.4330  0.3889
17839TIP3    H274933   0.334   0.096  15.196 -0.3923  2.0681 -0.1772
17840TIP3   OH274934   1.537   2.537  13.492  0.0138 -0.7621  0.0665
17840TIP3    H174935   1.465   2.494  13.537  0.7769 -0.3044  1.8388
17840TIP3    H274936   1.601   2.467  13.478  0.6717 -0.5429  1.7011
17841TIP3   OH274937   5.642   4.403   4.700  0.5939  0.7798  0.0894
17841TIP3    H174938   5.652   4.446   4.615 -1.6827  1.2319 -0.0107
17841TIP3    H274939   5.642   4.309   4.680  0.7608  0.8672 -0.3180
17842TIP3   OH274940   3.718   4.801   2.015 -0.3497  0.1126  0.1242
17842TIP3    H174941   3.736   4.839   2.101 -0.7042  1.2914 -0.2976
17842TIP3    H274942   3.672   4.719   2.034 -2.3502  1.3737  1.0518
17843TIP3   OH274943   5.450   5.976  11.177 -0.3881  0.2346  0.6154
17843TIP3    H174944   5.499   5.986  11.259  0.8542  0.4939 -0.1326
17843TIP3    H274945   5.420   5.885  11.178 -0.0010  0.1104  1.1574
17844TIP3   OH274946   3.212   0.832   3.066 -0.7361  0.0166 -0.2352
17844TIP3    H174947   3.220   0.866   2.977 -2.0107 -0.9180 -0.7293
17844TIP3    H274948   3.209   0.910   3.121 -1.4301  0.6528 -1.1459
17845TIP3   OH274949   1.690   0.707   0.292  0.2224  0.6846  0.1299
17845TIP3    H174950   1.713   0.793   0.327 -1.2990  1.3776 -0.4776
17845TIP3    H274951   1.653   0.660   0.366  0.3895  0.8090  0.2935
17846TIP3   OH274952   6.347   5.229   2.792 -0.1428  0.1275 -0.2856
17846TIP3    H174953   6.253   5.229   2.777 -0.5840  1.4948  1.9884
17846TIP3    H274954   6.364   5.147   2.839 -0.3390  0.2538  0.0056
17847TIP3   OH274955   4.042   6.510  12.164  0.1678 -0.1775  0.3195
17847TIP3    H174956   4.120   6.499  12.219  1.1862  2.9811 -0.2858
17847TIP3    H274957   3.974   6.537  12.226  0.2831 -0.3724  0.5334
17848TIP3   OH274958   5.202   1.904   4.726  0.2297  0.3403  0.0589
17848TIP3    H174959   5.205   1.811   4.704 -0.9731  0.4512 -0.6413
17848TIP3    H274960   5.138   1.910   4.797 -0.2154  0.7086 -0.3651
17849TIP3   OH274961   5.388   1.720  13.290 -0.1686 -0.0573  0.2286
17849TIP3    H174962   5.361   1.640  13.245  0.2156  0.0693 -0.2338
17849TIP3    H274963   5.367   1.704  13.382 -2.5655  0.3303 -0.1871
17850TIP3   OH274964   0.782   6.740  13.019  0.3634  0.0065 -0.0643
17850TIP3    H174965   0.732   6.814  12.984  0.1164  0.1625  0.6021
17850TIP3    H274966   0.737   6.717  13.100 -0.3470 -1.7180 -0.8946
17851TIP3   OH274967   3.172   3.284   0.586 -0.6263  0.0731 -0.3176
17851TIP3    H174968   3.197   3.320   0.501 -2.3266  0.9388 -0.5029
17851TIP3    H274969   3.179   3.358   0.646 -1.0491 -0.0935 -0.0540
17852TIP3   OH274970   6.568   6.787   5.808 -0.9669  0.2892 -0.0380
17852TIP3    H174971   6.483   6.758   5.775 -1.4460  1.1610  0.4103
17852TIP3    H274972   6.569   6.881   5.792 -0.0376  0.2764 -0.1253
17853TIP3   OH274973   4.016   0.092   2.581  0.5502  0.1021 -0.1768
17853TIP3    H174974   4.027   0.108   2.487  3.1277 -0.8386 -0.1026
17853TIP3    H274975   3.996   0.179   2.617 -3.0761  0.1248 -1.7903
17854TIP3   OH274976   2.166   1.122  14.752 -0.8006  0.7413 -0.0085
17854TIP3    H174977   2.242   1.152  14.801  1.1311 -0.0905 -2.2920
17854TIP3    H274978   2.136   1.199  14.704 -2.2578  1.3761  1.7790
17855TIP3   OH274979   3.850   3.867   6.267 -0.0783  0.0963 -0.5478
17855TIP3    H174980   3.858   3.797   6.202  0.1595 -0.7030  0.3174
17855TIP3    H274981   3.757   3.890   6.267 -0.1937 -0.3587 -0.6997
17856TIP3   OH274982   2.607   2.421  14.655  0.4298  0.0903 -0.0135
17856TIP3    H174983   2.678   2.456  14.709  0.0753 -0.0640  0.5577
17856TIP3    H274984   2.606   2.479  14.578  1.7261 -0.4150 -0.4491
17857TIP3   OH274985   1.268   6.305  17.145  0.0489  0.8188  0.1897
17857TIP3    H174986   1.265   6.387  17.195 -0.6410 -0.3419  2.1923
17857TIP3    H274987   1.354   6.268  17.165  0.1104  0.7509 -0.1945
17858TIP3   OH274988   5.798   2.254  13.600 -0.4481 -0.4876 -0.1388
17858TIP3    H174989   5.883   2.298  13.602 -0.2714 -0.8478  0.4923
17858TIP3    H274990   5.789   2.222  13.510 -0.7280  1.0986 -0.7032
17859TIP3   OH274991   0.492   4.083  14.983  0.4798 -0.1310  0.1306
17859TIP3    H174992   0.490   4.137  14.904  0.6418  0.2988  0.4127
17859TIP3    H274993   0.400   4.066  15.003  0.4630 -2.1126 -1.3802
17860TIP3   OH274994   1.237   4.454   5.303 -0.6464 -0.4213 -0.4620
17860TIP3    H174995   1.157   4.418   5.265 -1.2231  0.7944 -0.4642
17860TIP3    H274996   1.212   4.481   5.391 -0.0625 -0.6274 -0.2289
17861TIP3   OH274997   4.357   2.221   3.840  0.2557  0.7451 -0.4228
17861TIP3    H174998   4.402   2.200   3.758  1.7003  0.3139  0.4434
17861TIP3    H274999   4.427   2.247   3.900 -0.5332 -0.7931  1.2503
17862TIP3   OH275000   0.478   5.028  14.411  0.1210 -0.1457 -0.5699
17862TIP3    H175001   0.480   4.965  14.484  2.4300 -0.7900 -1.1086
17862TIP3    H275002   0.559   5.078  14.421 -0.8953  1.6874 -1.1050
17863TIP3   OH275003   2.297   4.546   0.393 -0.3332  0.0165  0.7512
17863TIP3    H175004   2.384   4.552   0.354 -0.7724 -0.0262 -0.2527
17863TIP3    H275005   2.291   4.622   0.451  0.3264  0.0771  0.7428
17864TIP3   OH275006   6.548   3.809   1.940  0.2063  0.1462  0.6335
17864TIP3    H175007   6.496   3.888   1.954 -0.2835 -0.0290 -0.1493
17864TIP3    H275008   6.603   3.829   1.864  0.0205 -0.2940  0.3796
17865TIP3   OH275009   2.159   2.917   1.631  0.2458 -0.1209  0.2869
17865TIP3    H175010   2.212   2.848   1.672 -0.1483 -1.5990 -1.5262
17865TIP3    H275011   2.070   2.882   1.632  0.2029 -0.1817 -1.6303
17866TIP3   OH275012   0.924   0.506  13.046 -0.1392  0.0535  0.1163
17866TIP3    H175013   0.965   0.554  13.118 -0.1012  1.0401 -0.5483
17866TIP3    H275014   0.850   0.461  13.087 -2.5084  3.6142  0.2327
17867TIP3   OH275015   4.292   4.227   0.046 -0.1926  0.2473  0.4048
17867TIP3    H175016   4.295   4.218   0.142 -1.1191 -1.8912  0.2880
17867TIP3    H275017   4.208   4.190   0.021  0.4868 -0.2368 -1.3144
17868TIP3   OH275018   1.061   5.522  16.707  0.1505 -0.3249 -0.2376
17868TIP3    H175019   1.134   5.564  16.751 -0.6357  1.5221 -0.6334
17868TIP3    H275020   1.053   5.568  16.623 -1.1994 -0.7702 -0.3799
17869TIP3   OH275021   6.215   4.127  13.124  0.4643 -0.1039 -0.7881
17869TIP3    H175022   6.211   4.214  13.084 -0.6640  0.8932  1.3107
17869TIP3    H275023   6.124   4.106  13.145  0.8927 -0.9652  0.3292
17870TIP3   OH275024   0.202   1.559  16.379 -0.4042 -0.2326 -0.5362
17870TIP3    H175025   0.106   1.554  16.385 -0.4626 -0.8160 -1.6338
17870TIP3    H275026   0.219   1.596  16.293  0.3683 -0.5743 -0.5403
17871TIP3   OH275027   3.590   6.245   3.814 -0.1472  0.4737  0.1391
17871TIP3    H175028   3.580   6.180   3.744  0.1501  0.9613 -0.3698
17871TIP3    H275029   3.681   6.235   3.842 -0.6825 -0.8306  1.6028
17872TIP3   OH275030   6.163   3.238  15.118 -0.1978  0.0715  1.3714
17872TIP3    H175031   6.082   3.282  15.091 -0.1025  0.7027  2.0661
17872TIP3    H275032   6.181   3.273  15.206  0.4294 -0.6157  1.5286
17873TIP3   OH275033   6.159   4.060  12.015  0.0147  0.6620  0.3695
17873TIP3    H175034   6.254   4.067  12.025 -0.0056  0.6658  0.5776
17873TIP3    H275035   6.147   3.998  11.943  0.1856  2.7325 -1.5395
17874TIP3   OH275036   1.331   6.265  15.453 -0.8917  0.5170 -0.7766
17874TIP3    H175037   1.299   6.188  15.406  0.8154  0.0130 -1.1901
17874TIP3    H275038   1.332   6.334  15.387 -0.8337  0.4502 -0.8463
17875TIP3   OH275039   2.442   6.391   3.198  0.2481 -0.0958 -0.2740
17875TIP3    H175040   2.379   6.341   3.147 -0.0608  0.9832 -0.9922
17875TIP3    H275041   2.396   6.472   3.221 -0.2527 -1.2111  3.2488
17876TIP3   OH275042   1.921   3.508  11.324  0.3300  0.3339  0.4276
17876TIP3    H175043   2.005   3.469  11.300 -0.3023 -0.0003 -1.4150
17876TIP3    H275044   1.857   3.460  11.272 -0.6973  2.3963 -0.3108
17877TIP3   OH275045   4.741   3.042  15.632 -0.5083  0.5360 -0.1926
17877TIP3    H175046   4.769   2.961  15.676  3.7011  1.1564 -1.2960
17877TIP3    H275047   4.778   3.035  15.544 -0.8559  3.2173 -0.6207
17878TIP3   OH275048   2.974   0.800  14.680  0.2109  0.0864  0.2322
17878TIP3    H175049   2.943   0.851  14.605 -0.1279 -1.2572 -0.5831
17878TIP3    H275050   3.061   0.769  14.655 -0.2684 -1.1330 -0.0382
17879TIP3   OH275051   6.571   4.609   1.551 -0.1715  0.0255 -0.2847
17879TIP3    H175052   6.643   4.653   1.505  1.0276  0.6893  2.0204
17879TIP3    H275053   6.543   4.540   1.491  3.5848 -1.4164 -0.7101
17880TIP3   OH275054   1.736   1.750   0.029  0.9142 -0.1052  0.4501
17880TIP3    H175055   1.692   1.826  -0.008  1.4192 -0.8017 -1.7551
17880TIP3    H275056   1.679   1.676   0.007  2.1522 -0.7663 -0.6736
17881TIP3   OH275057   4.938   4.749  14.262 -0.2037 -0.0292  0.7641
17881TIP3    H175058   5.010   4.723  14.320 -0.2852 -1.5522  0.2323
17881TIP3    H275059   4.950   4.843  14.249  0.9442 -0.0258  1.6926
17882TIP3   OH275060   2.779   2.356  15.617  0.3127 -0.0383  0.0816
17882TIP3    H175061   2.791   2.359  15.712  0.0171  0.4551  0.1079
17882TIP3    H275062   2.861   2.389  15.582  0.1203  0.5725  0.1904
17883TIP3   OH275063   4.951   2.936  11.776  0.1128 -0.3358 -0.9456
17883TIP3    H175064   4.975   2.879  11.850 -0.4476 -0.0996 -0.5784
17883TIP3    H275065   4.956   3.025  11.811 -3.2818 -0.3055 -0.1939
17884TIP3   OH275066   2.849   3.743  17.054  0.4767 -0.0516 -0.2099
17884TIP3    H175067   2.916   3.675  17.063 -0.6042 -0.9207  2.3160
17884TIP3    H275068   2.822   3.739  16.963  1.5914 -1.9080 -0.5059
17885TIP3   OH275069   3.278   3.105  14.983 -0.0900  0.3691  0.2043
17885TIP3    H175070   3.312   3.190  15.010 -1.0633  1.3653 -1.4812
17885TIP3    H275071   3.355   3.056  14.954  0.4456  0.8066  0.8604
17886TIP3   OH275072   5.358   1.283  13.586 -0.4396  0.0435 -0.1445
17886TIP3    H175073   5.442   1.300  13.628 -0.0049 -1.1764 -0.5026
17886TIP3    H275074   5.302   1.250  13.656 -0.1109 -0.7303 -0.2381
17887TIP3   OH275075   6.653   2.068  12.808 -0.2016  0.1609  0.5548
17887TIP3    H175076   6.691   2.049  12.722 -0.6887  0.2846  0.3114
17887TIP3    H275077   6.723   2.113  12.855 -0.4931  1.6703 -0.3887
17888TIP3   OH275078   3.648   2.185   3.490 -0.7996 -0.1004  0.6949
17888TIP3    H175079   3.576   2.125   3.470 -0.1457 -1.2157  1.5754
17888TIP3    H275080   3.727   2.134   3.471 -0.2312  0.4843  1.4544
17889TIP3   OH275081   4.456   5.904  14.315 -0.6107 -0.2544  0.1395
17889TIP3    H175082   4.419   5.828  14.271  0.4654 -0.3637 -0.6179
17889TIP3    H275083   4.477   5.874  14.403 -1.4522 -0.4432  0.2824
17890TIP3   OH275084   1.552   5.278  15.660 -0.4888 -0.0824 -0.9149
17890TIP3    H175085   1.541   5.316  15.573 -0.6940  0.0665 -0.8229
17890TIP3    H275086   1.644   5.250  15.662 -0.0160  1.4361 -0.5642
17891TIP3   OH275087   6.550   0.033  15.727 -0.4592 -0.8160  0.8530
17891TIP3    H175088   6.535  -0.050  15.682  0.8847 -0.0211 -1.1899
17891TIP3    H275089   6.608   0.010  15.800  0.6029 -1.5810 -0.1920
17892TIP3   OH275090   3.170   2.568  11.166 -0.9178 -0.1596 -0.0240
17892TIP3    H175091   3.114   2.633  11.207 -0.4622 -0.2476  0.7631
17892TIP3    H275092   3.116   2.529  11.098 -2.1150 -0.8496  1.2755
17893TIP3   OH275093   0.677   2.777  15.009  0.0764  0.3286 -0.1169
17893TIP3    H175094   0.706   2.866  15.030 -1.2735  1.1884 -1.6525
17893TIP3    H275095   0.582   2.781  15.013 -0.0343 -0.8278 -1.0434
17894TIP3   OH275096   5.032   1.035   3.708 -0.1913 -0.7744 -0.4057
17894TIP3    H175097   4.987   1.084   3.640 -0.9426 -0.7312  0.1178
17894TIP3    H275098   5.125   1.053   3.693 -0.4289  0.3838 -0.5383
17895TIP3   OH275099   4.622   5.125   4.559  0.0800 -0.0730  0.3112
17895TIP3    H175100   4.574   5.138   4.641 -0.5368 -3.2437  0.5803
17895TIP3    H275101   4.647   5.032   4.560  3.0425  0.5610 -1.5535
17896TIP3   OH275102   5.894   6.258   2.539 -0.1310  0.1063  0.6080
17896TIP3    H175103   5.890   6.180   2.484  1.7889 -0.7135  1.5301
17896TIP3    H275104   5.972   6.305   2.507  0.4254  0.1233  1.9411
17897TIP3   OH275105   0.876   1.929   5.456 -0.1849 -0.3438 -0.7751
17897TIP3    H175106   0.881   1.837   5.482 -1.6463 -0.2742 -0.1094
17897TIP3    H275107   0.812   1.930   5.385 -0.2245  0.1550 -0.7345
17898TIP3   OH275108   2.504   1.221  17.152  0.1057  0.0552 -0.0211
17898TIP3    H175109   2.537   1.212  17.242  1.7079  2.8775 -0.2051
17898TIP3    H275110   2.506   1.315  17.135 -1.7251 -0.2518 -2.4973
17899TIP3   OH275111   5.600   5.478  15.081 -0.0749 -0.4935  0.4447
17899TIP3    H175112   5.516   5.476  15.035  0.9728  4.1327 -2.2361
17899TIP3    H275113   5.665   5.453  15.015  0.9950 -0.3917  1.4229
17900TIP3   OH275114   6.018   5.072  13.332 -0.0318 -0.3704 -0.3906
17900TIP3    H175115   5.960   5.044  13.261 -0.9211  1.0333 -0.2544
17900TIP3    H275116   6.049   4.991  13.371 -3.0803 -1.2660  0.4757
17901TIP3   OH275117   4.685   2.263  11.913 -0.2960  0.0618  0.0751
17901TIP3    H175118   4.667   2.225  11.998 -1.8124  1.6263  0.5177
17901TIP3    H275119   4.745   2.336  11.931  0.4930 -0.4551 -0.3996
17902TIP3   OH275120   1.980   1.170  15.682  0.4533  0.0317 -0.0759
17902TIP3    H175121   1.945   1.253  15.716 -1.8943 -0.7240 -0.4934
17902TIP3    H275122   1.963   1.107  15.751  0.4623 -0.4766 -0.5337
17903TIP3   OH275123   1.620   5.140   2.186 -0.1247  0.5310 -0.4246
17903TIP3    H175124   1.616   5.211   2.122 -0.7226  0.1514 -0.8130
17903TIP3    H275125   1.530   5.113   2.197  0.0447  0.1988  0.1435
17904TIP3   OH275126   4.021   4.995  15.822  0.0788 -0.2694  0.4591
17904TIP3    H175127   4.078   5.069  15.800 -2.3328  1.9659  1.2765
17904TIP3    H275128   3.970   4.979  15.743 -0.9495  0.4820  0.9459
17905TIP3   OH275129   4.492   0.032  14.963  0.3810  0.3295 -0.3133
17905TIP3    H175130   4.521  -0.039  14.906 -1.2744  0.8965 -1.9473
17905TIP3    H275131   4.442   0.090  14.906  0.9918  2.4019  1.1582
17906TIP3   OH275132   3.068   3.405  13.965 -0.2251 -0.4933 -0.1076
17906TIP3    H175133   3.154   3.413  14.008 -0.0785  1.0247 -0.6146
17906TIP3    H275134   3.032   3.493  13.969 -0.7653 -0.5935 -1.9540
17907TIP3   OH275135   0.737   3.744  10.991 -0.3309  0.3675  0.1732
17907TIP3    H175136   0.720   3.827  11.036 -0.9664  0.2965  0.0736
17907TIP3    H275137   0.800   3.766  10.923 -0.0539  0.6550  0.5205
17908TIP3   OH275138   3.937   0.312  16.004  0.3962 -0.2349  0.4527
17908TIP3    H175139   3.951   0.405  16.024  1.1277  0.1077 -1.4124
17908TIP3    H275140   3.857   0.312  15.951  1.6840 -0.3117 -1.6039
17909TIP3   OH275141   0.857   5.692   4.424 -0.1329 -0.0543 -0.2312
17909TIP3    H175142   0.845   5.647   4.507 -1.5239  1.0933  0.2426
17909TIP3    H275143   0.951   5.707   4.418  0.0210 -0.3816  1.0130
17910TIP3   OH275144   5.287   4.514  13.078 -0.2044 -0.7942  0.8029
17910TIP3    H175145   5.288   4.426  13.041  0.4918 -1.0695  1.4403
17910TIP3    H275146   5.306   4.572  13.004  0.2926 -1.2606  0.5620
17911TIP3   OH275147   4.203   5.398   5.809 -0.0826 -0.5841  0.4012
17911TIP3    H175148   4.241   5.389   5.721  3.7151  1.5466  1.5652
17911TIP3    H275149   4.217   5.313   5.850  0.8595 -0.7141 -0.1633
17912TIP3   OH275150   3.875   2.238  15.020  0.0468 -0.5255 -0.3709
17912TIP3    H175151   3.908   2.153  15.051 -2.8722 -0.9292  2.1006
17912TIP3    H275152   3.785   2.220  14.993 -0.0996  1.5059 -1.4202
17913TIP3   OH275153   2.736   6.189   5.555  0.0686 -0.5901  0.6789
17913TIP3    H175154   2.738   6.161   5.464  0.7579 -0.7062  0.7268
17913TIP3    H275155   2.739   6.108   5.606  1.5019 -0.4828  0.8125
17914TIP3   OH275156   5.837   2.421  16.276  0.4445  0.0419 -0.1664
17914TIP3    H175157   5.873   2.333  16.290  1.8678  0.6710  0.2956
17914TIP3    H275158   5.751   2.419  16.319 -0.3137 -1.6246 -1.6480
17915TIP3   OH275159   6.438   1.746  11.494  0.3777  0.0405  0.5359
17915TIP3    H175160   6.482   1.708  11.570  0.8488 -0.9758 -0.2302
17915TIP3    H275161   6.387   1.674  11.457 -0.2969  0.6726  0.1956
17916TIP3   OH275162   1.689   5.520  16.887 -0.0285 -0.4230  0.0588
17916TIP3    H175163   1.605   5.474  16.875  0.0637 -0.7414  0.5725
17916TIP3    H275164   1.748   5.452  16.920  1.1692 -0.8649 -2.6836
17917TIP3   OH275165   0.173   1.558  17.006  0.6123  0.2897  0.0219
17917TIP3    H175166   0.205   1.482  17.056 -1.5161 -0.2470  0.6794
17917TIP3    H275167   0.139   1.618  17.073  1.4882  1.4613 -0.5544
17918TIP3   OH275168   5.921   5.422  10.622 -0.1519 -0.8015  0.1682
17918TIP3    H175169   5.971   5.384  10.694 -0.3994 -1.7553 -0.1611
17918TIP3    H275170   5.880   5.348  10.579  1.1482 -0.4206 -1.8527
17919TIP3   OH275171   0.858   4.080   1.893 -0.2384  0.1058  0.0193
17919TIP3    H175172   0.861   3.986   1.877 -0.8035 -0.3429  2.2314
17919TIP3    H275173   0.948   4.110   1.882  0.4784 -1.2057  1.8128
17920TIP3   OH275174   1.940   5.445   1.061 -0.4403  0.5879  0.1961
17920TIP3    H175175   2.012   5.431   1.123  0.2363 -3.1786 -1.2051
17920TIP3    H275176   1.980   5.492   0.988  0.9919 -2.1610 -0.9334
17921TIP3   OH275177   6.645   1.183  15.909 -0.7167  0.2409  0.2461
17921TIP3    H175178   6.600   1.193  15.825 -0.2960  1.8749  0.1780
17921TIP3    H275179   6.612   1.100  15.945 -0.9730 -0.4332 -1.4751
17922TIP3   OH275180   1.550   2.400  11.168  0.2988 -0.0381 -0.3331
17922TIP3    H175181   1.537   2.442  11.253 -1.9575 -1.0440 -0.1225
17922TIP3    H275182   1.575   2.311  11.189  1.1618  0.0944 -0.7583
17923TIP3   OH275183   0.759   3.702   4.811  0.3013 -0.3881  0.5190
17923TIP3    H175184   0.811   3.704   4.731 -0.9814  0.7358 -0.3325
17923TIP3    H275185   0.799   3.769   4.867 -0.4100  0.7293 -0.2769
17924TIP3   OH275186   6.526   6.501  11.544  0.3925 -1.3022 -0.3330
17924TIP3    H175187   6.588   6.460  11.604 -1.5346  0.5132  3.2450
17924TIP3    H275188   6.441   6.491  11.587 -0.8893  1.6679 -1.8989
17925TIP3   OH275189   2.561   5.153  14.839 -0.2721 -0.3173 -0.1768
17925TIP3    H175190   2.606   5.181  14.759  0.5406 -0.8077  0.0956
17925TIP3    H275191   2.550   5.059  14.828 -1.0748 -0.2334 -0.1493
17926TIP3   OH275192   6.550   1.878  15.080  0.2205  0.1576  0.3314
17926TIP3    H175193   6.583   1.919  15.000 -0.0609 -1.5405 -0.6967
17926TIP3    H275194   6.455   1.882  15.071  0.1686  1.0191  1.1617
17927TIP3   OH275195   0.819   3.824   2.520  0.2573  0.5163  0.4778
17927TIP3    H175196   0.772   3.906   2.506  0.7310  0.3529 -2.7072
17927TIP3    H275197   0.753   3.756   2.512  0.4049  0.4480 -0.1628
17928TIP3   OH275198   3.137   5.918   2.106 -0.0957 -0.1300  0.1882
17928TIP3    H175199   3.085   5.939   2.184 -1.2651 -0.8555 -0.3555
17928TIP3    H275200   3.089   5.959   2.034 -0.0614 -1.0130 -0.3543
17929TIP3   OH275201   5.735   4.191  15.519 -0.3525  0.4296 -0.5894
17929TIP3    H175202   5.693   4.274  15.498 -0.8242  0.0855 -1.0476
17929TIP3    H275203   5.778   4.164  15.438  0.4439  0.5883 -0.2284
17930TIP3   OH275204   4.058   5.905  12.082  0.7022  0.3447 -0.1719
17930TIP3    H175205   3.998   5.901  12.007  0.2494 -0.2466  0.2188
17930TIP3    H275206   4.114   5.829  12.072  1.2993  0.8125 -0.4487
17931TIP3   OH275207   0.401   6.084  11.855 -0.2938  0.4616  0.3325
17931TIP3    H175208   0.440   6.153  11.801 -2.0037  1.9028  0.8311
17931TIP3    H275209   0.474   6.048  11.905  0.6160  2.1706  0.3166
17932TIP3   OH275210   0.673   5.771   5.511 -0.4221  0.0918 -0.3587
17932TIP3    H175211   0.730   5.761   5.587 -0.3376  3.5178  0.1904
17932TIP3    H275212   0.657   5.682   5.481  1.2213 -1.2656  2.4103
17933TIP3   OH275213   6.779   3.424   2.131  0.2755 -0.1636  0.1731
17933TIP3    H175214   6.763   3.517   2.144  2.7421  0.4058 -0.2299
17933TIP3    H275215   6.791   3.414   2.036 -1.0862 -1.1354  0.0701
17934TIP3   OH275216   6.381   0.653   0.868  0.5554 -0.2752 -0.5082
17934TIP3    H175217   6.390   0.674   0.961 -0.4532  1.7810 -0.8109
17934TIP3    H275218   6.439   0.716   0.824 -0.6085  0.2350 -1.3606
17935TIP3   OH275219   4.543   1.140  14.564  0.7888  0.1565  0.1070
17935TIP3    H175220   4.504   1.227  14.565  0.4224 -0.0159  1.2513
17935TIP3    H275221   4.475   1.082  14.597  1.2621 -0.4745 -0.0010
17936TIP3   OH275222   6.173   2.955  15.857  0.4107 -0.3023  0.1700
17936TIP3    H175223   6.208   3.010  15.926  1.8289 -0.1241 -0.6441
17936TIP3    H275224   6.224   2.979  15.779 -1.5729 -0.0207 -1.1084
17937TIP3   OH275225   1.553   1.537  14.521 -0.1252 -0.2183  0.5968
17937TIP3    H175226   1.525   1.628  14.512  0.5423  0.0145  0.7735
17937TIP3    H275227   1.526   1.513  14.610 -0.5508 -0.2791  0.4493
17938TIP3   OH275228   5.008   6.160  13.367 -0.0732 -0.5777  0.9130
17938TIP3    H175229   4.918   6.188  13.384  0.0567 -0.1523  0.9324
17938TIP3    H275230   5.044   6.144  13.455  0.2776  0.5865  0.9978
17939TIP3   OH275231   3.453   1.258  11.175 -0.2547 -0.1795  0.2154
17939TIP3    H175232   3.524   1.256  11.111 -0.4143 -1.5254  0.0625
17939TIP3    H275233   3.393   1.325  11.142 -0.4426 -1.0042 -1.1872
17940TIP3   OH275234   0.344   0.966   1.505 -0.6419 -0.4684  0.4580
17940TIP3    H175235   0.312   0.877   1.494  0.0892 -0.5644 -1.0503
17940TIP3    H275236   0.426   0.956   1.554  1.1162 -0.9883 -2.3847
17941TIP3   OH275237   1.063   6.419   4.739 -0.2476 -0.5847  0.1561
17941TIP3    H175238   1.128   6.379   4.682 -1.6872 -1.1621 -1.1680
17941TIP3    H275239   1.008   6.346   4.768 -1.8777  0.1429 -0.9242
17942TIP3   OH275240   3.265   5.286  13.840  0.1185  0.3585 -0.0786
17942TIP3    H175241   3.304   5.200  13.855  0.3970  0.3240 -0.9261
17942TIP3    H275242   3.320   5.326  13.773 -0.1737  1.0896  0.1048
17943TIP3   OH275243   2.093   3.929  13.343  0.1871  0.0192  0.6537
17943TIP3    H175244   2.008   3.886  13.354  0.2136 -0.1214  0.3243
17943TIP3    H275245   2.127   3.893  13.261 -0.6330  2.0803 -0.6565
17944TIP3   OH275246   1.481   3.590  16.155  0.4693 -0.2875  0.3991
17944TIP3    H175247   1.561   3.585  16.208  0.3593  0.8593  0.6924
17944TIP3    H275248   1.495   3.664  16.097  0.4018 -1.2640 -0.9101
17945TIP3   OH275249   6.327   3.155   0.737 -0.1012  0.2391 -0.3729
17945TIP3    H175250   6.387   3.081   0.749 -1.8895 -1.1501  0.4165
17945TIP3    H275251   6.372   3.229   0.780  2.3856  0.0661 -2.4421
17946TIP3   OH275252   5.810   3.505  15.677 -0.2031 -0.5926  0.8116
17946TIP3    H175253   5.720   3.510  15.643 -0.3912 -1.1405  1.2252
17946TIP3    H275254   5.821   3.414  15.703  0.7624 -0.7223 -0.0031
17947TIP3   OH275255   3.353   1.995  12.565  0.0972 -0.3503  0.0868
17947TIP3    H175256   3.390   1.987  12.653  0.3352  1.7300  0.2424
17947TIP3    H275257   3.326   2.087  12.559 -2.0584 -0.9928 -1.2083
17948TIP3   OH275258   1.230   2.518   5.914 -0.0418  0.1052  0.1335
17948TIP3    H175259   1.220   2.519   6.010 -0.3211 -0.6273  0.1221
17948TIP3    H275260   1.145   2.488   5.882  0.5745 -1.3491 -0.2361
17949TIP3   OH275261   6.216   4.129  12.295  0.0643  0.3856  0.1367
17949TIP3    H175262   6.291   4.097  12.245 -0.6428  0.1798 -0.8144
17949TIP3    H275263   6.246   4.213  12.332  0.4627  0.7749 -1.0139
17950TIP3   OH275264   5.708   1.165  11.806 -0.0696 -0.2021  0.3691
17950TIP3    H175265   5.644   1.229  11.774  1.0899  0.1588 -1.3648
17950TIP3    H275266   5.672   1.080  11.780  0.1623  0.0038 -0.6589
17951TIP3   OH275267   4.797   1.134  11.279 -0.2071  0.1649 -0.4053
17951TIP3    H175268   4.725   1.073  11.266 -0.3982  0.4322 -0.6191
17951TIP3    H275269   4.788   1.197  11.207  0.2122  0.2240 -0.4080
17952TIP3   OH275270   3.271   1.248  10.837 -0.0078  0.2974  0.0709
17952TIP3    H175271   3.183   1.258  10.800 -0.6043 -1.3735  0.9448
17952TIP3    H275272   3.320   1.203  10.769 -0.1039  0.3406 -0.0280
17953TIP3   OH275273   6.420   6.231  12.056 -0.2672 -0.3219 -0.1487
17953TIP3    H175274   6.388   6.186  11.978 -1.0215 -0.9224  0.4947
17953TIP3    H275275   6.341   6.256  12.103  0.1830 -0.0678  0.4870
17954TIP3   OH275276   6.169   5.261  15.844 -0.1671 -0.2748  0.2441
17954TIP3    H175277   6.156   5.189  15.905  1.4388  0.9142  2.0933
17954TIP3    H275278   6.243   5.234  15.790 -0.7307 -0.7566 -0.3002
17955TIP3   OH275279   4.734   3.306  16.277 -0.1236 -0.0938  0.0069
17955TIP3    H175280   4.763   3.318  16.368 -1.8955  0.3490  0.5461
17955TIP3    H275281   4.711   3.214  16.271  1.1767 -0.4148 -0.3829
17956TIP3   OH275282   5.910   6.434   3.360 -0.4059 -0.0362 -0.1428
17956TIP3    H175283   5.965   6.485   3.420 -0.8999  1.3362 -0.7980
17956TIP3    H275284   5.826   6.427   3.405  0.2490 -2.1552  0.8695
17957TIP3   OH275285   1.269   3.275  12.943  0.2668  0.1557  0.1434
17957TIP3    H175286   1.274   3.207  13.010 -2.5198 -1.1035 -0.7797
17957TIP3    H275287   1.197   3.331  12.972  1.4625  1.8041  0.0492
17958TIP3   OH275288   2.203   1.965  15.535 -0.3083  0.4359 -0.0631
17958TIP3    H175289   2.178   1.978  15.443 -0.9214  2.6030  0.3492
17958TIP3    H275290   2.171   2.043  15.579  0.1413 -0.4829  1.9873
17959TIP3   OH275291   6.571   0.192   2.546  0.9062 -0.3648  0.0011
17959TIP3    H175292   6.662   0.162   2.557  2.0034  2.1884 -1.1872
17959TIP3    H275293   6.571   0.281   2.581 -1.0473 -0.1643 -0.4295
17960TIP3   OH275294   1.105   3.098   0.691 -0.1262 -0.2521 -0.2473
17960TIP3    H175295   1.102   3.090   0.787 -0.4382  0.7056 -0.1650
17960TIP3    H275296   1.120   3.009   0.660 -0.7028 -0.6869  0.6686
17961TIP3   OH275297   1.139   3.881  12.612  0.5234  0.5529 -0.3073
17961TIP3    H175298   1.104   3.899  12.525 -1.7918  0.6976  0.5809
17961TIP3    H275299   1.090   3.805  12.643  1.7251  0.1355  0.6621
17962TIP3   OH275300   4.184   3.801  16.625  0.3457 -0.1312 -0.0364
17962TIP3    H175301   4.169   3.726  16.684 -1.2366  1.2745  1.4831
17962TIP3    H275302   4.277   3.796  16.603 -0.1049 -3.8028 -1.8765
17963TIP3   OH275303   1.170   1.674  11.356 -0.2807 -0.5434  0.3251
17963TIP3    H175304   1.199   1.754  11.399 -0.2499  0.1920 -1.0031
17963TIP3    H275305   1.093   1.647  11.405 -1.0029  0.9748  0.1051
17964TIP3   OH275306   3.983   2.723  12.056 -0.1968  0.0975  0.5782
17964TIP3    H175307   3.907   2.667  12.039  0.6073 -1.1471  0.9022
17964TIP3    H275308   3.958   2.808  12.021 -1.5405 -0.4105  0.2159
17965TIP3   OH275309   4.889   3.683   2.339  0.0187  0.0899  0.4993
17965TIP3    H175310   4.946   3.608   2.326 -0.9306 -0.7872  1.2441
17965TIP3    H275311   4.929   3.732   2.411  1.0411  0.7302 -0.4728
17966TIP3   OH275312   4.215   1.958   5.737  0.3226 -0.6217 -0.1698
17966TIP3    H175313   4.161   1.919   5.669  1.2112 -2.9372  0.3665
17966TIP3    H275314   4.166   1.942   5.818 -1.4252  3.3280 -0.2101
17967TIP3   OH275315   6.638   5.818   1.267  0.1193 -0.4545  0.7733
17967TIP3    H175316   6.593   5.744   1.308  1.9951 -1.4670  1.0981
17967TIP3    H275317   6.579   5.846   1.197 -0.3436 -2.7270  0.1685
17968TIP3   OH275318   3.240   2.450   0.158 -0.2130 -0.1913 -0.9155
17968TIP3    H175319   3.313   2.470   0.100 -0.3435  0.0010 -1.0144
17968TIP3    H275320   3.241   2.354   0.167  1.3427 -0.0792  0.7531
17969TIP3   OH275321   3.320   4.254   1.212  0.4989 -0.4555  0.2736
17969TIP3    H175322   3.381   4.187   1.242  0.6106  0.4808  2.2904
17969TIP3    H275323   3.239   4.237   1.260 -0.4491 -0.8642 -1.3744
17970TIP3   OH275324   3.992   3.536  12.267  0.1246 -0.0912  0.1114
17970TIP3    H175325   3.926   3.549  12.335 -1.1988  0.1273 -1.1511
17970TIP3    H275326   4.031   3.622  12.255  2.1761 -0.6143  2.2773
17971TIP3   OH275327   4.631   6.259   3.456 -0.0328  0.1881 -0.3200
17971TIP3    H175328   4.677   6.335   3.419  0.2639  0.6151  0.8760
17971TIP3    H275329   4.554   6.297   3.499  0.1908 -0.1544  0.4078
17972TIP3   OH275330   6.297   0.618   5.581  0.0984  0.1668 -0.3315
17972TIP3    H175331   6.226   0.656   5.530 -0.3085 -0.2752 -0.1039
17972TIP3    H275332   6.254   0.555   5.639  0.7896 -0.8892 -0.9452
17973TIP3   OH275333   1.846   1.088   2.579 -0.0667 -0.2019  0.4385
17973TIP3    H175334   1.788   1.137   2.522 -1.7629  0.3374  2.5030
17973TIP3    H275335   1.885   1.021   2.522 -1.6433  0.2930 -1.3114
17974TIP3   OH275336   5.983   3.893   4.390 -0.1446 -0.5553 -0.5548
17974TIP3    H175337   5.935   3.975   4.376 -0.1284 -0.4831 -0.2160
17974TIP3    H275338   5.917   3.825   4.377 -1.1559 -0.3982  2.7057
17975TIP3   OH275339   2.562   5.064  13.432 -0.0499 -0.3411 -0.3679
17975TIP3    H175340   2.564   5.052  13.337 -0.8063  1.8722 -0.7227
17975TIP3    H275341   2.540   5.157  13.444  0.4876 -0.4569  1.9725
17976TIP3   OH275342   1.268   4.842   1.783 -0.1576  0.1095  0.8295
17976TIP3    H175343   1.322   4.831   1.705  0.8135  1.3857  1.2976
17976TIP3    H275344   1.302   4.776   1.844 -0.8892 -0.8602  0.2357
17977TIP3   OH275345   1.795   4.231   2.758 -0.1314 -0.2611 -0.2288
17977TIP3    H175346   1.737   4.257   2.687  0.3434 -0.8675 -0.8539
17977TIP3    H275347   1.864   4.298   2.760 -0.2327 -0.1572 -0.2299
17978TIP3   OH275348   2.661   5.020   5.139 -0.4567 -0.0670  0.2138
17978TIP3    H175349   2.652   5.115   5.145  1.0487  0.1012  0.3358
17978TIP3    H275350   2.745   5.002   5.181 -0.3305 -1.3653 -0.5443
17979TIP3   OH275351   2.107   1.094  16.483  0.4413 -0.2801  0.0497
17979TIP3    H175352   2.180   1.146  16.517  0.5715  0.2345 -0.9987
17979TIP3    H275353   2.117   1.097  16.388 -0.1767 -1.3265 -0.0665
17980TIP3   OH275354   5.488   3.584   3.130  0.4101 -0.1100 -0.1077
17980TIP3    H175355   5.404   3.555   3.096 -0.6716  1.6345  0.8831
17980TIP3    H275356   5.552   3.522   3.095 -1.4692 -2.5206  0.4915
17981TIP3   OH275357   3.283   0.854  11.468 -0.3878  0.3935 -0.4941
17981TIP3    H175358   3.210   0.916  11.465  0.7842  1.8049 -0.5596
17981TIP3    H275359   3.353   0.901  11.513  0.8041 -0.5961 -1.2599
17982TIP3   OH275360   3.289   4.711   6.018  0.1050 -0.3577  0.0604
17982TIP3    H175361   3.212   4.679   6.066 -0.4349 -0.8659 -1.1044
17982TIP3    H275362   3.329   4.775   6.077 -1.4515  0.2264  0.5422
17983TIP3   OH275363   3.873   3.896   2.647 -0.2954  0.2153 -0.5510
17983TIP3    H175364   3.935   3.835   2.687 -2.0997 -0.1727  1.9133
17983TIP3    H275365   3.894   3.894   2.554  1.0415 -2.6386 -0.3033
17984TIP3   OH275366   5.449   6.169  13.230  0.0612 -0.2856  0.4486
17984TIP3    H175367   5.474   6.110  13.159  0.1190  1.1965 -0.8091
17984TIP3    H275368   5.480   6.255  13.202  0.0792  0.3459  2.2857
17985TIP3   OH275369   1.134   2.837  17.172  0.0208 -0.6536 -0.1219
17985TIP3    H175370   1.158   2.745  17.163  0.3797 -0.6176  0.4022
17985TIP3    H275371   1.200   2.884  17.121  1.0300 -0.5629  1.2221
17986TIP3   OH275372   5.250   5.020   2.388 -0.0405 -0.1660 -0.0223
17986TIP3    H175373   5.156   5.036   2.384 -0.2154 -1.3674 -2.2058
17986TIP3    H275374   5.290   5.107   2.379 -0.9730  0.1133 -2.0115
17987TIP3   OH275375   3.824   1.761   3.339 -0.6750 -0.4345 -0.6854
17987TIP3    H175376   3.903   1.815   3.344  0.2805 -1.8701  0.6471
17987TIP3    H275377   3.798   1.765   3.247 -0.5365  2.0648 -0.6920
17988TIP3   OH275378   1.174   6.519   5.594 -0.0731  0.1562  0.0895
17988TIP3    H175379   1.243   6.518   5.528 -1.6009 -1.7876 -1.5987
17988TIP3    H275380   1.194   6.445   5.651 -0.0222  0.4423  0.4504
17989TIP3   OH275381   6.216   6.251  11.514  0.4637  0.1997  0.1842
17989TIP3    H175382   6.213   6.337  11.555 -0.5708  0.9298 -1.3304
17989TIP3    H275383   6.139   6.206  11.549 -1.3809  1.4113 -2.0490
17990TIP3   OH275384   4.665   3.698  12.169  0.2069 -0.1526  0.0187
17990TIP3    H175385   4.690   3.781  12.210 -0.6768 -0.2153  0.7151
17990TIP3    H275386   4.597   3.662  12.226 -0.2501 -0.7998 -0.8990
17991TIP3   OH275387   1.972   0.030   1.493 -0.1029  0.2725 -0.2019
17991TIP3    H175388   2.026  -0.035   1.448  0.3481  0.9129 -0.5952
17991TIP3    H275389   2.028   0.107   1.500 -0.8758  0.8628 -0.3900
17992TIP3   OH275390   1.608   4.439  15.099 -0.5973  0.0938  0.1637
17992TIP3    H175391   1.547   4.414  15.169  0.3909  0.2270  1.0910
17992TIP3    H275392   1.605   4.365  15.038 -0.2932 -0.7639  1.1511
17993TIP3   OH275393   4.880   5.266   4.964  0.3071  0.1525 -0.2058
17993TIP3    H175394   4.823   5.329   5.007 -2.1387 -1.3416 -1.0929
17993TIP3    H275395   4.886   5.193   5.025  0.7420  0.0222 -0.4002
17994TIP3   OH275396   3.844   1.103   4.412  0.6619 -0.2866 -0.4534
17994TIP3    H175397   3.779   1.064   4.355  0.1362 -1.6027  0.9666
17994TIP3    H275398   3.794   1.140   4.485  1.4270 -0.4966  0.1984
17995TIP3   OH275399   5.892   3.288  13.723  0.0842  0.1789  0.3288
17995TIP3    H175400   5.923   3.197  13.718  0.0876  0.0875  1.7814
17995TIP3    H275401   5.971   3.340  13.708  0.0246 -0.0297 -0.8537
17996TIP3   OH275402   0.881   4.522   6.099  0.6078  0.2798  0.2962
17996TIP3    H175403   0.805   4.535   6.155  0.5481  0.0176  0.2771
17996TIP3    H275404   0.860   4.443   6.048  0.2805  1.0012 -0.7184
17997TIP3   OH275405   5.746   6.355  15.027  0.1535 -0.5194 -0.8782
17997TIP3    H175406   5.781   6.436  15.064 -1.2577  0.0306 -0.6903
17997TIP3    H275407   5.818   6.292  15.035  0.7252  0.2574  0.5084
17998TIP3   OH275408   6.014   0.710  13.084  0.1583  0.5209  0.0512
17998TIP3    H175409   6.093   0.664  13.112  1.9483  3.4832  0.2928
17998TIP3    H275410   5.972   0.650  13.022  1.3114 -2.1034  1.6272
17999TIP3   OH275411   0.499   3.933  11.986 -0.2965  0.4775  0.2006
17999TIP3    H175412   0.451   3.910  12.066 -0.1008  1.5150  0.6480
17999TIP3    H275413   0.496   4.029  11.984  0.3007  0.4892 -0.6705
18000TIP3   OH275414   4.975   3.273  16.030 -0.5143  0.7045  0.1553
18000TIP3    H175415   4.897   3.301  15.980  0.2665  1.3977 -0.7063
18000TIP3    H275416   4.949   3.281  16.121 -1.0598  2.1540 -0.0978
18001TIP3   OH275417   1.890   6.396  13.795 -0.8738 -0.3631  0.1615
18001TIP3    H175418   1.981   6.412  13.819 -0.6188  0.3931 -1.1807
18001TIP3    H275419   1.847   6.371  13.877  0.4794 -0.4899  0.8575
18002TIP3   OH275420   4.337   0.630   5.589  0.2339  0.5575  0.6683
18002TIP3    H175421   4.389   0.621   5.669 -1.6086  1.4543  2.0312
18002TIP3    H275422   4.321   0.724   5.582 -0.9273  0.3289  0.1001
18003TIP3   OH275423   1.669   4.964  15.584 -0.1277 -0.7650 -0.8319
18003TIP3    H175424   1.724   5.041  15.599  1.8603 -2.1035 -0.8256
18003TIP3    H275425   1.633   4.942  15.669 -1.8362  0.8938 -1.0602
18004TIP3   OH275426   4.261   1.657  11.966  0.2649 -0.4010  0.0160
18004TIP3    H175427   4.271   1.676  11.872  1.9247  0.1179  0.2493
18004TIP3    H275428   4.173   1.687  11.987  0.5657  1.3955 -0.9770
18005TIP3   OH275429   5.093   3.897  14.968 -0.3965 -0.2486 -0.2514
18005TIP3    H175430   5.057   3.961  14.907 -2.6119 -0.6541  0.5675
18005TIP3    H275431   5.053   3.814  14.942  0.5661 -0.8758  0.2128
18006TIP3   OH275432   0.153   2.870   6.139  0.2415 -0.1307  0.2883
18006TIP3    H175433   0.179   2.853   6.230  1.1484  0.2522  0.1126
18006TIP3    H275434   0.109   2.789   6.112  0.3745 -0.4236  0.9199
18007TIP3   OH275435   5.666   1.490  13.241 -0.2353  0.3672  0.5587
18007TIP3    H175436   5.661   1.500  13.336 -0.6792 -0.7635  0.6624
18007TIP3    H275437   5.731   1.555  13.214  0.3070  0.3256  1.6953
18008TIP3   OH275438   6.399   1.124   1.061 -0.0963 -0.1888 -0.5423
18008TIP3    H175439   6.490   1.097   1.075  0.3282  0.8885 -1.0519
18008TIP3    H275440   6.382   1.186   1.132  0.2503  1.1245 -1.5703
18009TIP3   OH275441   5.772   1.100  14.823 -0.0425  0.4099  0.0884
18009TIP3    H175442   5.759   1.092  14.918 -1.0585  0.7655 -0.0024
18009TIP3    H275443   5.805   1.015  14.796 -1.0620 -0.1497  0.5642
18010TIP3   OH275444   2.989   4.246   0.243  0.1490 -0.0328  0.4952
18010TIP3    H175445   2.908   4.235   0.193  0.5194 -2.0538  0.2226
18010TIP3    H275446   2.964   4.295   0.321 -0.7056  2.0748 -1.0215
18011TIP3   OH275447   3.008   3.494   3.691  0.0848 -0.3942  0.0778
18011TIP3    H175448   2.954   3.545   3.630  1.7663  0.8309 -0.4490
18011TIP3    H275449   2.987   3.530   3.777 -1.2019 -1.1296  0.1009
18012TIP3   OH275450   2.076   0.375  12.892  0.8229 -0.6391  0.1500
18012TIP3    H175451   2.164   0.360  12.927  1.6568 -0.0509 -1.5759
18012TIP3    H275452   2.017   0.348  12.962  2.3701 -1.5887  1.1373
18013TIP3   OH275453   1.079   2.031   0.424 -0.0960 -0.4791 -0.1348
18013TIP3    H175454   1.106   1.940   0.415 -1.8035 -1.0769  0.2513
18013TIP3    H275455   1.109   2.073   0.344 -1.3215 -1.9617 -1.4441
18014TIP3   OH275456   3.750   2.374   2.322 -0.6051  0.0198 -0.2667
18014TIP3    H175457   3.792   2.320   2.389  0.7560  1.2929 -0.0375
18014TIP3    H275458   3.757   2.321   2.242 -2.3502 -1.5578  0.5591
18015TIP3   OH275459   1.185   2.313   5.731  0.6060 -0.2281  0.0064
18015TIP3    H175460   1.176   2.260   5.810  0.9453  0.8145  0.7625
18015TIP3    H275461   1.103   2.299   5.683 -0.8851  1.3580  1.9424
18016TIP3   OH275462   4.940   1.532  13.142  0.3750 -0.4782 -0.8071
18016TIP3    H175463   4.998   1.573  13.205 -0.8504  0.7798 -0.4523
18016TIP3    H275464   4.895   1.604  13.099  0.1443 -1.3647 -2.1259
18017TIP3   OH275465   2.211   0.681  16.292  0.0158  0.2467 -0.0029
18017TIP3    H175466   2.174   0.602  16.252 -0.9602 -1.2946  3.4994
18017TIP3    H275467   2.302   0.658  16.309 -0.3666 -0.3986  1.3795
18018TIP3   OH275468   1.521   5.960  12.732  0.5927 -0.5677 -0.1862
18018TIP3    H175469   1.568   5.988  12.653  1.2362 -1.8251 -0.2714
18018TIP3    H275470   1.573   5.887  12.766  1.0461  0.7007  2.1167
18019TIP3   OH275471   6.171   3.817  14.828  0.3258  0.0419 -0.5424
18019TIP3    H175472   6.088   3.856  14.856 -1.2140 -1.3952 -2.8088
18019TIP3    H275473   6.154   3.785  14.740  3.3523 -0.2766 -1.1128
18020TIP3   OH275474   3.361   5.141  12.399  0.3061  0.4951 -0.2552
18020TIP3    H175475   3.347   5.052  12.429  1.1038 -0.1073 -1.5975
18020TIP3    H275476   3.321   5.196  12.467  0.3891 -0.8475  0.9098
18021TIP3   OH275477   0.835   5.946   4.879  0.0389  0.1600  0.7018
18021TIP3    H175478   0.881   5.919   4.799 -0.2638 -0.1487  0.6301
18021TIP3    H275479   0.742   5.934   4.859 -0.2594  2.8979  0.0587
18022TIP3   OH275480   2.058   4.199   3.395  0.0462 -0.3866 -0.2568
18022TIP3    H175481   2.018   4.277   3.432 -0.9589 -0.9456 -0.1229
18022TIP3    H275482   2.125   4.174   3.459 -1.5493 -1.2376  1.1704
18023TIP3   OH275483   4.232   5.909  17.083  0.0032  0.4273  0.0624
18023TIP3    H175484   4.311   5.953  17.052  0.2236  1.9675  2.5584
18023TIP3    H275485   4.256   5.816  17.087  2.1869  0.9788  1.9405
18024TIP3   OH275486   1.514   0.965   1.237  0.0238 -0.2527 -0.2420
18024TIP3    H175487   1.456   0.905   1.191 -1.8723  1.2273  0.0859
18024TIP3    H275488   1.473   1.051   1.226  1.6545  0.7182  0.8468
18025TIP3   OH275489   6.417   6.354  15.110  0.0286  0.0300  0.0882
18025TIP3    H175490   6.378   6.382  15.193 -0.4427  0.4378 -0.2596
18025TIP3    H275491   6.343   6.317  15.061  0.3825 -0.5736  0.0062
18026TIP3   OH275492   4.622   2.245  11.605  0.4479 -0.3851  0.9681
18026TIP3    H175493   4.635   2.159  11.564  0.7772 -0.1685  0.6131
18026TIP3    H275494   4.666   2.306  11.547  1.6230 -0.1624  2.0456
18027TIP3   OH275495   5.932   5.175   0.793 -0.1817 -0.3457  0.8006
18027TIP3    H175496   5.870   5.198   0.723  0.3657 -1.7996 -0.2102
18027TIP3    H275497   5.993   5.115   0.751  1.9583  1.0542  1.7805
18028TIP3   OH275498   1.756   1.950  13.510  0.3440 -0.8328 -0.2096
18028TIP3    H175499   1.816   2.020  13.539 -0.8546 -0.1704  0.7379
18028TIP3    H275500   1.787   1.872  13.555  0.1883 -0.3838  0.6955
18029TIP3   OH275501   4.075   6.161   1.571 -0.0366 -0.0539  0.2622
18029TIP3    H175502   3.996   6.141   1.520  0.0559 -0.1648  0.1609
18029TIP3    H275503   4.136   6.089   1.550  1.0149  1.2946 -1.5872
18030TIP3   OH275504   2.380   2.212   1.240  0.5053 -0.2533  0.6332
18030TIP3    H175505   2.336   2.128   1.251 -0.6970  0.6235  4.0468
18030TIP3    H275506   2.311   2.277   1.257  1.7611  1.3621 -0.2397
18031TIP3   OH275507   0.977   2.221  16.435  0.7834  0.5840 -0.6606
18031TIP3    H175508   1.007   2.262  16.354  1.3960 -0.8621 -1.1908
18031TIP3    H275509   0.978   2.127  16.417 -0.7012  0.3085  0.4778
18032TIP3   OH275510   6.038   2.159   4.908 -0.2515 -0.1008  0.3599
18032TIP3    H175511   5.979   2.182   4.836  0.1950  0.2113  0.0890
18032TIP3    H275512   6.088   2.238   4.924  1.0040 -0.7377 -0.3008
18033TIP3   OH275513   6.498   2.151   3.909  0.6926 -0.2901 -0.1944
18033TIP3    H175514   6.426   2.142   3.846  1.0525  0.1972 -0.6915
18033TIP3    H275515   6.519   2.062   3.935 -0.3474 -0.4162  0.2596
18034TIP3   OH275516   2.784   5.248  14.229 -0.1388  0.3331 -0.1286
18034TIP3    H175517   2.834   5.226  14.151 -1.4625  1.4465 -1.3555
18034TIP3    H275518   2.806   5.180  14.292  2.3105  0.3552 -0.8367
18035TIP3   OH275519   2.838   3.611  15.810 -0.5876 -0.5377  0.1579
18035TIP3    H175520   2.758   3.599  15.759 -0.0915 -0.7643 -0.5818
18035TIP3    H275521   2.898   3.544  15.777  0.0848 -0.0287  0.3298
18036TIP3   OH275522   0.530   0.730  13.419  0.1057  0.1117 -0.0133
18036TIP3    H175523   0.481   0.664  13.468  1.7683 -0.7336  0.5631
18036TIP3    H275524   0.537   0.804  13.479 -0.3134  0.1799 -0.0442
18037TIP3   OH275525   6.315   0.909  16.648  0.0163  0.1889 -0.3757
18037TIP3    H175526   6.357   0.943  16.727 -1.9396  1.7309  0.0815
18037TIP3    H275527   6.244   0.854  16.680  1.3756 -2.1276 -1.1251
18038TIP3   OH275528   3.637   1.200  11.723 -0.4314  0.8290  0.0587
18038TIP3    H175529   3.709   1.136  11.720 -1.8733 -0.8643 -0.8100
18038TIP3    H275530   3.665   1.270  11.664  0.8739  0.6260  0.4122
18039TIP3   OH275531   5.262   2.378  11.627  0.2925  0.1422 -0.8894
18039TIP3    H175532   5.242   2.437  11.700  0.2354 -0.4525 -0.4148
18039TIP3    H275533   5.338   2.329  11.657 -0.6419 -1.1839 -0.5733
18040TIP3   OH275534   2.745   3.953   5.385 -0.0426  0.4239 -0.2664
18040TIP3    H175535   2.815   3.946   5.450  0.2582  0.9780 -0.5250
18040TIP3    H275536   2.669   3.983   5.434 -0.3183 -0.8890  0.1557
18041TIP3   OH275537   4.008   2.253  14.308  0.2222 -0.2468 -0.3363
18041TIP3    H175538   4.072   2.314  14.273 -0.5725 -0.0125 -1.4503
18041TIP3    H275539   3.933   2.260  14.248 -0.0824 -1.9489 -0.2175
18042TIP3   OH275540   1.046   0.953  13.464 -0.1367 -0.6209 -0.0024
18042TIP3    H175541   1.003   0.870  13.483  1.7009 -2.0631 -1.6836
18042TIP3    H275542   0.975   1.017  13.464 -1.8039 -2.3687  0.1667
18043TIP3   OH275543   1.584   2.096  11.562  0.2242  0.3630  0.0678
18043TIP3    H175544   1.641   2.088  11.638  0.6904 -0.0826 -0.3157
18043TIP3    H275545   1.643   2.086  11.487 -0.1844  1.0777 -0.3562
18044TIP3   OH275546   1.834   2.777  13.655 -0.2183  0.1312 -0.3928
18044TIP3    H175547   1.919   2.743  13.684 -0.4261  0.2895  0.4299
18044TIP3    H275548   1.819   2.854  13.709 -0.4474  0.6774 -1.2078
18045TIP3   OH275549   2.470   0.292   4.590 -0.7857 -0.6395 -0.4282
18045TIP3    H175550   2.563   0.290   4.612 -0.6568  0.1791 -0.8448
18045TIP3    H275551   2.432   0.219   4.639 -0.2827  0.2689  1.3972
18046TIP3   OH275552   4.913   1.447   1.309  0.9362  0.3303  0.2145
18046TIP3    H175553   4.833   1.403   1.338  0.9143  0.4339  0.3096
18046TIP3    H275554   4.919   1.525   1.364  0.8249  0.5972 -0.1492
18047TIP3   OH275555   0.210   6.116   1.075  0.2444  0.3754 -0.0667
18047TIP3    H175556   0.173   6.057   1.141  3.3762  0.5420  2.0803
18047TIP3    H275557   0.184   6.204   1.105  0.4032  0.3684  0.0959
18048TIP3   OH275558   0.497   5.841   0.213  0.1710  0.2073  0.4489
18048TIP3    H175559   0.480   5.766   0.157 -2.0214  2.5315 -2.3414
18048TIP3    H275560   0.438   5.830   0.288  0.5157 -1.2077  0.5281
18049TIP3   OH275561   5.875   0.992  16.476  0.0160 -0.0578 -0.2332
18049TIP3    H175562   5.894   1.023  16.387 -0.1473  0.0395 -0.2366
18049TIP3    H275563   5.940   0.924  16.493  0.1345  0.0195 -0.3759
18050TIP3   OH275564   4.129   6.594   1.870  0.3019 -0.3007 -0.3328
18050TIP3    H175565   4.066   6.631   1.809  0.2875  0.7690  0.3050
18050TIP3    H275566   4.089   6.512   1.899 -0.6767  0.2184 -0.1617
18051TIP3   OH275567   6.088   4.026  14.599 -0.3399  0.0968 -0.1239
18051TIP3    H175568   6.016   3.974  14.564 -1.3095  1.7630 -0.7282
18051TIP3    H275569   6.167   3.979  14.573 -1.1894 -2.0290  0.9765
18052TIP3   OH275570   4.276   2.168  15.485 -0.2976  0.5533 -0.4145
18052TIP3    H175571   4.218   2.220  15.541 -0.4312 -0.4555  0.4312
18052TIP3    H275572   4.219   2.101  15.447 -0.1439  1.0444 -1.5382
18053TIP3   OH275573   0.163   3.394   4.408 -0.3155  0.0680 -0.3062
18053TIP3    H175574   0.244   3.394   4.459 -0.4821  0.0061 -0.0440
18053TIP3    H275575   0.103   3.450   4.457 -0.5035 -0.0595 -0.3871
18054TIP3   OH275576   4.824   3.771   2.757 -0.7520  0.2332  0.1777
18054TIP3    H175577   4.833   3.731   2.843  2.1780 -2.9535 -1.3195
18054TIP3    H275578   4.905   3.821   2.745 -0.1922 -0.9200 -1.2943
18055TIP3   OH275579   1.571   1.218   0.347 -0.4190 -0.2391 -0.3922
18055TIP3    H175580   1.494   1.190   0.298  0.9031  0.6475 -3.2306
18055TIP3    H275581   1.639   1.156   0.320  0.4095  0.3936  0.1963
18056TIP3   OH275582   2.420   0.875   0.791 -0.0662  0.2827  0.2777
18056TIP3    H175583   2.510   0.887   0.822  0.0145 -2.2849  1.3226
18056TIP3    H275584   2.366   0.913   0.861  0.2051 -1.3157  1.4223
18057TIP3   OH275585   2.751   6.708   2.421 -0.5266 -0.0239  0.2320
18057TIP3    H175586   2.737   6.647   2.493 -0.8311  0.4894  0.6148
18057TIP3    H275587   2.691   6.781   2.439 -0.3054  0.3027 -0.3176
18058TIP3   OH275588   4.442   5.266  13.322  0.3045  0.1675  0.3178
18058TIP3    H175589   4.455   5.354  13.287 -0.1882  0.3742  0.6422
18058TIP3    H275590   4.428   5.279  13.415  1.1532 -0.3438  0.5277
18059TIP3   OH275591   5.273   3.334   5.722 -0.3039  0.3312  0.2840
18059TIP3    H175592   5.199   3.279   5.747 -0.7112 -0.0832 -1.6891
18059TIP3    H275593   5.276   3.328   5.627  0.9654  2.0466  0.1779
18060TIP3   OH275594   5.960   5.671  12.573  0.1001  0.5076  0.3476
18060TIP3    H175595   6.041   5.712  12.541 -0.0405 -1.4296 -3.0386
18060TIP3    H275596   5.988   5.584  12.603 -0.7449 -0.7704 -2.2546
18061TIP3   OH275597   0.129   1.111  12.040  0.7980  0.0446 -0.0937
18061TIP3    H175598   0.079   1.086  12.117  1.3558  0.0572  0.2759
18061TIP3    H275599   0.069   1.096  11.966  0.6826 -1.1247  0.2284
18062TIP3   OH275600   4.528   4.751  12.314  0.2496  0.2730 -0.2138
18062TIP3    H175601   4.553   4.844  12.322  0.9882 -0.0598  1.9448
18062TIP3    H275602   4.441   4.753  12.276  0.3484  1.8448 -0.4278
18063TIP3   OH275603   4.616   4.479  11.794  0.9140 -0.0556  0.2525
18063TIP3    H175604   4.592   4.558  11.746 -2.6565 -0.5599  0.9114
18063TIP3    H275605   4.585   4.495  11.883  1.4639 -1.6340  0.7601
18064TIP3   OH275606   3.685   5.042   4.805  0.3499  0.4369  0.3095
18064TIP3    H175607   3.675   4.956   4.844  0.7499  1.2085  2.2216
18064TIP3    H275608   3.595   5.075   4.796  0.2209  0.0027 -0.0552
18065TIP3   OH275609   4.107   2.069   2.122  0.1747  0.2820  0.3253
18065TIP3    H175610   4.179   2.006   2.129 -2.3099 -2.8669  0.0363
18065TIP3    H275611   4.073   2.076   2.211  0.2164  1.0372  0.2914
18066TIP3   OH275612   2.002   6.710   2.870  0.1980 -0.2843  0.1630
18066TIP3    H175613   2.035   6.799   2.877  0.0108 -0.2334  0.4433
18066TIP3    H275614   2.043   6.663   2.942 -1.0386  0.0093  1.0966
18067TIP3   OH275615   6.168   0.780   1.340  0.2191  0.0133 -0.0162
18067TIP3    H175616   6.207   0.829   1.413  0.1081 -1.1619  0.8622
18067TIP3    H275617   6.224   0.800   1.265  0.2718  1.3357  0.3384
18068TIP3   OH275618   5.641   4.608  17.184 -0.1972 -0.0695  0.5763
18068TIP3    H175619   5.718   4.605  17.241  0.6304 -0.0720 -0.5101
18068TIP3    H275620   5.629   4.517  17.155 -0.5655 -0.0542  0.6764
18069TIP3   OH275621   3.866   2.228  15.723 -0.3962  0.1393  0.0402
18069TIP3    H175622   3.861   2.244  15.629  0.1431 -0.4074 -0.0826
18069TIP3    H275623   3.908   2.306  15.759 -2.7368  1.4518  0.1572
18070TIP3   OH275624   3.927   1.448  12.453  0.0805  0.2719 -0.0999
18070TIP3    H175625   3.934   1.494  12.369  0.0003 -1.8508 -1.3253
18070TIP3    H275626   4.004   1.391  12.457 -1.7639 -2.4332 -0.5604
18071TIP3   OH275627   0.239   2.439   2.819 -0.2913 -0.2962  0.3158
18071TIP3    H175628   0.294   2.465   2.894 -0.8556 -1.2293  1.0747
18071TIP3    H275629   0.229   2.520   2.769  1.4554 -0.0160  0.3494
18072TIP3   OH275630   4.599   0.897  13.907  0.0479  0.0587 -0.3506
18072TIP3    H175631   4.532   0.931  13.847  0.4591 -2.2878 -2.2738
18072TIP3    H275632   4.661   0.851  13.850  2.6328  1.0156  1.5021
18073TIP3   OH275633   2.373   2.966   4.316  0.6473 -0.4005  0.4131
18073TIP3    H175634   2.356   3.039   4.376  0.5666  0.2486 -0.3725
18073TIP3    H275635   2.461   2.984   4.281 -0.3427  0.7540 -1.6984
18074TIP3   OH275636   0.883   1.242   2.572 -0.4474  0.2817  0.0791
18074TIP3    H175637   0.823   1.304   2.613 -1.8543 -2.3987  2.3838
18074TIP3    H275638   0.827   1.174   2.535  1.0862 -0.8190 -0.3526
18075TIP3   OH275639   2.203   1.216   0.760 -0.0385 -0.2443 -0.1145
18075TIP3    H175640   2.242   1.185   0.842  0.2442  0.4803  0.0367
18075TIP3    H275641   2.109   1.199   0.771  0.0133 -0.2813  0.3064
18076TIP3   OH275642   1.476   5.867   0.470 -0.2725 -0.6316  0.1153
18076TIP3    H175643   1.487   5.799   0.536  1.6034  1.2879  1.9703
18076TIP3    H275644   1.558   5.865   0.420 -0.5100 -0.2389 -0.3001
18077TIP3   OH275645   5.157   5.857  14.486  0.0229 -0.0492 -0.3732
18077TIP3    H175646   5.242   5.852  14.442  0.0723  0.9525 -0.4186
18077TIP3    H275647   5.170   5.811  14.569  0.6448  0.1892 -0.3354
18078TIP3   OH275648   1.723   1.819  16.490 -0.7285  0.3751  0.2167
18078TIP3    H175649   1.802   1.863  16.459  0.9956 -2.6138  0.0668
18078TIP3    H275650   1.729   1.730  16.455 -3.6538 -0.2969  1.1113
18079TIP3   OH275651   0.023   5.354  14.234  0.9174 -0.0862 -0.3172
18079TIP3    H175652   0.005   5.364  14.328  1.2867 -0.0888 -0.2445
18079TIP3    H275653   0.104   5.403  14.220  0.8116 -0.0085 -0.6529
18080TIP3   OH275654   4.966   3.248   3.548  0.1793 -0.0189  0.6543
18080TIP3    H175655   4.908   3.175   3.526  0.2548 -0.0540  0.5659
18080TIP3    H275656   5.022   3.257   3.470  0.5434 -0.2340  0.8920
18081TIP3   OH275657   0.933   4.476  14.211 -0.5208 -0.2523  0.1467
18081TIP3    H175658   0.996   4.423  14.162 -0.1237 -0.2540  0.6483
18081TIP3    H275659   0.924   4.556  14.159 -0.3531 -0.3904 -0.0963
18082TIP3   OH275660   3.000   6.710   6.086  0.1178 -0.2528 -0.5023
18082TIP3    H175661   2.976   6.802   6.091  1.3211  0.0788 -0.3981
18082TIP3    H275662   3.093   6.711   6.062 -0.0401 -1.4554 -1.2490
18083TIP3   OH275663   3.103   4.722  13.863 -0.3756 -0.0913 -0.6249
18083TIP3    H175664   3.130   4.681  13.780 -1.3341 -0.8510 -0.5918
18083TIP3    H275665   3.036   4.785  13.837 -1.0532 -0.6995 -0.4006
18084TIP3   OH275666   3.905   1.512   3.175 -0.1026  0.2361  0.4160
18084TIP3    H175667   3.839   1.448   3.198  0.7602 -1.2998 -1.1303
18084TIP3    H275668   3.904   1.515   3.079  2.8113 -0.7350  0.2414
18085TIP3   OH275669   0.427   3.899  14.240  0.0080 -0.2321 -0.7201
18085TIP3    H175670   0.408   3.993  14.249 -1.3208 -0.5274 -0.1248
18085TIP3    H275671   0.478   3.893  14.160  1.0332  1.1119 -0.2150
18086TIP3   OH275672   3.318   6.445   5.467  0.4851  0.2088 -0.1719
18086TIP3    H175673   3.272   6.404   5.393  0.0577 -1.4209  0.9431
18086TIP3    H275674   3.287   6.397   5.544  0.7598  2.0049  1.1121
18087TIP3   OH275675   4.735   2.484  15.973  0.3725 -0.3224  0.2721
18087TIP3    H175676   4.763   2.393  15.966  0.1139 -0.3331 -0.7276
18087TIP3    H275677   4.727   2.514  15.883 -0.3080  0.4585  0.5788
18088TIP3   OH275678   3.293   5.988  12.927 -0.1429  0.6405  0.1290
18088TIP3    H175679   3.322   6.077  12.947  0.2611  0.9760 -1.7665
18088TIP3    H275680   3.316   5.975  12.835 -0.3414 -1.3798  0.3170
18089TIP3   OH275681   2.837   1.228   4.832  0.1446  0.1813  0.5945
18089TIP3    H175682   2.867   1.196   4.747 -0.9346  1.2455 -0.2164
18089TIP3    H275683   2.875   1.166   4.895 -0.0239 -1.3481 -0.7236
18090TIP3   OH275684   0.657   5.207   0.881  0.1852  0.4953  0.1319
18090TIP3    H175685   0.739   5.166   0.853 -0.3380  0.2906 -1.1658
18090TIP3    H275686   0.684   5.292   0.916  0.9073  0.6640 -0.8000
18091TIP3   OH275687   5.381   1.388   1.763 -0.1866  0.0639 -0.0212
18091TIP3    H175688   5.476   1.384   1.752 -0.0350  1.8171  0.3743
18091TIP3    H275689   5.347   1.390   1.673  0.1204 -0.7943 -0.1651
18092TIP3   OH275690   5.275   2.883   2.793  0.5187  0.5251  0.4762
18092TIP3    H175691   5.308   2.970   2.772  1.4207 -0.5983 -3.4220
18092TIP3    H275692   5.207   2.866   2.727  0.3201 -1.7122  1.1781
18093TIP3   OH275693   0.273   6.421   4.052  0.0262 -0.3422  0.2297
18093TIP3    H175694   0.293   6.331   4.075 -0.9165 -1.1067 -1.7463
18093TIP3    H275695   0.197   6.415   3.994  1.5576  1.4736 -2.1528
18094TIP3   OH275696   4.339   1.926   4.408 -0.0997  0.2392 -0.3978
18094TIP3    H175697   4.337   1.961   4.497 -0.7954  0.4263 -0.4834
18094TIP3    H275698   4.266   1.969   4.363 -0.4873 -0.7245 -0.7238
18095TIP3   OH275699   0.333   5.743   0.425 -0.6952  0.7017  0.3909
18095TIP3    H175700   0.264   5.686   0.392 -0.2481 -0.4585  1.3782
18095TIP3    H275701   0.288   5.807   0.480 -0.8676 -2.0182  3.8097
18096TIP3   OH275702   3.901   1.814   3.987  0.2117  0.5137  0.4118
18096TIP3    H175703   3.867   1.737   3.942 -1.1835 -0.2245  2.5811
18096TIP3    H275704   3.888   1.886   3.925 -4.0069  0.0057  0.4381
18097TIP3   OH275705   0.595   1.647   1.394 -0.0455  0.5765  0.0996
18097TIP3    H175706   0.518   1.602   1.360  0.8541 -1.0022  0.0502
18097TIP3    H275707   0.593   1.628   1.488  0.0241  0.9426  0.1754
18098TIP3   OH275708   1.491   1.985   5.058 -0.6663 -0.0035 -0.1972
18098TIP3    H175709   1.530   2.042   5.124 -2.6521  3.7727 -1.9881
18098TIP3    H275710   1.530   2.012   4.976  0.0506 -3.0239 -0.9871
18099TIP3   OH275711   3.136   1.372  12.651  0.1497  0.4825  0.5482
18099TIP3    H175712   3.190   1.347  12.727  1.0181 -1.2995 -0.5845
18099TIP3    H275713   3.196   1.371  12.577 -1.2017 -0.5604 -0.5979
18100TIP3   OH275714   5.698   5.516  12.769  0.4644 -0.4484 -0.0259
18100TIP3    H175715   5.684   5.603  12.807 -2.3837 -1.0793  0.6126
18100TIP3    H275716   5.649   5.518  12.687  1.5857 -1.0175 -0.7288
18101TIP3   OH275717   0.047   4.601   1.818 -0.6094  0.3843  0.6764
18101TIP3    H175718   0.089   4.686   1.805  0.6933 -0.0862  1.5642
18101TIP3    H275719   0.073   4.575   1.907 -1.7558 -0.5211  0.7752
18102TIP3   OH275720   2.151   6.002   0.126  0.0861  0.4325 -0.2726
18102TIP3    H175721   2.145   6.094   0.101  0.6687  0.1943 -1.3191
18102TIP3    H275722   2.230   5.971   0.084 -0.4377 -0.7124 -0.4323
18103TIP3   OH275723   4.063   2.348   0.221  0.5229  0.0827  0.0521
18103TIP3    H175724   4.117   2.399   0.160  1.2066 -0.4974  0.1597
18103TIP3    H275725   4.125   2.317   0.287  0.0089 -0.3718  0.3229
18104TIP3   OH275726   1.427   1.484  10.539 -0.2526 -0.4365 -0.2940
18104TIP3    H175727   1.371   1.463  10.464  0.4905 -0.0240 -0.9822
18104TIP3    H275728   1.371   1.537  10.596 -0.6956 -0.3751 -0.7762
18105TIP3   OH275729   0.951   3.011   4.688 -0.2504  0.0367 -0.1715
18105TIP3    H175730   0.998   3.053   4.760 -3.2257  1.3344  1.2075
18105TIP3    H275731   0.950   2.918   4.711 -0.2846  0.3035  0.9662
18106TIP3   OH275732   3.363   0.350   3.563  0.1205 -0.0035  0.1116
18106TIP3    H175733   3.314   0.305   3.493  0.7661 -0.2348 -0.1981
18106TIP3    H275734   3.373   0.283   3.631  1.6860 -0.5832 -0.6359
18107TIP3   OH275735   1.999   0.664   2.156  0.2066  0.0284  0.1368
18107TIP3    H175736   2.079   0.614   2.141  0.7204  0.6457  0.7556
18107TIP3    H275737   2.020   0.752   2.125 -0.3994  0.0791 -0.1427
18108TIP3   OH275738   6.487   2.671  12.016  0.6757 -0.2507 -0.5520
18108TIP3    H175739   6.401   2.706  11.994  0.7417  0.8076  0.7470
18108TIP3    H275740   6.468   2.589  12.063  0.4251 -0.4926 -1.0649
18109TIP3   OH275741   4.911   0.436  11.128  0.4265 -0.1117  0.0312
18109TIP3    H175742   4.994   0.420  11.174  1.0922 -3.0598 -1.8492
18109TIP3    H275743   4.936   0.436  11.035 -1.0692  3.9769 -0.5649
18110TIP3   OH275744   2.812   6.265   6.041  0.0451 -0.3466 -0.1447
18110TIP3    H175745   2.868   6.189   6.059  0.0869 -0.2599  0.0901
18110TIP3    H275746   2.871   6.330   6.004 -0.1094 -0.6583 -0.9576
18111TIP3   OH275747   6.528   3.842  16.737  0.2446 -0.3478  1.1959
18111TIP3    H175748   6.623   3.853  16.728  0.3293  1.1080  3.2830
18111TIP3    H275749   6.513   3.838  16.831 -1.7776 -0.8044  0.8972
18112TIP3   OH275750   6.681   4.370  13.905  0.0107  0.1682  0.5243
18112TIP3    H175751   6.610   4.408  13.957 -1.6514 -0.0522 -1.4568
18112TIP3    H275752   6.732   4.446  13.876 -0.9160  0.5570 -0.1151
18113TIP3   OH275753   4.591   2.495  13.653  0.2645 -0.8180  0.3862
18113TIP3    H175754   4.535   2.420  13.634  0.8284 -1.2098  0.2338
18113TIP3    H275755   4.536   2.554  13.704 -0.3883 -1.0413 -0.0389
18114TIP3   OH275756   3.418   6.278   3.362 -0.3223  0.1007  0.4933
18114TIP3    H175757   3.412   6.352   3.421 -2.5219  0.1990  0.2437
18114TIP3    H275758   3.337   6.228   3.377 -2.3844  1.5112 -4.0734
18115TIP3   OH275759   1.263   3.849   0.024  0.2881  0.4916 -0.1414
18115TIP3    H175760   1.330   3.783   0.008  0.5421  0.7472 -0.1302
18115TIP3    H275761   1.303   3.910   0.086 -0.9067 -0.8676  2.1140
18116TIP3   OH275762   5.543   4.974   2.901 -0.3560  0.1029 -0.5671
18116TIP3    H175763   5.492   5.051   2.929 -0.5056 -0.5252  0.9733
18116TIP3    H275764   5.499   4.900   2.942  1.5622 -0.5076  0.4940
18117TIP3   OH275765   0.330   6.631  13.124 -0.2094  0.1082 -0.2627
18117TIP3    H175766   0.377   6.565  13.072  0.9587 -0.2212  1.1373
18117TIP3    H275767   0.352   6.714  13.083 -0.3791 -0.2305 -1.0667
18118TIP3   OH275768   0.061   4.481  10.962  0.0068  0.5466  0.4227
18118TIP3    H175769   0.036   4.564  10.921  0.5073  0.9761  0.9724
18118TIP3    H275770  -0.019   4.429  10.962 -0.9189  1.8893  2.1747
18119TIP3   OH275771   4.109   3.962  15.341 -0.1578 -0.0945 -0.2315
18119TIP3    H175772   4.075   4.048  15.364  0.9392 -0.2358  2.2865
18119TIP3    H275773   4.189   3.979  15.291 -0.2978  0.3247 -0.3117
18120TIP3   OH275774   1.021   2.995  13.674  0.6575 -0.3086  0.2546
18120TIP3    H175775   1.054   3.084  13.660 -0.0829 -0.0380  0.1826
18120TIP3    H275776   0.937   2.994  13.629  0.4685 -0.9214  0.6198
18121TIP3   OH275777   4.897   4.938  15.134  0.0905  0.3349  0.2243
18121TIP3    H175778   4.812   4.973  15.160  1.0490  1.9979  1.3205
18121TIP3    H275779   4.877   4.878  15.062 -2.0832 -0.0629  1.0690
18122TIP3   OH275780   2.929   0.153  13.762 -0.1816  0.3875 -0.0004
18122TIP3    H175781   2.903   0.234  13.718 -1.7098  1.0125  1.9056
18122TIP3    H275782   2.873   0.148  13.839  0.1034 -2.3300  0.1540
18123TIP3   OH275783   6.564   3.875   3.480 -0.0247 -0.1495  1.0075
18123TIP3    H175784   6.529   3.826   3.554 -0.3427 -1.1658  0.2088
18123TIP3    H275785   6.506   3.854   3.407  0.6020  0.3912  0.3360
18124TIP3   OH275786   3.113   6.238   2.162  0.2915 -0.3630 -0.2929
18124TIP3    H175787   3.145   6.242   2.072 -0.2036  0.4354 -0.4392
18124TIP3    H275788   3.096   6.329   2.185 -3.3633 -0.7916 -0.7431
18125TIP3   OH275789   4.268   4.662   5.349 -0.3114 -0.1555  0.8135
18125TIP3    H175790   4.192   4.617   5.386 -2.0272  2.4873  0.7944
18125TIP3    H275791   4.241   4.685   5.260  0.1752  1.4262  1.0315
18126TIP3   OH275792   5.056   5.167   5.311 -0.5011 -0.6980 -0.2652
18126TIP3    H175793   5.125   5.186   5.247 -1.9825 -0.3054 -1.7952
18126TIP3    H275794   4.981   5.141   5.259 -1.7536 -0.4336  1.3337
18127TIP3   OH275795   3.173   5.422   1.741  0.1199  0.4722 -0.0416
18127TIP3    H175796   3.226   5.409   1.663 -1.3787 -0.1226 -0.9988
18127TIP3    H275797   3.234   5.412   1.814  1.0973 -1.3899 -1.0542
18128TIP3   OH275798   5.051   3.737  12.718  0.9731  0.4006 -0.2653
18128TIP3    H175799   5.024   3.646  12.702 -0.7541  1.1167 -1.9488
18128TIP3    H275800   5.106   3.759  12.643 -0.2114  1.2851 -0.9123
18129TIP3   OH275801   0.689   0.218  16.133 -0.0020  0.2999  0.1471
18129TIP3    H175802   0.606   0.266  16.136 -0.9892 -1.3163 -0.0947
18129TIP3    H275803   0.755   0.285  16.149 -1.2300  1.9262 -1.1127
18130TIP3   OH275804   4.766   3.935  15.029  0.2843 -0.3749 -0.6559
18130TIP3    H175805   4.770   3.859  14.971 -0.6213 -0.9272 -0.0150
18130TIP3    H275806   4.829   3.916  15.099  0.8200 -0.0498 -1.0385
18131TIP3   OH275807   2.450   2.112  16.995 -0.3003  0.0425  0.8210
18131TIP3    H175808   2.438   2.181  16.929  0.8167  0.4700  1.0361
18131TIP3    H275809   2.462   2.032  16.944 -1.2639  0.0460  0.5605
18132TIP3   OH275810   4.495   0.615   5.855 -0.0006 -0.0128 -0.1020
18132TIP3    H175811   4.513   0.560   5.931 -0.0730  0.3718  0.1946
18132TIP3    H275812   4.426   0.674   5.883  0.9443  1.0826  0.0092
18133TIP3   OH275813   3.091   1.116   5.858  0.6273 -0.3374 -0.4915
18133TIP3    H175814   3.083   1.094   5.765 -0.0094 -1.8276 -0.1040
18133TIP3    H275815   3.185   1.130   5.870  0.7004  0.0483 -1.3841
18134TIP3   OH275816   0.736   1.274  15.086 -0.3752  0.1387  0.2337
18134TIP3    H175817   0.641   1.259  15.084 -0.2297 -1.3015  1.8485
18134TIP3    H275818   0.772   1.189  15.111  1.2703  0.9421  0.6676
18135TIP3   OH275819   2.267   5.038   0.311  0.0602  0.4076  0.0268
18135TIP3    H175820   2.239   4.962   0.361  1.4975  2.0244  3.6490
18135TIP3    H275821   2.200   5.104   0.328  0.7338  1.0875  0.1034
18136TIP3   OH275822   0.169   2.809  14.819 -0.0608  0.7837 -0.5389
18136TIP3    H175823   0.197   2.809  14.727 -0.0294  0.4549 -0.5303
18136TIP3    H275824   0.091   2.754  14.820  1.4376 -1.4745  0.0650
18137TIP3   OH275825   0.314   1.070  17.009 -0.5640 -0.4490 -0.2005
18137TIP3    H175826   0.386   1.090  16.949  1.2229  1.1876  2.2648
18137TIP3    H275827   0.264   1.152  17.014 -1.2233 -0.8520 -0.1160
18138TIP3   OH275828   2.563   4.436   5.534 -0.0308 -0.0156 -0.0645
18138TIP3    H175829   2.647   4.445   5.491 -0.2050 -1.8701 -0.8603
18138TIP3    H275830   2.554   4.342   5.551 -1.3812  0.2929  1.1577
18139TIP3   OH275831   2.099   5.200  14.933  0.4419 -0.1818 -0.4446
18139TIP3    H175832   2.125   5.114  14.899  1.9945 -0.0238  0.2755
18139TIP3    H275833   2.181   5.247  14.945 -0.3530  1.1852 -0.2181
18140TIP3   OH275834   3.039   1.879   3.802  0.1569 -0.0751  0.2307
18140TIP3    H175835   3.090   1.893   3.882  0.2691  0.0013  0.1456
18140TIP3    H275836   3.019   1.967   3.770 -0.8065 -0.0944  0.7557
18141TIP3   OH275837   5.560   1.437  15.365  0.1358  0.5483  0.0487
18141TIP3    H175838   5.643   1.457  15.409  0.9019 -1.7645 -0.2067
18141TIP3    H275839   5.498   1.423  15.437  1.0222 -1.7528  0.4582
18142TIP3   OH275840   1.837   3.675   2.255 -0.5762  0.5943  0.0269
18142TIP3    H175841   1.829   3.769   2.238 -0.0495  0.5881 -0.3126
18142TIP3    H275842   1.791   3.634   2.181 -0.9298  0.5874  0.2521
18143TIP3   OH275843   4.665   6.256   5.708  0.1070  0.2764 -0.3906
18143TIP3    H175844   4.639   6.175   5.664 -0.5325  0.3238 -0.1056
18143TIP3    H275845   4.722   6.300   5.645  0.3711 -0.3412 -0.5942
18144TIP3   OH275846   0.575   6.162  14.088 -0.0700  0.7204  0.1542
18144TIP3    H175847   0.611   6.090  14.037 -0.1080  0.6806  0.1840
18144TIP3    H275848   0.491   6.130  14.119 -2.2137  2.2243 -3.3872
18145TIP3   OH275849   5.702   0.672  12.218  0.6982  0.2156 -0.1489
18145TIP3    H175850   5.737   0.657  12.130  1.8125  0.0789  0.2996
18145TIP3    H275851   5.686   0.766  12.221 -1.6107 -0.0903 -1.2873
18146TIP3   OH275852   0.046   1.528   1.849 -0.4786 -0.1087 -0.0885
18146TIP3    H175853  -0.018   1.460   1.874 -1.9533  0.9227 -0.9217
18146TIP3    H275854   0.089   1.551   1.932 -0.2832 -1.6939  0.2895
18147TIP3   OH275855   0.993   2.347   0.040 -0.4228  0.0971  0.0838
18147TIP3    H175856   1.012   2.371   0.130 -1.2071 -1.2010  0.6177
18147TIP3    H275857   1.071   2.375  -0.009  0.3928 -0.0020  1.2918
18148TIP3   OH275858   1.864   1.247  16.838 -0.2353 -0.0280  0.3563
18148TIP3    H175859   1.797   1.253  16.906  0.2367 -0.4166  0.8546
18148TIP3    H275860   1.879   1.338  16.811 -1.0422  0.0525  0.1583
18149TIP3   OH275861   2.245   4.493  15.641 -0.7424  0.3073  0.3635
18149TIP3    H175862   2.208   4.519  15.557 -0.0872  1.6040  0.4395
18149TIP3    H275863   2.244   4.574  15.693  0.3570 -0.0808  1.0248
18150TIP3   OH275864   1.615   6.092   1.716  0.0393  0.0198  0.1694
18150TIP3    H175865   1.579   6.148   1.784  0.1034  0.7063 -0.3516
18150TIP3    H275866   1.543   6.033   1.692  0.3638 -1.0403  1.6452
18151TIP3   OH275867   6.275   2.380   2.082  0.1933 -0.1872 -0.1378
18151TIP3    H175868   6.349   2.421   2.128 -1.7506  2.3145  1.0153
18151TIP3    H275869   6.236   2.451   2.032 -0.6792 -1.7760 -1.8243
18152TIP3   OH275870   0.911   3.021   4.328  0.1376  0.6084  0.3703
18152TIP3    H175871   0.999   3.033   4.365  0.0166 -0.4891  1.0762
18152TIP3    H275872   0.858   3.090   4.369  0.1717 -0.1448  1.7692
18153TIP3   OH275873   0.110   6.793   0.120  0.2768  0.5084  0.4368
18153TIP3    H175874   0.072   6.872   0.158  2.5644  0.9738  1.9145
18153TIP3    H275875   0.196   6.785   0.160  1.6793 -0.6520 -2.4850
18154TIP3   OH275876   5.716   5.431   5.652 -0.0283  0.2114 -0.7142
18154TIP3    H175877   5.774   5.507   5.655  1.1682 -0.6328 -1.4559
18154TIP3    H275878   5.682   5.430   5.563  1.2643 -1.0123 -1.2329
18155TIP3   OH275879   3.060   0.435  16.813  0.2183 -0.2701  0.3745
18155TIP3    H175880   3.035   0.460  16.903 -1.7767  0.0439 -0.2109
18155TIP3    H275881   3.082   0.518  16.771  3.0425 -0.5821  1.0190
18156TIP3   OH275882   1.292   0.713  12.423  0.6190 -0.1549 -0.0052
18156TIP3    H175883   1.341   0.725  12.504  0.8788  0.8283 -0.2859
18156TIP3    H275884   1.270   0.802  12.395 -0.9651 -0.5507 -0.1171
18157TIP3   OH275885   1.899   5.217  12.788 -0.4018  0.5220 -0.5676
18157TIP3    H175886   1.870   5.295  12.835  0.8620  0.5321  0.2480
18157TIP3    H275887   1.826   5.156  12.796 -0.1488  0.4116  1.7298
18158TIP3   OH275888   1.686   0.400   1.356  0.3765  0.5189  0.9461
18158TIP3    H175889   1.688   0.437   1.268 -0.6439 -1.0935  0.2066
18158TIP3    H275890   1.699   0.476   1.414  1.8503  1.4990 -0.5813
18159TIP3   OH275891   0.046   5.900  15.641  0.2769 -0.1771  0.2498
18159TIP3    H175892  -0.004   5.827  15.604 -0.3786  0.2501  0.2666
18159TIP3    H275893   0.031   5.972  15.580 -0.5928  0.4590  1.1950
18160TIP3   OH275894   1.409   4.755   2.025 -0.1483  0.5997 -0.3382
18160TIP3    H175895   1.474   4.819   1.998 -0.0720  1.1941  1.1589
18160TIP3    H275896   1.340   4.806   2.067 -0.8450 -0.1646 -0.5139
18161TIP3   OH275897   6.379   2.173   4.793  0.1566  0.1328 -0.4219
18161TIP3    H175898   6.453   2.122   4.761 -0.1792 -0.3223 -0.4889
18161TIP3    H275899   6.402   2.194   4.883 -0.1638 -1.0639 -0.0343
18162TIP3   OH275900   2.205   5.866   1.084 -0.1073  0.0772 -0.0572
18162TIP3    H175901   2.208   5.948   1.134 -1.3149 -0.8660  1.7046
18162TIP3    H275902   2.213   5.892   0.993  1.8280  1.9414  0.5867
18163TIP3   OH275903   0.585   6.125   0.041  0.6763  0.5199 -0.1243
18163TIP3    H175904   0.502   6.085   0.066  2.3990 -3.3156  0.0619
18163TIP3    H275905   0.584   6.124  -0.055 -0.4714  3.0601 -0.2428
18164TIP3   OH275906   4.047   0.000  16.679 -0.2755  0.2284  0.0884
18164TIP3    H175907   4.066  -0.083  16.722  2.2690  0.3567 -0.6034
18164TIP3    H275908   4.095  -0.004  16.596 -1.0784  1.9060 -0.5009
18165TIP3   OH275909   0.088   1.942  11.750  0.3745  0.2502  0.0841
18165TIP3    H175910   0.123   2.026  11.721 -2.0235  1.4201  0.2704
18165TIP3    H275911   0.016   1.924  11.690  1.1710 -2.0121 -0.3015
18166TIP3   OH275912   4.700   6.287   3.113 -0.0936 -0.3009 -0.0272
18166TIP3    H175913   4.746   6.236   3.180  0.1494 -1.3236 -0.9457
18166TIP3    H275914   4.757   6.283   3.036 -1.1425 -0.5555 -0.8077
18167TIP3   OH275915   4.080   2.346  15.228 -0.1995 -0.1653  0.0335
18167TIP3    H175916   4.011   2.379  15.171 -0.7560  1.4780  1.5570
18167TIP3    H275917   4.077   2.251  15.218 -3.2968 -0.2336  0.7016
18168TIP3   OH275918   1.868   6.681   2.566 -0.1472 -0.5132 -0.2124
18168TIP3    H175919   1.945   6.633   2.535  0.5582 -0.1430  0.9204
18168TIP3    H275920   1.811   6.685   2.489  1.2470 -0.2099 -1.2820
18169TIP3   OH275921   6.339   3.653  13.990 -0.2488 -0.1720 -0.4463
18169TIP3    H175922   6.298   3.720  13.935 -0.5771  0.7743  0.9015
18169TIP3    H275923   6.266   3.612  14.036  0.1742  0.6578  1.0214
18170TIP3   OH275924   4.503   5.110  10.544  0.3929 -0.3352 -0.1166
18170TIP3    H175925   4.539   5.182  10.596 -0.6537 -1.2111  1.9344
18170TIP3    H275926   4.579   5.060  10.515  1.0926 -2.3503  4.3821
18171TIP3   OH275927   5.687   6.193   1.533 -0.3394 -0.2387 -0.0651
18171TIP3    H175928   5.668   6.267   1.475  0.4181 -0.6987 -0.9192
18171TIP3    H275929   5.768   6.218   1.578  0.3564 -0.8625 -0.9371
18172TIP3   OH275930   0.899   3.754  16.126 -0.2409 -0.0939 -0.0880
18172TIP3    H175931   0.917   3.741  16.033 -2.1614  1.1580 -0.6697
18172TIP3    H275932   0.805   3.765  16.132 -0.0266  1.1685  1.8586
18173TIP3   OH275933   5.778   5.661  14.708 -0.4375  0.6419 -0.0492
18173TIP3    H175934   5.791   5.568  14.691 -2.0199  0.2002  0.8657
18173TIP3    H275935   5.737   5.695  14.629 -2.6425 -0.1578  0.6711
18174TIP3   OH275936   3.642   5.169  11.427  0.1545  0.4383 -0.1279
18174TIP3    H175937   3.587   5.238  11.390 -0.7200  0.4807  1.2075
18174TIP3    H275938   3.610   5.157  11.516 -0.6690 -2.7226 -0.7387
18175TIP3   OH275939   4.650   0.127   2.674 -0.4302  0.1582 -0.1362
18175TIP3    H175940   4.621   0.218   2.669  1.2299  0.9048  2.0771
18175TIP3    H275941   4.729   0.130   2.727  0.2125 -2.4980 -0.7916
18176TIP3   OH275942   2.703   4.581   2.275  0.3201 -0.1273 -0.1921
18176TIP3    H175943   2.702   4.652   2.339 -0.0574 -0.4085  0.1175
18176TIP3    H275944   2.625   4.529   2.295  0.7295 -0.7737 -0.2475
18177TIP3   OH275945   0.044   3.043   5.496 -0.1100 -0.0650 -0.3082
18177TIP3    H175946  -0.033   3.022   5.443 -0.4961  1.0762 -0.2148
18177TIP3    H275947   0.009   3.060   5.583  0.4541 -1.2795  0.1723
18178TIP3   OH275948   2.485   1.107  15.775 -0.5978 -0.1259 -0.1036
18178TIP3    H175949   2.450   1.071  15.857 -2.3385 -0.7998 -1.0939
18178TIP3    H275950   2.408   1.137  15.726  0.5127  1.4748 -0.9604
18179TIP3   OH275951   1.265   0.220  16.296  0.0267 -0.0548  0.0881
18179TIP3    H175952   1.351   0.208  16.337 -0.5226 -0.3886  1.1622
18179TIP3    H275953   1.212   0.261  16.363 -0.5301  0.5994 -0.7391
18180TIP3   OH275954   4.749   0.537  14.503  0.6928  0.2521  0.1671
18180TIP3    H175955   4.696   0.473  14.550  0.3082  0.2715 -0.2259
18180TIP3    H275956   4.759   0.610  14.564  1.1702 -0.2006  0.6298
18181TIP3   OH275957   1.854   5.899   5.593  0.5722  0.8447  0.4295
18181TIP3    H175958   1.822   5.882   5.504 -1.1610  0.9843  0.9774
18181TIP3    H275959   1.928   5.840   5.605 -0.4015 -0.5862 -0.4325
18182TIP3   OH275960   4.702   1.623   2.935  0.0503 -0.3496 -0.1610
18182TIP3    H175961   4.685   1.639   2.843  0.0241 -0.5344 -0.1887
18182TIP3    H275962   4.642   1.553   2.959  0.2140 -0.4581 -0.0606
18183TIP3   OH275963   5.915   1.927  13.868  0.1831 -0.4672  0.2636
18183TIP3    H175964   5.874   1.890  13.947 -0.5707 -0.3070 -0.0450
18183TIP3    H275965   5.890   2.019  13.869  1.1358 -0.1969  0.4390
18184TIP3   OH275966   3.279   2.696   3.426 -0.1872 -0.0889  0.5337
18184TIP3    H175967   3.361   2.735   3.457  0.0408 -0.2812  0.1807
18184TIP3    H275968   3.234   2.667   3.506  0.6294 -1.0588  0.6683
18185TIP3   OH275969   6.125   4.804   3.386  0.5473 -0.5340 -0.3363
18185TIP3    H175970   6.152   4.714   3.403 -0.1693 -0.6667  0.1416
18185TIP3    H275971   6.159   4.854   3.460  1.4019 -0.3157 -0.8698
18186TIP3   OH275972   1.492   6.391  16.284 -0.1440 -0.1051  0.0073
18186TIP3    H175973   1.513   6.484  16.286  1.8165 -0.5089  0.8226
18186TIP3    H275974   1.398   6.387  16.302 -0.4967  1.7394 -1.0802
18187TIP3   OH275975   5.288   1.623   4.981  0.0295 -0.1186  0.2501
18187TIP3    H175976   5.346   1.643   5.054  0.0884 -1.2213  0.5176
18187TIP3    H275977   5.200   1.619   5.019 -0.1369  0.7952 -0.0178
18188TIP3   OH275978   5.254   5.154  12.318  0.2379  0.1739  0.6080
18188TIP3    H175979   5.198   5.092  12.364  0.5648 -0.8009 -0.2738
18188TIP3    H275980   5.341   5.115  12.322  0.3991  0.4411 -0.1961
18189TIP3   OH275981   6.539   4.049  15.216  0.1852 -0.0369  0.3016
18189TIP3    H175982   6.451   4.051  15.178 -0.2151 -0.4299  1.1898
18189TIP3    H275983   6.595   4.023  15.143 -0.4542  0.0714 -0.2395
18190TIP3   OH275984   2.378   5.047   5.771  0.5883 -0.4960 -0.3758
18190TIP3    H175985   2.433   5.052   5.849  1.3640  0.6286 -0.9669
18190TIP3    H275986   2.356   5.138   5.751 -1.7957 -0.9163  0.0234
18191TIP3   OH275987   1.622   0.675   3.628 -0.3217  0.1870 -0.1377
18191TIP3    H175988   1.644   0.602   3.571 -0.2816 -1.5544  1.9913
18191TIP3    H275989   1.527   0.669   3.640 -0.5015  1.2376 -0.8727
18192TIP3   OH275990   0.942   4.036   1.597 -0.0544 -0.3166  0.4184
18192TIP3    H175991   1.010   4.034   1.530 -0.1019  0.1952  0.3573
18192TIP3    H275992   0.989   4.023   1.680  0.0542 -0.4882  0.3316
18193TIP3   OH275993   6.487   0.507  12.969 -0.6390  0.0093 -0.3919
18193TIP3    H175994   6.491   0.581  13.029 -0.5968 -0.4088  0.1311
18193TIP3    H275995   6.571   0.507  12.924 -1.7240  2.1288 -2.6770
18194TIP3   OH275996   0.028   3.120   5.233 -0.1367 -0.2145 -0.2647
18194TIP3    H175997   0.022   3.196   5.291  0.5837 -0.5828  0.3086
18194TIP3    H275998  -0.055   3.120   5.186 -0.1767  0.8925 -0.2380
18195TIP3   OH275999   0.900   5.236  15.469  0.0884 -0.2023 -0.8836
18195TIP3    H176000   0.936   5.168  15.412 -1.8990 -2.3533  0.2890
18195TIP3    H276001   0.852   5.188  15.536 -1.0656  2.3775  0.2491
18196TIP3   OH276002   5.820   2.057  12.515  0.5739 -0.1931 -0.1351
18196TIP3    H176003   5.789   1.983  12.464  0.7897  0.1010 -0.7015
18196TIP3    H276004   5.841   2.020  12.601 -3.5590 -0.0384  1.1631
18197TIP3   OH276005   4.738   3.860  13.675  0.3965  0.1834 -0.6503
18197TIP3    H176006   4.734   3.951  13.647  0.1976  0.2951 -0.2722
18197TIP3    H276007   4.821   3.854  13.724  0.9711 -0.1236 -1.6273
18198TIP3   OH276008   3.682   0.966   4.211  0.5081  0.4862 -0.0850
18198TIP3    H176009   3.600   0.997   4.173 -0.7808  0.7410  2.6369
18198TIP3    H276010   3.675   0.871   4.209  0.7299  0.4759 -0.9367
18199TIP3   OH276011   5.646   6.377   3.082 -0.6778  0.1817  0.0673
18199TIP3    H176012   5.657   6.340   2.994 -0.4440  0.6174 -0.0870
18199TIP3    H276013   5.681   6.310   3.140 -0.5854  0.0045 -0.1885
18200TIP3   OH276014   0.892   0.758   0.733  0.6065  0.2003 -0.0905
18200TIP3    H176015   0.945   0.680   0.716 -1.6228 -1.4764  0.1986
18200TIP3    H276016   0.866   0.788   0.646  0.6947  0.0511 -0.1688
18201TIP3   OH276017   4.757   0.645   5.765  0.1495 -0.3142  0.8846
18201TIP3    H176018   4.747   0.632   5.671  2.2473  0.6131  0.4686
18201TIP3    H276019   4.675   0.613   5.803 -0.8234 -0.5247 -1.2584
18202TIP3   OH276020   3.225   1.151   3.718 -0.1796 -0.0329 -0.1213
18202TIP3    H176021   3.245   1.058   3.720 -0.9565 -0.1982  0.4354
18202TIP3    H276022   3.201   1.172   3.809 -0.0055  0.7035 -0.2425
18203TIP3   OH276023   4.883   2.737   4.323  0.1482 -0.3410  0.3863
18203TIP3    H176024   4.961   2.748   4.377  0.3297  0.1241  0.0345
18203TIP3    H276025   4.916   2.710   4.237 -0.1971 -2.0372  0.7598
18204TIP3   OH276026   2.560   6.253   5.859  0.7371 -0.0518 -0.0791
18204TIP3    H176027   2.528   6.183   5.916  1.2289 -0.5759 -0.4312
18204TIP3    H276028   2.643   6.280   5.897  1.5819 -1.1070 -1.0657
18205TIP3   OH276029   0.483   3.105  11.944 -0.2185  0.2063  0.4363
18205TIP3    H176030   0.501   3.019  11.906 -3.2924 -0.0845 -0.6023
18205TIP3    H276031   0.486   3.090  12.039  0.0557 -0.8386  0.2822
18206TIP3   OH276032   0.134   3.109  15.597  0.1716  0.5470 -0.2416
18206TIP3    H176033   0.218   3.090  15.639 -0.1079 -0.1566  0.0194
18206TIP3    H276034   0.094   3.023  15.584 -0.7923  0.9055  0.2503
18207TIP3   OH276035   2.798   1.815   3.607 -0.3588  0.0574 -0.5027
18207TIP3    H176036   2.824   1.739   3.658 -0.6578  0.8967  0.9600
18207TIP3    H276037   2.878   1.843   3.563 -0.3618 -1.3854 -1.4985
18208TIP3   OH276038   5.037   2.670   2.897  0.2545  0.3023  0.2148
18208TIP3    H176039   5.114   2.622   2.865  0.6821  1.9043 -1.3390
18208TIP3    H276040   5.051   2.679   2.991  2.0027  0.6003 -0.0406
18209TIP3   OH276041   2.916   5.254   1.557 -0.2037  0.2786  0.7133
18209TIP3    H176042   2.941   5.161   1.551  0.0470  0.4257 -0.9351
18209TIP3    H276043   2.989   5.295   1.603  0.8438  0.0395 -0.6518
18210TIP3   OH276044   0.378   5.120   5.062 -0.0320  0.6034 -1.2227
18210TIP3    H176045   0.463   5.162   5.073 -0.7282  1.7580  0.0477
18210TIP3    H276046   0.315   5.193   5.062 -1.2734 -0.3699  0.9934
18211TIP3   OH276047   2.124   4.675  15.820 -0.6767  0.0577  0.8623
18211TIP3    H176048   2.073   4.747  15.784 -1.2539  0.2627  2.0432
18211TIP3    H276049   2.084   4.658  15.905  0.6438 -0.4103  1.4060
18212TIP3   OH276050   0.121   6.533  12.618 -0.4448  0.1322 -0.0433
18212TIP3    H176051   0.066   6.458  12.593 -0.9948  0.0269  1.4124
18212TIP3    H276052   0.198   6.493  12.660 -0.6808  0.3856  0.6242
18213TIP3   OH276053   1.430   0.211  11.845 -0.2623 -0.1094 -0.4789
18213TIP3    H176054   1.443   0.261  11.926 -0.6473 -2.0143  0.8110
18213TIP3    H276055   1.401   0.277  11.782  0.4962  1.5245  0.7729
18214TIP3   OH276056   4.869   3.152  12.640 -0.2463  0.5481  0.4882
18214TIP3    H176057   4.797   3.192  12.688 -1.7688  0.4557 -1.5557
18214TIP3    H276058   4.837   3.147  12.550  2.3512  0.5138 -0.5117
18215TIP3   OH276059   0.341   5.400   2.882  0.0995  0.3357 -0.1293
18215TIP3    H176060   0.253   5.411   2.846 -1.3397 -0.6028  2.7741
18215TIP3    H276061   0.349   5.471   2.947  1.0643 -0.2005  0.3551
18216TIP3   OH276062   2.234   4.853   5.072 -0.4517 -1.1354  0.5647
18216TIP3    H176063   2.232   4.945   5.100 -0.1697 -0.9424 -0.0212
18216TIP3    H276064   2.319   4.821   5.101 -0.1594 -0.9354 -0.0444
18217TIP3   OH276065   4.175   0.802   5.111  1.0213  0.3718 -0.1232
18217TIP3    H176066   4.133   0.796   5.026  1.1110  0.7614 -0.1959
18217TIP3    H276067   4.233   0.877   5.104  0.2806  1.0276  0.5994
18218TIP3   OH276068   0.415   0.742  11.627  0.2891  0.2953 -0.1062
18218TIP3    H176069   0.427   0.689  11.548  2.6170  0.7785 -0.1523
18218TIP3    H276070   0.409   0.832  11.595 -0.4536  0.3576  0.1803
18219TIP3   OH276071   0.887   3.013   3.656  0.0373  0.3045 -0.4461
18219TIP3    H176072   0.939   3.060   3.722  1.0430  1.1216 -1.7503
18219TIP3    H276073   0.831   2.954   3.706  1.2712  0.3792  1.0978
18220TIP3   OH276074   2.995   3.044   3.777 -0.3808 -0.5119 -0.2409
18220TIP3    H176075   2.943   3.020   3.853 -0.2070  0.0759  0.0722
18220TIP3    H276076   2.987   2.969   3.718  1.6433 -2.1742  1.4424
18221TIP3   OH276077   4.724   4.888  12.778  0.1283 -0.1968 -0.4683
18221TIP3    H176078   4.682   4.838  12.848 -1.1849  2.1545  0.5492
18221TIP3    H276079   4.653   4.907  12.717  0.1682  1.7695  0.0259
18222TIP3   OH276080   2.928   2.990  15.741  0.3348 -0.3170 -0.0419
18222TIP3    H176081   2.871   3.067  15.738  1.5723  0.6254 -2.2085
18222TIP3    H276082   3.008   3.021  15.785  1.1655 -0.0529 -1.6598
18223TIP3   OH276083   2.579   3.519   3.852  0.8541 -0.5616 -0.8204
18223TIP3    H176084   2.544   3.459   3.786  1.0018 -0.7241 -0.7542
18223TIP3    H276085   2.640   3.465   3.903 -0.9327 -1.0533  0.9033
18224TIP3   OH276086   2.512   5.905  15.611  0.1464 -0.0065  0.2043
18224TIP3    H176087   2.421   5.882  15.631  0.4225 -1.7362 -0.4076
18224TIP3    H276088   2.563   5.860  15.679  0.5221  2.1497  1.4671
18225TIP3   OH276089   4.216   0.743   3.356 -0.6183  0.5090 -0.2760
18225TIP3    H176090   4.183   0.659   3.389  1.0374 -0.6398 -1.3536
18225TIP3    H276091   4.294   0.761   3.409  1.2922 -0.6822 -2.4766
18226TIP3   OH276092   0.625   4.905  11.515 -0.3724  0.4406 -0.0672
18226TIP3    H176093   0.593   4.922  11.426 -2.7332 -0.6542  0.4820
18226TIP3    H276094   0.600   4.983  11.565  0.3220  0.7536 -0.1979
18227TIP3   OH276095   5.597   1.873  11.429  0.8967  0.0231 -0.2514
18227TIP3    H176096   5.689   1.872  11.402  1.1847 -1.7875  0.6149
18227TIP3    H276097   5.600   1.898  11.522  0.7231 -1.7327  0.2628
18228TIP3   OH276098   3.788   4.260  15.247 -0.2069 -0.0075 -0.2395
18228TIP3    H176099   3.745   4.224  15.324  0.5300 -1.0781 -0.3139
18228TIP3    H276100   3.875   4.287  15.278 -0.3335  0.6591 -0.4432
18229TIP3   OH276101   1.171   1.728  15.816 -0.0260  0.0588  0.5151
18229TIP3    H176102   1.235   1.777  15.867  0.4600 -0.8110  0.7656
18229TIP3    H276103   1.193   1.636  15.832 -0.4105 -0.2409 -0.5846
18230TIP3   OH276104   4.166   3.089   4.708 -0.6502 -0.4519  0.7276
18230TIP3    H176105   4.104   3.161   4.694 -1.4747 -1.1052  0.9697
18230TIP3    H276106   4.164   3.074   4.802  2.8902  2.1573  1.4624
18231TIP3   OH276107   3.594   1.815  13.366  0.0140 -0.4108  0.0203
18231TIP3    H176108   3.585   1.891  13.424 -0.8646 -0.8490  0.4621
18231TIP3    H276109   3.634   1.851  13.287  0.1531  0.4048  0.4468
18232TIP3   OH276110   0.566   6.622  16.946 -0.7597  0.3375  0.2670
18232TIP3    H176111   0.488   6.678  16.948 -0.9383  0.1496 -0.9784
18232TIP3    H276112   0.554   6.566  16.869  0.4845  0.1181  0.2139
18233TIP3   OH276113   2.484   5.898  14.350  0.6873  0.0827 -0.4603
18233TIP3    H176114   2.441   5.821  14.314 -2.6627  0.5751  1.9717
18233TIP3    H276115   2.544   5.864  14.417  1.3950 -0.4759 -1.3587
18234TIP3   OH276116   3.676   5.084   1.667  0.3240 -0.2018 -0.4392
18234TIP3    H176117   3.626   5.140   1.607 -0.2939  0.8438  0.9868
18234TIP3    H276118   3.609   5.037   1.717  0.7576  0.4105  0.7516
18235TIP3   OH276119   6.088   5.778   2.128 -0.2001 -0.1999 -0.0894
18235TIP3    H176120   6.076   5.860   2.080  1.2354  0.7125  1.0216
18235TIP3    H276121   6.135   5.803   2.207 -3.0289 -1.5199  2.2180
18236TIP3   OH276122   3.182   3.394  11.443  0.0718  0.6468  0.1551
18236TIP3    H176123   3.148   3.456  11.378 -0.0327 -3.2968 -4.0718
18236TIP3    H276124   3.105   3.366  11.492 -0.8449  0.1413 -1.4885
18237TIP3   OH276125   0.786   5.333   3.571 -0.3481 -0.4269  0.6692
18237TIP3    H176126   0.838   5.412   3.586 -2.2157  1.2163 -1.0139
18237TIP3    H276127   0.851   5.262   3.570  1.4027  1.0384  2.1411
18238TIP3   OH276128   6.449   3.366  13.901 -0.3447 -0.1641  0.0273
18238TIP3    H176129   6.482   3.446  13.942  1.6408 -0.7307 -0.3691
18238TIP3    H276130   6.449   3.301  13.971  0.5911 -0.4710 -0.2389
18239TIP3   OH276131   6.208   3.218   4.406  0.1648 -0.0766 -0.2262
18239TIP3    H176132   6.302   3.200   4.410  0.1972  0.3200  1.9188
18239TIP3    H276133   6.168   3.149   4.458 -0.6340  0.3429 -0.2742
18240TIP3   OH276134   0.925   2.976  16.946  0.0330  0.0639 -0.1863
18240TIP3    H176135   0.940   2.882  16.957  0.9312  0.3026  0.8260
18240TIP3    H276136   0.997   3.018  16.995 -0.1652  1.2753 -0.8901
18241TIP3   OH276137   2.727   3.499  13.076  0.2843  0.2850  0.2737
18241TIP3    H176138   2.818   3.467  13.077  0.0124 -0.5827 -0.6326
18241TIP3    H276139   2.677   3.432  13.122 -0.0926  0.0521 -0.4542
18242TIP3   OH276140   0.489   0.393   6.151 -0.3352 -0.1946  0.0162
18242TIP3    H176141   0.524   0.318   6.199  0.8910  0.1281 -0.3481
18242TIP3    H276142   0.434   0.438   6.216 -1.0260 -1.3449  0.2569
18243TIP3   OH276143   1.540   6.421   5.638  0.1413  0.1221  0.4636
18243TIP3    H176144   1.581   6.365   5.703 -0.8879  1.2002  2.1120
18243TIP3    H276145   1.517   6.502   5.685 -0.6491  0.9486 -1.2181
18244TIP3   OH276146   4.063   1.129   5.387 -0.4278  0.0762 -0.5223
18244TIP3    H176147   4.013   1.058   5.427  1.2909 -1.0289 -0.2644
18244TIP3    H276148   4.135   1.146   5.447  1.2471 -0.4602 -2.2672
18245TIP3   OH276149   0.192   3.823   4.493 -0.0845 -0.0646 -0.5972
18245TIP3    H176150   0.229   3.902   4.532 -0.8838  0.0829 -0.1055
18245TIP3    H276151   0.254   3.798   4.425  0.7559  0.3371  0.0027
18246TIP3   OH276152   5.344   0.684   1.094  0.3795  0.4796  0.1989
18246TIP3    H176153   5.276   0.749   1.115  1.8478  1.8723  0.8120
18246TIP3    H276154   5.369   0.705   1.004  1.5662  1.4570  0.7373
18247TIP3   OH276155   2.980   5.440  13.966 -0.3192 -0.0903 -0.1182
18247TIP3    H176156   3.072   5.412  13.964 -0.5626 -0.8776 -0.5316
18247TIP3    H276157   2.973   5.502  13.893  0.5121  2.0880  1.5291
18248TIP3   OH276158   6.189   5.533   3.770  0.2961  0.0170 -0.0917
18248TIP3    H176159   6.170   5.444   3.738  1.0149  0.3525 -1.5806
18248TIP3    H276160   6.104   5.575   3.777  0.1092  0.3957 -3.2196
18249TIP3   OH276161   1.559   3.692  16.476  0.1307 -0.2854 -0.3653
18249TIP3    H176162   1.621   3.743  16.424 -0.9033 -0.4933 -1.8892
18249TIP3    H276163   1.500   3.757  16.514  1.0346 -0.1142  0.7854
18250TIP3   OH276164   3.418   4.623  17.105  0.0821 -0.4822 -0.1108
18250TIP3    H176165   3.381   4.622  17.017 -1.4890  0.7091  0.4810
18250TIP3    H276166   3.344   4.644  17.162  1.3863  0.4467  1.3226
18251TIP3   OH276167   5.283   0.538  11.665 -0.1924  0.3422 -0.1230
18251TIP3    H176168   5.209   0.520  11.723  1.7057 -1.8086  1.8767
18251TIP3    H276169   5.281   0.468  11.600 -0.6083  1.0208 -0.8537
18252TIP3   OH276170   2.093   3.102   3.192 -0.0601 -0.0687 -0.3045
18252TIP3    H176171   2.136   3.018   3.175  1.3277  0.4328  0.5447
18252TIP3    H276172   2.078   3.103   3.286 -0.4004  0.4866 -0.3606
18253TIP3   OH276173   1.809   3.528   4.700 -0.0146 -0.2545 -0.2718
18253TIP3    H176174   1.748   3.455   4.688  0.1215 -0.4138 -0.0020
18253TIP3    H276175   1.753   3.603   4.720 -0.2036 -0.1254 -1.2479
18254TIP3   OH276176   2.234   1.896  14.586 -0.1281 -0.5902  0.5348
18254TIP3    H176177   2.224   1.873  14.493  0.5009  0.7562  0.1138
18254TIP3    H276178   2.176   1.971  14.599  1.2858  0.5250  0.6925
18255TIP3   OH276179   3.352   4.867  15.403 -0.0160  0.3767  0.4245
18255TIP3    H176180   3.285   4.933  15.384 -0.0717  0.1543 -0.1721
18255TIP3    H276181   3.435   4.915  15.397 -0.0999  0.5773  0.8334
18256TIP3   OH276182   6.659   2.717  15.849  0.1400  0.0049 -0.1223
18256TIP3    H176183   6.616   2.724  15.934  0.0785  0.7305 -0.2075
18256TIP3    H276184   6.747   2.751  15.864  0.5092 -0.9524 -0.0814
18257TIP3   OH276185   1.074   4.460   2.604 -0.0222  0.2810  0.4706
18257TIP3    H176186   0.996   4.426   2.561  1.3028 -0.7073 -1.2805
18257TIP3    H276187   1.054   4.552   2.620 -1.1652  0.2946 -0.8610
18258TIP3   OH276188   5.280   3.752  14.663 -0.4290  1.2237 -0.0971
18258TIP3    H176189   5.304   3.818  14.728 -1.7076  1.5262  0.1003
18258TIP3    H276190   5.197   3.716  14.695  0.2185 -0.4380 -0.2409
18259TIP3   OH276191   6.483   1.712   4.153 -0.7755  0.5959 -0.3973
18259TIP3    H176192   6.504   1.671   4.237  1.4031  0.4698 -0.9421
18259TIP3    H276193   6.476   1.805   4.173 -0.8501  0.5014  0.0282
18260TIP3   OH276194   2.502   5.344  13.443  0.0447 -0.2192  0.1470
18260TIP3    H176195   2.558   5.386  13.510  0.1070  1.6799 -1.0180
18260TIP3    H276196   2.424   5.316  13.491  0.9957 -0.8330  1.3871
18261TIP3   OH276197   3.208   2.235  11.069 -0.5555  0.0044  0.0437
18261TIP3    H176198   3.152   2.313  11.072 -0.3366  0.2008 -0.6380
18261TIP3    H276199   3.253   2.242  10.984  0.5350 -0.1210  0.5951
18262TIP3   OH276200   4.556   1.294  12.567 -0.6056  0.4327  0.7914
18262TIP3    H176201   4.571   1.380  12.528 -2.6857 -0.1878 -1.6567
18262TIP3    H276202   4.463   1.277  12.552  0.2439 -3.3726 -1.4321
18263TIP3   OH276203   6.169   0.069   2.890 -0.0629 -0.2731  0.3498
18263TIP3    H176204   6.103   0.121   2.845 -0.4293  1.7558  2.9908
18263TIP3    H276205   6.251   0.092   2.847 -0.7839 -1.3522 -1.7059
18264TIP3   OH276206   6.049   1.057   3.039  0.4506  0.4403  0.1554
18264TIP3    H176207   6.029   1.150   3.053  1.8514  1.1660 -2.1902
18264TIP3    H276208   6.144   1.053   3.042  0.3813 -1.1046  1.0280
18265TIP3   OH276209   2.385   0.793   6.393  0.7014  0.2210  0.8888
18265TIP3    H176210   2.417   0.881   6.415  1.7554  0.5170 -1.4309
18265TIP3    H276211   2.459   0.735   6.410  0.3284 -0.0797  1.5066
18266TIP3   OH276212   0.240   5.343   4.989 -0.1133  0.3001  0.0826
18266TIP3    H176213   0.261   5.291   4.911  1.5015 -0.0831  0.7285
18266TIP3    H276214   0.178   5.408   4.958 -0.2850 -0.4776 -1.3006
18267TIP3   OH276215   4.792   1.741   0.670 -0.3904 -0.0368  0.8152
18267TIP3    H176216   4.758   1.766   0.756 -1.7101 -2.2928  1.0396
18267TIP3    H276217   4.716   1.750   0.612 -0.7714 -2.6139  0.7921
18268TIP3   OH276218   3.290   5.911   1.237 -0.1288 -0.4084  0.5919
18268TIP3    H176219   3.205   5.874   1.211 -0.6756  0.4497  1.1147
18268TIP3    H276220   3.353   5.842   1.216 -1.2366 -2.2593  2.8130
18269TIP3   OH276221   0.940   3.392  16.737  0.1058 -0.0749  0.3262
18269TIP3    H176222   1.026   3.352  16.725 -0.1257 -1.3176  2.2797
18269TIP3    H276223   0.891   3.369  16.658  1.0076 -0.9282 -0.0093
18270TIP3   OH276224   0.947   5.355  12.773 -0.1251 -0.0567 -0.0359
18270TIP3    H176225   0.895   5.275  12.760 -0.7306  0.4974 -1.2470
18270TIP3    H276226   0.958   5.391  12.685  0.4196  1.0295  0.4511
18271TIP3   OH276227   2.802   1.299  16.444  0.1462 -0.5069 -0.2470
18271TIP3    H176228   2.762   1.375  16.488 -0.7862 -0.2987 -1.4059
18271TIP3    H276229   2.870   1.269  16.505 -0.6246  0.2035  1.0115
18272TIP3   OH276230   0.984   3.471  12.377  0.8017  1.1708  0.4273
18272TIP3    H176231   1.050   3.527  12.336  1.1739 -1.4298 -2.9838
18272TIP3    H276232   1.024   3.384  12.377 -2.5770 -0.6231 -2.1895
18273TIP3   OH276233   0.328   5.120  17.204 -0.0222 -0.1884 -0.1861
18273TIP3    H176234   0.356   5.119  17.113  1.4826  0.2378  0.2498
18273TIP3    H276235   0.295   5.208  17.219 -1.3228 -0.5757 -0.5895
18274TIP3   OH276236   4.717   3.109   1.285  0.1368 -0.0456 -0.2228
18274TIP3    H176237   4.655   3.106   1.213 -2.7902  0.0799  2.1230
18274TIP3    H276238   4.694   3.034   1.340  0.7543  1.1214  1.7216
18275TIP3   OH276239   1.328   5.199  15.809  0.2529 -0.2373  0.4590
18275TIP3    H176240   1.273   5.188  15.732 -0.0177 -1.7620  0.8287
18275TIP3    H276241   1.417   5.210  15.775 -0.1069  1.0893 -0.1046
18276TIP3   OH276242   4.131   0.746   4.825 -0.4902  0.5230  0.1516
18276TIP3    H176243   4.063   0.765   4.761 -2.0160  1.9797  2.0404
18276TIP3    H276244   4.210   0.787   4.790 -1.4894  2.0521 -0.4301
18277TIP3   OH276245   3.323   2.532   0.909 -0.3295 -0.1152  0.1222
18277TIP3    H176246   3.412   2.498   0.914  0.0734  0.9695  0.6119
18277TIP3    H276247   3.271   2.459   0.876  0.7794 -0.6877 -0.4060
18278TIP3   OH276248   6.619   5.367  12.192  0.0199  0.3731 -0.1275
18278TIP3    H176249   6.619   5.402  12.103  0.9543  0.6334 -0.0338
18278TIP3    H276250   6.666   5.284  12.186 -2.1391 -0.9067 -0.3378
18279TIP3   OH276251   4.669   5.651  15.877 -0.5454 -0.1213  0.3715
18279TIP3    H176252   4.591   5.636  15.931 -1.1260 -0.3170 -0.5014
18279TIP3    H276253   4.742   5.640  15.938 -1.1882 -0.0535  1.1808
18280TIP3   OH276254   3.971   1.682  11.582  0.1817  0.7805  0.7090
18280TIP3    H176255   3.988   1.728  11.664  0.4355 -1.1627  1.8207
18280TIP3    H276256   3.881   1.649  11.592 -0.3443  1.7953 -0.4666
18281TIP3   OH276257   4.303   0.811  14.936  0.3604  0.1431 -0.3613
18281TIP3    H176258   4.394   0.841  14.936  0.2493  0.6141 -2.2649
18281TIP3    H276259   4.308   0.717  14.923  0.6049 -0.2519  2.1170
18282TIP3   OH276260   1.076   5.343   1.045  0.0409  0.1568 -0.4802
18282TIP3    H176261   1.167   5.352   1.074 -0.6075 -0.5418  2.0580
18282TIP3    H276262   1.058   5.423   0.997  1.9841  0.3049 -1.0609
18283TIP3   OH276263   2.839   4.107   3.693 -0.4237 -0.1476  0.2492
18283TIP3    H176264   2.931   4.080   3.698 -0.6728 -1.3839 -1.0861
18283TIP3    H276265   2.791   4.025   3.679 -1.4746  0.6869 -1.4653
18284TIP3   OH276266   0.063   5.982   1.683  0.1057  0.1632  0.3229
18284TIP3    H176267  -0.006   5.983   1.616 -0.9553 -1.2195  1.3429
18284TIP3    H276268   0.089   6.074   1.691  0.3298  0.3813 -2.0092
18285TIP3   OH276269   6.357   2.256   5.056 -0.0774  0.1469 -0.1116
18285TIP3    H176270   6.379   2.263   5.149 -0.2854  0.3723 -0.0779
18285TIP3    H276271   6.262   2.265   5.053 -0.1844 -0.8424 -0.2482
18286TIP3   OH276272   4.847   3.839  14.124 -0.1688 -0.5296  0.5467
18286TIP3    H176273   4.840   3.898  14.049  0.3558 -0.8975  0.2052
18286TIP3    H276274   4.916   3.777  14.100 -0.0204 -0.6741  1.3161
18287TIP3   OH276275   0.812   0.864  15.960 -0.0456  0.0875  0.4411
18287TIP3    H176276   0.763   0.862  15.878 -1.1687  0.8423  1.0715
18287TIP3    H276277   0.825   0.957  15.978 -1.8994  0.0603  2.2924
18288TIP3   OH276278   5.902   1.154  14.307  0.0409  0.0493  0.2855
18288TIP3    H176279   5.896   1.223  14.241 -0.0623  0.0546  0.3005
18288TIP3    H276280   5.826   1.169  14.364 -0.5243 -0.6633 -0.2749
18289TIP3   OH276281   5.281   4.407  14.672 -0.1212  0.5660  0.8648
18289TIP3    H176282   5.216   4.451  14.727  0.3273  0.3525  1.5838
18289TIP3    H276283   5.233   4.382  14.593 -0.9379  0.3383  1.4170
18290TIP3   OH276284   2.783   3.720  16.082  0.1685  0.4675 -0.3165
18290TIP3    H176285   2.696   3.760  16.076  0.8821  1.9359 -2.0364
18290TIP3    H276286   2.800   3.688  15.993  1.2838 -0.0150  0.0575
18291TIP3   OH276287   5.128   5.843   5.875  0.0349  0.1069 -0.2506
18291TIP3    H176288   5.205   5.835   5.818 -0.8273  1.5395 -1.7023
18291TIP3    H276289   5.163   5.874   5.958  0.9298  2.1033 -1.2987
18292TIP3   OH276290   5.549   1.051   3.497  0.6723  0.4632  0.1564
18292TIP3    H176291   5.497   1.084   3.570 -0.5536 -2.8326  0.9353
18292TIP3    H276292   5.490   1.054   3.422  1.3563  2.1664 -0.3619
18293TIP3   OH276293   2.413   0.343   5.774  0.1268 -0.0618 -0.0613
18293TIP3    H176294   2.378   0.274   5.718 -1.1635 -1.2496  2.0938
18293TIP3    H276295   2.346   0.357   5.840  1.1641  1.9872  0.6388
18294TIP3   OH276296   0.482   1.815  16.439  0.3463  0.4496  0.1026
18294TIP3    H176297   0.482   1.728  16.399 -0.3007  0.5759 -0.1780
18294TIP3    H276298   0.432   1.803  16.520 -0.2665  0.6899 -0.2344
18295TIP3   OH276299   2.528   6.183   4.748  0.1117 -0.1515  0.5995
18295TIP3    H176300   2.483   6.182   4.832 -0.0564  0.9908  0.5436
18295TIP3    H276301   2.459   6.164   4.684  0.3490 -1.6072  0.7380
18296TIP3   OH276302   3.460   6.421   1.839 -0.3056  0.3523  0.5145
18296TIP3    H176303   3.395   6.354   1.817 -0.4099  0.1756  1.3205
18296TIP3    H276304   3.425   6.502   1.802  0.2123 -0.1582 -1.1842
18297TIP3   OH276305   5.241   4.012  15.924  0.2465  0.9418  0.0443
18297TIP3    H176306   5.308   4.074  15.954  1.0140  0.6348 -1.0033
18297TIP3    H276307   5.212   4.047  15.839 -2.1015  1.9505  1.1393
18298TIP3   OH276308   4.441   5.516  13.613  0.1735  0.1678  0.3737
18298TIP3    H176309   4.425   5.423  13.598 -0.5166  0.5493 -1.4261
18298TIP3    H276310   4.360   5.560  13.589  0.8403  1.3342  0.1367
18299TIP3   OH276311   4.017   1.948  14.731  0.2838 -0.2188 -0.0132
18299TIP3    H176312   4.049   1.956  14.641  0.0640 -0.0353 -0.0770
18299TIP3    H276313   4.015   2.038  14.763  1.2514 -0.3566  0.4922
18300TIP3   OH276314   6.683   2.760   0.540 -0.9292  0.8751  0.7992
18300TIP3    H176315   6.630   2.682   0.526  0.0986  0.0667  1.2598
18300TIP3    H276316   6.705   2.758   0.633  1.7144 -0.0656  0.2479
18301TIP3   OH276317   5.031   3.289   2.337 -0.6073 -0.6326  0.5742
18301TIP3    H176318   4.973   3.279   2.261 -1.6062 -0.9478  1.3558
18301TIP3    H276319   5.099   3.223   2.324  1.3238  1.6120 -1.8336
18302TIP3   OH276320   2.976   3.692   4.798  0.1763  0.4059  0.9330
18302TIP3    H176321   2.993   3.782   4.770  1.8903 -0.0577  0.3659
18302TIP3    H276322   2.989   3.639   4.720  1.3866 -0.5423  1.7402
18303TIP3   OH276323   5.848   3.708  13.338 -0.5395  0.1190  0.5758
18303TIP3    H176324   5.755   3.720  13.321 -0.8172  0.3566  2.1684
18303TIP3    H276325   5.852   3.670  13.425  0.9090  1.2525  1.0410
18304TIP3   OH276326   0.714   1.640   6.284  0.7337  0.1715 -0.5287
18304TIP3    H176327   0.766   1.569   6.321 -0.4304 -0.2029  0.4766
18304TIP3    H276328   0.639   1.597   6.244 -0.7093  0.8374  1.2906
18305TIP3   OH276329   1.603   3.323   4.668 -0.4317  0.2247 -0.1712
18305TIP3    H176330   1.544   3.252   4.693  0.2960 -0.1758  0.4476
18305TIP3    H276331   1.655   3.287   4.596  1.2995 -0.6163  1.4146
18306TIP3   OH276332   1.138   5.166  15.992 -0.0823  0.8383 -0.4710
18306TIP3    H176333   1.071   5.234  15.996  0.6061  1.6323 -1.7674
18306TIP3    H276334   1.203   5.200  15.930  0.5365 -0.7728 -0.7570
18307TIP3   OH276335   5.339   2.205  15.895 -0.2363 -0.5556  0.7904
18307TIP3    H176336   5.381   2.284  15.929 -0.2054 -1.1462  2.1705
18307TIP3    H276337   5.405   2.136  15.903 -0.4463 -0.8520  0.1031
18308TIP3   OH276338   5.063   5.406  13.428 -0.4774  0.3028 -0.0607
18308TIP3    H176339   4.978   5.449  13.440 -0.2017  0.7319  0.3699
18308TIP3    H276340   5.040   5.317  13.400 -1.0824  0.2275  0.6284
18309TIP3   OH276341   0.573   0.088   4.880  0.1005 -0.6170  0.7401
18309TIP3    H176342   0.547   0.012   4.931  0.0464  0.8669  3.0426
18309TIP3    H276343   0.663   0.106   4.906  0.5025 -0.5198 -0.6193
18310TIP3   OH276344   0.845   2.219   1.493  0.4826 -0.2252  0.3183
18310TIP3    H176345   0.787   2.290   1.522  0.1551 -0.1237 -0.5510
18310TIP3    H276346   0.875   2.177   1.574  0.7988  0.9936  0.8437
18311TIP3   OH276347   6.048   1.671  14.120  0.3091  0.4580 -0.0972
18311TIP3    H176348   6.131   1.636  14.088 -0.1765 -0.6874 -0.1565
18311TIP3    H276349   6.027   1.616  14.196 -0.8647  0.0995 -0.6635
18312TIP3   OH276350   0.244   5.439  16.904 -0.0200 -0.5491  0.5926
18312TIP3    H176351   0.247   5.531  16.930  0.0348 -0.6270  0.8639
18312TIP3    H276352   0.330   5.405  16.927 -0.1391 -0.7397  0.7544
18313TIP3   OH276353   0.591   0.427  16.991  0.5569 -0.5293 -0.1330
18313TIP3    H176354   0.655   0.358  17.005  1.0447  0.0307  0.4893
18313TIP3    H276355   0.640   0.508  17.004 -0.3833 -0.0945  0.8402
18314TIP3   OH276356   3.858   0.546  11.984 -0.1838  0.8217 -0.5841
18314TIP3    H176357   3.935   0.501  12.020 -1.4149  1.5765  3.4291
18314TIP3    H276358   3.816   0.480  11.929  1.5497 -0.7255 -0.1806
18315TIP3   OH276359   1.694   1.081  10.331 -0.1168 -0.3597  0.4855
18315TIP3    H176360   1.605   1.048  10.335 -0.5005  0.2152 -1.8077
18315TIP3    H276361   1.693   1.161  10.384 -0.8725 -0.5296  0.7364
18316TIP3   OH276362   0.386   2.351  14.338 -0.4678  0.6006  0.1031
18316TIP3    H176363   0.479   2.343  14.355 -0.7184  0.7668  1.7186
18316TIP3    H276364   0.378   2.429  14.283  0.2920  0.9514  0.4754
18317TIP3   OH276365   5.880   1.564   1.557  0.5071 -0.0275  0.3051
18317TIP3    H176366   5.890   1.638   1.616  2.3590  0.0173 -0.0174
18317TIP3    H276367   5.915   1.594   1.474  2.8996 -1.7292  0.5965
18318TIP3   OH276368   6.231   1.532   4.365 -0.0842 -0.1522  0.2642
18318TIP3    H176369   6.142   1.535   4.332  0.3976  0.4956 -1.0499
18318TIP3    H276370   6.273   1.462   4.315  0.4633  0.3528  0.0060
18319TIP3   OH276371   2.006   1.792  13.771  0.1889  0.4270 -0.6098
18319TIP3    H176372   1.927   1.792  13.824 -0.5827 -1.3533 -1.6541
18319TIP3    H276373   2.076   1.812  13.833 -0.5207 -2.5715  1.3633
18320TIP3   OH276374   0.957   1.994  12.055  0.0922 -0.0751 -0.1263
18320TIP3    H176375   1.010   1.915  12.048 -0.9126 -0.8828  0.8516
18320TIP3    H276376   1.012   2.056  12.102  0.6764 -0.3984 -0.3751
18321TIP3   OH276377   3.575   1.560   4.194  0.4406 -0.1784  0.2950
18321TIP3    H176378   3.656   1.608   4.210  0.1827  0.0371  1.0138
18321TIP3    H276379   3.519   1.583   4.268 -0.0949 -0.7168  0.0647
18322TIP3   OH276380   4.419   2.857  12.211  0.4250  0.5092 -0.2057
18322TIP3    H176381   4.330   2.825  12.201  0.0306  1.7229 -0.7668
18322TIP3    H276382   4.474   2.786  12.178 -0.2572 -0.6067  0.9316
18323TIP3   OH276383   6.516   2.693   2.014  0.0512 -0.3601  0.0145
18323TIP3    H176384   6.447   2.747   1.975  2.0761  1.6322 -1.0290
18323TIP3    H276385   6.516   2.613   1.961 -0.1719  0.4544 -1.2524
18324TIP3   OH276386   5.758   5.412   2.652 -0.2270 -0.8374 -0.2084
18324TIP3    H176387   5.712   5.494   2.668  0.5840  0.1060 -2.3492
18324TIP3    H276388   5.691   5.353   2.616 -0.6325 -0.8699  0.5805
18325TIP3   OH276389   4.075   1.760   4.449  0.5158  0.5520  1.0297
18325TIP3    H176390   4.132   1.825   4.407 -1.5186  0.7952 -1.5971
18325TIP3    H276391   4.103   1.676   4.413  0.1999  0.4971  0.9121
18326TIP3   OH276392   4.722   2.047   0.479  0.5293  0.4564  0.3578
18326TIP3    H176393   4.686   1.960   0.461  0.0498  0.4859  1.1400
18326TIP3    H276394   4.665   2.107   0.431  1.2523  0.3066 -0.7207
18327TIP3   OH276395   1.322   5.321  13.839  0.0364  0.5333  0.0858
18327TIP3    H176396   1.412   5.297  13.817  0.4350  1.8065  0.2175
18327TIP3    H276397   1.284   5.352  13.757  0.1003  1.0682  0.2482
18328TIP3   OH276398   1.542   1.262  16.850 -0.0471  0.0354  0.2129
18328TIP3    H176399   1.608   1.330  16.858  0.5878 -0.6360  0.8654
18328TIP3    H276400   1.518   1.241  16.940 -1.1923  0.2973 -0.0172
18329TIP3   OH276401   5.581   1.994   6.157  0.1295 -0.8089  0.2238
18329TIP3    H176402   5.640   1.920   6.154  1.3682  0.0508  1.9091
18329TIP3    H276403   5.513   1.968   6.219 -0.0586 -0.9415 -0.0334
18330TIP3   OH276404   3.095   3.147  15.568 -0.2523 -0.3696 -0.6600
18330TIP3    H176405   3.066   3.086  15.636  2.7229  2.0555  3.2347
18330TIP3    H276406   3.187   3.123  15.553  0.0775  1.2395 -1.3425
18331TIP3   OH276407   3.281   5.291   4.402 -0.4181 -0.0085  0.4114
18331TIP3    H176408   3.366   5.264   4.366 -0.4250 -1.8440  1.6577
18331TIP3    H276409   3.288   5.386   4.410  1.1420 -0.0125 -0.4192
18332TIP3   OH276410   1.539   6.233   3.668 -0.3218  0.0222 -0.2109
18332TIP3    H176411   1.501   6.321   3.666 -1.0957 -0.2986  0.0299
18332TIP3    H276412   1.499   6.189   3.593  1.2236  0.3273 -1.2614
18333TIP3   OH276413   6.530   6.331  13.537 -0.5710 -0.1599  0.1673
18333TIP3    H176414   6.456   6.340  13.478 -0.0802 -0.1672 -0.4624
18333TIP3    H276415   6.603   6.372  13.490  0.1307 -1.3453  0.1931
18334TIP3   OH276416   4.627   4.152  14.414  0.8431 -0.2278 -0.4272
18334TIP3    H176417   4.637   4.222  14.478  1.1268  2.6255 -3.3378
18334TIP3    H276418   4.710   4.105  14.416  0.2077 -1.4421  2.4445
18335TIP3   OH276419   2.456   4.466   3.089 -0.2361  0.0393  0.0759
18335TIP3    H176420   2.394   4.395   3.072  0.4140 -0.3138 -0.9073
18335TIP3    H276421   2.450   4.480   3.184 -0.4871 -1.2292  0.2743
18336TIP3   OH276422   1.742   2.676  11.544 -0.3448 -0.2036  0.2999
18336TIP3    H176423   1.819   2.627  11.514  0.6325  0.3159  1.8170
18336TIP3    H276424   1.751   2.762  11.503  1.1499  0.6070  2.1469
18337TIP3   OH276425   1.409   4.646  10.991  0.1644  0.0140  0.5977
18337TIP3    H176426   1.482   4.699  10.960 -1.4417  1.8154 -0.3095
18337TIP3    H276427   1.345   4.710  11.023 -0.3346 -1.5705  3.0693
18338TIP3   OH276428   3.603   4.678  14.245  0.2341 -0.2112  0.5443
18338TIP3    H176429   3.621   4.721  14.162  0.6878  1.8296  1.6487
18338TIP3    H276430   3.522   4.629  14.229 -0.1621  0.8403 -0.8660
18339TIP3   OH276431   6.740   4.685  10.560  0.9552  0.1289 -0.3240
18339TIP3    H176432   6.661   4.730  10.588 -0.0892 -0.8758 -1.5150
18339TIP3    H276433   6.764   4.630  10.635  0.0649 -0.1399 -0.2261
18340TIP3   OH276434   0.773   2.252   5.095  0.4404  0.2651  0.0652
18340TIP3    H176435   0.679   2.243   5.077  0.3679  2.2865 -0.8256
18340TIP3    H276436   0.779   2.256   5.190 -0.4722  0.8813  0.1086
18341TIP3   OH276437   4.897   1.766   6.098  0.1574  0.1740 -0.1944
18341TIP3    H176438   4.909   1.851   6.055 -1.1959  0.3346 -0.3174
18341TIP3    H276439   4.952   1.770   6.176 -0.4976  1.4866  0.2287
18342TIP3   OH276440   1.203   0.134  12.212 -0.1511 -0.1872 -0.2664
18342TIP3    H176441   1.160   0.136  12.126 -0.2570  0.4901 -0.2016
18342TIP3    H276442   1.132   0.115  12.273 -0.3325  0.7287 -0.1816
18343TIP3   OH276443   6.601   5.189   4.282  0.0570  0.0614 -0.0947
18343TIP3    H176444   6.684   5.170   4.239 -1.0407 -0.5003 -2.1016
18343TIP3    H276445   6.542   5.120   4.253 -1.0686  0.2685  1.5183
18344TIP3   OH276446   6.440   3.699  13.682  0.0803  0.1740 -0.4394
18344TIP3    H176447   6.463   3.742  13.764  0.3985 -0.1376 -0.3657
18344TIP3    H276448   6.344   3.707  13.677 -0.0620 -0.6963  0.4718
18345TIP3   OH276449   3.518   0.360   5.665 -0.8515 -0.2569 -0.1883
18345TIP3    H176450   3.601   0.332   5.705  0.3667  1.0092 -1.6783
18345TIP3    H276451   3.518   0.455   5.674 -0.9326 -0.0013 -2.3519
18346TIP3   OH276452   0.082   4.161  14.009 -0.3839 -0.5263  0.2015
18346TIP3    H176453   0.124   4.105  13.944  1.3304 -0.5492  1.2650
18346TIP3    H276454   0.092   4.250  13.974  1.1926 -0.4664  0.7273
18347TIP3   OH276455   1.889   5.395   4.770 -0.4824 -0.5071 -0.7832
18347TIP3    H176456   1.969   5.447   4.776 -0.8411 -0.0354  0.1764
18347TIP3    H276457   1.819   5.459   4.762 -0.7814 -0.9149 -1.5215
18348TIP3   OH276458   5.788   6.123   3.259 -0.2099 -0.1495 -0.4762
18348TIP3    H176459   5.878   6.098   3.239 -0.0423 -1.3681  1.5852
18348TIP3    H276460   5.784   6.128   3.354 -2.3770 -0.2842 -0.5066
18349TIP3   OH276461   0.419   0.959  14.828 -0.2406  0.0495  0.0037
18349TIP3    H176462   0.475   0.960  14.906 -0.1926  1.2337 -0.0353
18349TIP3    H276463   0.481   0.946  14.756 -0.1597  0.0542  0.0711
18350TIP3   OH276464   1.566   3.717  15.768 -1.5793  0.3989 -0.3463
18350TIP3    H176465   1.496   3.783  15.767 -2.0699 -0.1110 -0.2457
18350TIP3    H276466   1.634   3.753  15.712 -1.7057  1.1382 -0.0390
18351TIP3   OH276467   6.409   3.937   4.151 -0.6211 -0.0063  0.5509
18351TIP3    H176468   6.454   4.022   4.152 -0.8688  0.1317  1.3649
18351TIP3    H276469   6.334   3.949   4.210  0.1046 -1.1737  1.7915
18352TIP3   OH276470   1.467   0.274  13.794 -0.4177 -0.1254 -0.0591
18352TIP3    H176471   1.425   0.233  13.719  0.3516  0.7623 -1.0092
18352TIP3    H276472   1.549   0.226  13.805  0.1203  0.6126 -0.6873
18353TIP3   OH276473   2.647   3.169   0.039 -0.2509  0.0330 -0.2111
18353TIP3    H176474   2.639   3.202   0.128 -0.8379 -3.6603  1.3091
18353TIP3    H276475   2.567   3.198  -0.005 -1.0197  0.0817  1.1723
18354TIP3   OH276476   5.306   6.519  15.970 -0.2206  0.4416  0.1583
18354TIP3    H176477   5.279   6.489  15.883 -2.8136  0.4629  0.8763
18354TIP3    H276478   5.363   6.594  15.952  0.2752 -0.2787 -1.5245
18355TIP3   OH276479   5.488   3.588   6.473 -0.0240 -0.2991  0.1294
18355TIP3    H176480   5.433   3.534   6.416 -0.4992  0.4091 -0.0983
18355TIP3    H276481   5.443   3.673   6.476  1.2859  0.4477 -0.4255
18356TIP3   OH276482   3.343   5.272   3.188  0.3122 -0.2536 -0.5128
18356TIP3    H176483   3.295   5.197   3.152  0.6964 -0.4976 -0.5321
18356TIP3    H276484   3.297   5.349   3.156 -1.1075 -0.4801  0.8781
18357TIP3   OH276485   0.946   6.770  12.592  0.2961 -0.1403 -0.0677
18357TIP3    H176486   0.863   6.817  12.584  0.9052  1.1777  1.0216
18357TIP3    H276487   0.963   6.766  12.686  1.1824 -0.9153 -0.2422
18358TIP3   OH276488   5.971   5.609   2.720  0.2686 -0.1556 -0.6107
18358TIP3    H176489   5.919   5.689   2.718 -0.0224 -0.3388 -0.3815
18358TIP3    H276490   5.969   5.576   2.630  0.5518  0.1957 -0.7486
18359TIP3   OH276491   2.066   2.195  17.043  0.3489 -0.6819 -0.7568
18359TIP3    H176492   2.068   2.100  17.055 -1.1121 -0.6579 -0.2001
18359TIP3    H276493   2.119   2.229  17.114 -1.5687 -0.9624  0.8921
18360TIP3   OH276494   4.856   0.910   2.550  0.4337  0.3666  0.1171
18360TIP3    H176495   4.788   0.847   2.526  0.8837  0.0834 -0.4633
18360TIP3    H276496   4.814   0.969   2.612 -0.0510 -0.3915  0.5194
18361TIP3   OH276497   2.142   5.252  16.050 -0.1265  0.0469  0.1973
18361TIP3    H176498   2.169   5.309  16.122  1.3968  0.6312 -0.7626
18361TIP3    H276499   2.136   5.311  15.975 -0.2846 -0.7792 -0.4486
18362TIP3   OH276500   6.163   6.390   1.800 -0.1052 -0.1448  0.3951
18362TIP3    H176501   6.214   6.471   1.792 -1.0362  0.6601  2.0497
18362TIP3    H276502   6.228   6.321   1.812  0.6287  0.7277  1.5822
18363TIP3   OH276503   1.304   2.874  12.941  0.2558 -0.0341  0.3367
18363TIP3    H176504   1.356   2.921  12.876 -0.2268 -0.7762 -0.5985
18363TIP3    H276505   1.310   2.928  13.020  1.4006  0.5353 -0.1164
18364TIP3   OH276506   4.646   4.988  11.477  0.1006 -0.7632  0.2997
18364TIP3    H176507   4.603   4.919  11.528  2.0318 -1.4219  1.1036
18364TIP3    H276508   4.701   5.034  11.540  1.0733 -0.3407 -0.8184
18365TIP3   OH276509   3.555   3.972  15.293 -0.5496  0.2738 -0.2910
18365TIP3    H176510   3.578   3.882  15.270  0.6119  0.5722 -0.3622
18365TIP3    H276511   3.599   3.987  15.377  0.5617  1.2616 -1.0200
18366TIP3   OH276512   6.496   6.579  15.625 -0.9122  0.2356  0.2094
18366TIP3    H176513   6.550   6.510  15.587 -1.2051 -0.3987  0.9386
18366TIP3    H276514   6.406   6.551  15.609 -1.0416 -0.0356  1.3386
18367TIP3   OH276515   0.042   1.045  16.300  0.0753  0.2205 -0.0260
18367TIP3    H176516   0.137   1.040  16.290  0.2218  0.2908  1.1810
18367TIP3    H276517   0.015   1.118  16.244  0.3244 -1.5495 -2.6839
18368TIP3   OH276518   3.899   6.388  13.189 -0.2426  0.4095  0.0057
18368TIP3    H176519   3.807   6.406  13.204 -0.6197 -1.4936  0.2930
18368TIP3    H276520   3.900   6.334  13.110  0.5156 -0.3844  0.5342
18369TIP3   OH276521   6.623   6.081   0.650  0.2214 -0.6052  0.0103
18369TIP3    H176522   6.692   6.036   0.698 -0.3240 -0.0387  1.3640
18369TIP3    H276523   6.655   6.086   0.560  2.0403 -0.1645  0.6507
18370TIP3   OH276524   3.823   2.291  16.612 -0.0496 -0.0077  0.2347
18370TIP3    H176525   3.728   2.289  16.625  0.0077 -1.1539  0.5887
18370TIP3    H276526   3.841   2.380  16.584 -1.3454 -0.0029 -0.6896
18371TIP3   OH276527   0.645   3.620  13.864  0.4094 -0.1682 -0.8176
18371TIP3    H176528   0.627   3.575  13.781 -0.3198 -0.7827 -0.3404
18371TIP3    H276529   0.664   3.550  13.926 -3.1370 -0.1002  0.5531
18372TIP3   OH276530   1.993   4.892  10.961  0.0446 -0.3356  0.0457
18372TIP3    H176531   1.923   4.934  11.010  0.6375  0.3160  0.3551
18372TIP3    H276532   1.965   4.801  10.952 -0.4726 -0.2666  0.8524
18373TIP3   OH276533   0.644   2.994  11.199  0.0271  0.6141 -0.3635
18373TIP3    H176534   0.587   2.917  11.194 -0.2556  0.8777 -1.5255
18373TIP3    H276535   0.675   3.006  11.109 -1.2905  2.8700 -0.5833
18374TIP3   OH276536   3.631   2.767  14.731  0.1153 -0.1675  0.2633
18374TIP3    H176537   3.607   2.744  14.641 -1.1007 -0.6174  0.6862
18374TIP3    H276538   3.676   2.690  14.765 -0.8432 -0.6141  0.5457
18375TIP3   OH276539   3.829   4.844  15.649  1.0044 -0.2168 -0.1458
18375TIP3    H176540   3.735   4.856  15.657  0.8408 -2.1679  1.4370
18375TIP3    H276541   3.846   4.851  15.555 -0.8110 -0.5527 -0.5345
18376TIP3   OH276542   2.689   6.093  15.275 -0.5317  0.6574  0.9100
18376TIP3    H176543   2.610   6.146  15.264 -0.3129  0.6028 -1.2782
18376TIP3    H276544   2.657   6.010  15.309 -2.0821 -0.8027 -3.4767
18377TIP3   OH276545   4.433   6.789   2.530  0.5388  0.3594 -0.1666
18377TIP3    H176546   4.521   6.801   2.566  1.1816 -0.2075 -1.4975
18377TIP3    H276547   4.419   6.865   2.474 -0.0365  0.6942  0.4092
18378TIP3   OH276548   0.034   4.329   0.763  0.1162 -0.4987  0.1572
18378TIP3    H176549  -0.018   4.359   0.837 -0.3348 -0.5157 -0.1510
18378TIP3    H276550   0.121   4.312   0.800 -0.0192 -0.2044  0.6171
18379TIP3   OH276551   1.582   4.670   6.558 -0.2918 -0.2948 -0.1489
18379TIP3    H176552   1.666   4.661   6.515 -0.3399  0.7565 -0.5146
18379TIP3    H276553   1.526   4.604   6.517  0.0597 -0.2701 -0.6721
18380TIP3   OH276554   4.544   2.390   4.020  0.6335  0.5899 -0.0342
18380TIP3    H176555   4.580   2.385   4.109  0.0952  0.0958  0.1628
18380TIP3    H276556   4.505   2.477   4.015  2.1924  1.3050 -0.3941
18381TIP3   OH276557   0.923   4.417  15.089 -0.0122 -0.1271 -0.0324
18381TIP3    H176558   0.921   4.492  15.148  0.9829  1.1119 -1.4950
18381TIP3    H276559   0.834   4.411  15.055  0.3296  1.7569 -1.4543
18382TIP3   OH276560   1.593   3.829  13.501 -0.2394  0.2792 -0.3587
18382TIP3    H176561   1.559   3.753  13.454 -0.1902  0.0304  0.0105
18382TIP3    H276562   1.545   3.903  13.464 -1.2884 -0.0848  0.2560
18383TIP3   OH276563   5.076   3.353  15.428  0.0819 -0.0955 -0.1054
18383TIP3    H176564   5.021   3.318  15.498 -1.0819  0.6747 -0.6132
18383TIP3    H276565   5.111   3.276  15.383  1.2692 -0.6235  1.6099
18384TIP3   OH276566   2.061   2.276  15.566  0.0879  0.1685 -0.1110
18384TIP3    H176567   2.108   2.358  15.550 -0.7811  0.2328 -2.7712
18384TIP3    H276568   2.008   2.294  15.644  1.1781  1.5386  0.3556
18385TIP3   OH276569   5.345   4.296   4.606  0.8165  0.0207 -0.3919
18385TIP3    H176570   5.392   4.324   4.528  1.1061 -0.9016 -0.5682
18385TIP3    H276571   5.408   4.243   4.655  0.0950 -0.9335 -0.4496
18386TIP3   OH276572   6.697   2.567  12.512 -0.3104  0.2961  0.4568
18386TIP3    H176573   6.744   2.635  12.465  0.4816 -0.6883 -0.2250
18386TIP3    H276574   6.763   2.526  12.568 -0.4423 -0.7774 -0.1431
18387TIP3   OH276575   3.962   5.783   3.377 -0.3124  0.2056 -0.2054
18387TIP3    H176576   3.979   5.698   3.337  2.9316  1.4177 -1.7309
18387TIP3    H276577   3.926   5.836   3.306  0.5233  0.9081 -0.1164
18388TIP3   OH276578   2.355   4.835   4.780 -0.0297  0.3134 -0.2868
18388TIP3    H176579   2.289   4.880   4.833  0.1746  1.2102 -0.7704
18388TIP3    H276580   2.431   4.825   4.838 -0.9510 -1.8151  0.6723
18389TIP3   OH276581   0.091   4.705   3.470  0.1013  0.1712 -0.3096
18389TIP3    H176582   0.161   4.663   3.521 -0.1783  0.0312 -0.0354
18389TIP3    H276583   0.135   4.741   3.393  0.5411  0.4338  0.0606
18390TIP3   OH276584   1.726   5.881  15.968 -0.6071 -0.0975  0.1412
18390TIP3    H176585   1.697   5.956  15.916 -1.7791 -1.1879 -0.8592
18390TIP3    H276586   1.751   5.815  15.903  1.2427 -0.2923  1.0034
18391TIP3   OH276587   6.198   4.607  13.906 -0.0057 -0.0153  0.4380
18391TIP3    H176588   6.225   4.664  13.834 -0.4535  0.0478  0.3166
18391TIP3    H276589   6.157   4.665  13.970 -2.1907 -0.4028 -0.5307
18392TIP3   OH276590   6.782   5.069   2.241  0.1338 -0.6141  0.1232
18392TIP3    H176591   6.735   4.994   2.205  1.4178 -1.4770  0.1715
18392TIP3    H276592   6.813   5.116   2.164 -0.8260 -0.0079  0.0903
18393TIP3   OH276593   1.974   2.834  16.357  0.3927 -0.4162 -0.1727
18393TIP3    H176594   2.011   2.907  16.307 -0.7490  1.4721  1.5890
18393TIP3    H276595   2.043   2.806  16.416  0.1028  0.9672  0.8778
18394TIP3   OH276596   5.755   3.037  14.239 -0.6025  0.0549 -0.4948
18394TIP3    H176597   5.765   3.016  14.332  1.3171  0.5641 -0.5498
18394TIP3    H276598   5.750   2.952  14.196  1.3174 -0.2932 -0.1484
18395TIP3   OH276599   5.106   5.722   2.766 -0.2525 -0.1879 -0.4857
18395TIP3    H176600   5.132   5.812   2.785 -0.8196 -0.3289  1.1185
18395TIP3    H276601   5.016   5.716   2.798  0.4046 -1.8132  1.2683
18396TIP3   OH276602   2.337   2.474   0.843  0.6107 -0.8588 -0.3228
18396TIP3    H176603   2.299   2.390   0.818  0.5575  0.1482 -4.1333
18396TIP3    H276604   2.421   2.478   0.797  0.5880  1.1905 -0.2915
18397TIP3   OH276605   0.947   1.579   2.519 -0.0471  0.0686  0.1686
18397TIP3    H176606   0.928   1.525   2.442  0.5779  0.2016 -0.0913
18397TIP3    H276607   0.903   1.662   2.501 -0.0225  0.0500  0.0142
18398TIP3   OH276608   6.535   0.703   5.055 -0.4431 -0.5060  0.1108
18398TIP3    H176609   6.561   0.611   5.052 -0.7742 -0.8318  3.5597
18398TIP3    H276610   6.604   0.746   5.105 -1.0778  0.8176 -0.1042
18399TIP3   OH276611   2.233   2.787  10.542 -0.1557 -0.2495  0.5607
18399TIP3    H176612   2.190   2.784  10.457  1.2121 -0.6193 -0.1601
18399TIP3    H276613   2.208   2.872  10.579  0.4786  0.6228 -0.9196
18400TIP3   OH276614   5.276   1.781   2.614  0.3834 -0.5704  0.0012
18400TIP3    H176615   5.191   1.826   2.613 -0.5314 -2.1946  0.9489
18400TIP3    H276616   5.255   1.688   2.609  2.1455 -0.9949 -0.2837
18401TIP3   OH276617   2.906   1.831  11.714  0.5990  0.3779 -0.7421
18401TIP3    H176618   2.970   1.770  11.751  1.3357  1.9633  0.7453
18401TIP3    H276619   2.835   1.776  11.683  1.2170 -1.2344  0.5780
18402TIP3   OH276620   3.390   5.967  10.431 -0.0225 -0.0421  0.8247
18402TIP3    H176621   3.340   6.037  10.390  0.0918 -0.2272  0.3573
18402TIP3    H276622   3.482   5.993  10.422  0.0090 -0.1417  0.8480
18403TIP3   OH276623   6.287   0.086   0.744  0.4214  0.0502 -0.2089
18403TIP3    H176624   6.327   0.125   0.667 -0.0809  0.3380 -0.3284
18403TIP3    H276625   6.294  -0.009   0.730 -1.4384  0.0611 -1.5812
18404TIP3   OH276626   3.987   5.311   3.414 -0.6791 -0.1847 -0.1425
18404TIP3    H176627   4.036   5.390   3.391  0.3047 -0.4362  1.0170
18404TIP3    H276628   3.924   5.341   3.480 -1.0890 -0.1491 -0.5474
18405TIP3   OH276629   3.162   5.443  11.062  0.7257  0.3930 -0.5371
18405TIP3    H176630   3.217   5.442  10.983  1.3053 -1.6960 -0.1713
18405TIP3    H276631   3.171   5.354  11.098 -1.3253  0.6065  0.6353
18406TIP3   OH276632   4.112   0.347  14.957  0.5482 -0.6951  0.0464
18406TIP3    H176633   4.155   0.432  14.944 -0.2470 -0.2497  0.3043
18406TIP3    H276634   4.177   0.283  14.926 -0.0589  0.1373 -3.3452
18407TIP3   OH276635   5.256   4.298  13.659  0.2346  0.0347  0.3483
18407TIP3    H176636   5.224   4.342  13.581  1.2717  2.1038  1.0226
18407TIP3    H276637   5.351   4.300  13.650  0.3372 -0.7827  1.1200
18408TIP3   OH276638   3.761   5.492  16.971 -0.0015  0.1756  0.2014
18408TIP3    H176639   3.775   5.406  16.932 -0.4910  0.4821 -0.6809
18408TIP3    H276640   3.753   5.552  16.897 -0.8960  0.7857  0.7593
18409TIP3   OH276641   2.182   1.168   3.440 -0.4659  0.4917  0.0536
18409TIP3    H176642   2.169   1.074   3.424 -0.3250  0.2893  1.0374
18409TIP3    H276643   2.248   1.195   3.376  0.0562 -0.2611  0.2559
18410TIP3   OH276644   4.504   6.505  12.082 -0.4076  0.0476 -0.1506
18410TIP3    H176645   4.425   6.538  12.126 -1.0352  0.5116 -1.5712
18410TIP3    H276646   4.536   6.581  12.033  1.6180  0.2090  1.3022
18411TIP3   OH276647   4.315   0.252  13.341 -0.0958  0.2860  0.0996
18411TIP3    H176648   4.340   0.210  13.423 -0.4068  1.6865  0.9454
18411TIP3    H276649   4.255   0.322  13.367 -0.0764  0.8648 -1.3101
18412TIP3   OH276650   4.149   5.110   1.009  0.4609  0.2616 -0.3129
18412TIP3    H176651   4.063   5.081   1.038  0.2995  0.1572 -0.8761
18412TIP3    H276652   4.165   5.192   1.057  0.2859  0.0058  0.1899
18413TIP3   OH276653   5.103   0.144   3.275 -0.0448  0.1038 -0.3709
18413TIP3    H176654   5.178   0.110   3.324  0.0373 -0.4808 -0.8788
18413TIP3    H276655   5.027   0.100   3.314 -0.0722  0.3378 -0.1632
18414TIP3   OH276656   6.088   4.493   3.559  0.3022  0.0116  0.2500
18414TIP3    H176657   6.034   4.414   3.553 -0.4093  0.4561  0.5231
18414TIP3    H276658   6.156   4.472   3.623  2.3514 -1.6022 -2.2985
18415TIP3   OH276659   6.656   0.696  16.719  0.6099 -0.1044  0.1043
18415TIP3    H176660   6.587   0.759  16.743  1.9310  1.5730 -0.2824
18415TIP3    H276661   6.611   0.628  16.670 -0.6340  1.5089 -1.0718
18416TIP3   OH276662   2.353   4.494   6.485 -0.4435  0.0656 -0.4603
18416TIP3    H176663   2.318   4.554   6.551 -3.1967 -0.8702 -0.9679
18416TIP3    H276664   2.324   4.530   6.401  0.4767 -0.3565 -0.9751
18417TIP3   OH276665   3.195   3.440  14.802 -0.2315  0.4152 -0.3346
18417TIP3    H176666   3.248   3.433  14.881  2.0677  0.0259 -1.8161
18417TIP3    H276667   3.222   3.522  14.762 -2.4526  1.3451 -0.0306
18418TIP3   OH276668   3.665   0.867   3.046 -0.0546  0.3169 -0.2885
18418TIP3    H176669   3.751   0.884   3.084 -0.3087 -1.3468  1.1778
18418TIP3    H276670   3.605   0.869   3.121 -1.3060  1.3770 -1.2708
18419TIP3   OH276671   3.376   6.655  12.707 -0.2069  0.0275 -0.4502
18419TIP3    H176672   3.359   6.717  12.637  0.3397 -0.1142 -0.7115
18419TIP3    H276673   3.470   6.660  12.722 -0.0947 -1.0024 -0.7298
18420TIP3   OH276674   0.268   6.298  15.267  0.5432  0.0031 -0.6914
18420TIP3    H176675   0.305   6.317  15.353  2.6252 -0.2369 -1.4737
18420TIP3    H276676   0.343   6.272  15.213 -0.9319 -1.6036 -2.1179
18421TIP3   OH276677   2.101   3.559  13.220 -0.0974 -0.2030 -0.4372
18421TIP3    H176678   2.149   3.510  13.153  3.2137  2.7955 -0.5077
18421TIP3    H276679   2.037   3.610  13.171 -0.1368 -0.7007 -0.9137
18422TIP3   OH276680   2.092   2.943   4.609  0.6459 -0.2746 -0.0713
18422TIP3    H176681   2.081   3.035   4.633 -1.9555 -0.0340 -1.8165
18422TIP3    H276682   2.015   2.922   4.557  1.3478 -3.3676 -0.0671
18423TIP3   OH276683   5.321   0.087  15.608 -0.8423  0.8271 -0.0783
18423TIP3    H176684   5.351   0.174  15.582 -1.8001  0.4313 -2.7746
18423TIP3    H276685   5.230   0.083  15.579 -1.5429 -0.3427  2.0052
18424TIP3   OH276686   5.981   5.286  17.081 -0.5844 -0.3764  0.2551
18424TIP3    H176687   5.925   5.354  17.117 -1.5404 -0.3202 -1.2477
18424TIP3    H276688   6.063   5.331  17.059 -1.1087  0.2424 -0.4586
18425TIP3   OH276689   2.303   0.158  14.656  0.1923 -0.0890  0.6920
18425TIP3    H176690   2.309   0.113  14.572  0.0140 -0.5874  0.9431
18425TIP3    H276691   2.353   0.239  14.643 -1.8183  1.0238 -0.6328
18426TIP3   OH276692   5.396   1.622  11.130 -0.1825  0.3879 -0.5841
18426TIP3    H176693   5.310   1.648  11.163  0.1923  0.4071  0.4220
18426TIP3    H276694   5.408   1.533  11.164  0.7673  0.8971  0.4836
18427TIP3   OH276695   4.892   6.270  11.129  0.0482 -0.0259 -0.1647
18427TIP3    H176696   4.904   6.211  11.203 -1.2879  0.0302  0.1263
18427TIP3    H276697   4.928   6.223  11.054  0.3133 -0.6002  0.3174
18428TIP3   OH276698   4.243   2.534  15.516  0.2717 -0.2572  0.4426
18428TIP3    H176699   4.232   2.522  15.610  0.7598 -0.0428  0.5300
18428TIP3    H276700   4.327   2.579  15.507 -0.4452  1.0623  0.0085
18429TIP3   OH276701   4.555   0.360   3.570 -0.0285  0.8181 -0.0095
18429TIP3    H176702   4.538   0.414   3.648  1.8815  2.4829 -0.6472
18429TIP3    H276703   4.551   0.422   3.497 -1.2354 -0.6051 -1.2153
18430TIP3   OH276704   3.204   2.228   2.797 -0.0650  0.6608  0.0198
18430TIP3    H176705   3.154   2.245   2.877 -0.5465 -2.2285  0.4411
18430TIP3    H276706   3.258   2.153   2.819  2.1544  1.7352 -1.4566
18431TIP3   OH276707   0.252   3.918   3.080  0.2571 -0.0980 -0.0574
18431TIP3    H176708   0.159   3.933   3.066  0.3913  0.0185 -0.8917
18431TIP3    H276709   0.281   3.872   3.001  0.8719 -0.2930  0.2744
18432TIP3   OH276710   6.562   0.203  12.028 -0.2651 -0.0481 -0.4347
18432TIP3    H176711   6.585   0.213  11.935  2.1401  0.7238  0.1985
18432TIP3    H276712   6.526   0.288  12.053 -0.4149 -0.0912 -0.4962
18433TIP3   OH276713   2.706   6.396  13.369 -0.3924 -0.3664 -0.2700
18433TIP3    H176714   2.791   6.441  13.363 -0.2099 -0.7263 -0.4337
18433TIP3    H276715   2.654   6.452  13.426  0.2027 -0.5148  0.4381
18434TIP3   OH276716   0.565   2.610   4.571 -0.1766 -0.1056  0.2931
18434TIP3    H176717   0.476   2.622   4.537  0.0580 -1.2809 -0.8068
18434TIP3    H276718   0.556   2.540   4.635  0.0052 -0.4964 -0.1019
18435TIP3   OH276719   6.025   4.201  15.442  0.3786  0.1682 -0.2135
18435TIP3    H176720   6.022   4.275  15.503 -0.2261  0.1407 -0.2060
18435TIP3    H276721   5.951   4.146  15.467  1.0577 -0.6560  0.0369
18436TIP3   OH276722   3.038   5.967   2.945 -0.3173  0.2293  1.0475
18436TIP3    H176723   3.049   6.011   2.860  0.1146  1.2579  1.6111
18436TIP3    H276724   2.947   5.938   2.946 -0.1290 -0.4796 -0.0736
18437TIP3   OH276725   3.454   2.869   5.594 -0.6296 -0.0257  0.0392
18437TIP3    H176726   3.383   2.873   5.658  0.6930 -1.1069  1.6478
18437TIP3    H276727   3.412   2.888   5.510 -2.5122  0.9448  1.1459
18438TIP3   OH276728   6.607   1.918  13.026 -0.3446  0.1126  0.5716
18438TIP3    H176729   6.594   1.942  12.934  0.5092 -1.5093 -0.0123
18438TIP3    H276730   6.617   2.001  13.072 -1.0161  0.9612 -0.7539
18439TIP3   OH276731   5.160   3.610  16.859 -0.4364 -0.4320 -0.0381
18439TIP3    H176732   5.239   3.575  16.818 -0.7115  0.1489 -1.1239
18439TIP3    H276733   5.188   3.691  16.902 -0.6149  0.3801 -1.3856
18440TIP3   OH276734   6.623   5.141  15.895  0.6764 -0.1765  0.6597
18440TIP3    H176735   6.714   5.172  15.903  0.0849  1.4411  1.4556
18440TIP3    H276736   6.620   5.061  15.947  1.4211  0.2643  1.4005
18441TIP3   OH276737   5.381   3.961  13.546  0.0543  0.6698 -0.0480
18441TIP3    H176738   5.356   3.961  13.454  3.3591  2.6723 -1.1015
18441TIP3    H276739   5.343   4.041  13.582  1.6982  1.8005 -0.7037
18442TIP3   OH276740   5.815   6.152  12.421  0.4632 -0.7070  0.0694
18442TIP3    H176741   5.898   6.136  12.377  1.7829  1.3824  1.6045
18442TIP3    H276742   5.751   6.155  12.351  2.1505  0.4972 -1.5224
18443TIP3   OH276743   5.333   5.514   3.003 -0.0889 -0.0259  0.1390
18443TIP3    H176744   5.404   5.454   2.984 -1.3881 -2.1876  1.6293
18443TIP3    H276745   5.305   5.547   2.918  0.0821 -2.2562 -0.8315
18444TIP3   OH276746   0.677   2.751   5.873 -0.2180  0.3641  0.5136
18444TIP3    H176747   0.737   2.724   5.803 -1.1892 -0.2795 -0.0944
18444TIP3    H276748   0.714   2.714   5.953 -0.4743 -1.1489 -0.0311
18445TIP3   OH276749   0.038   0.225  12.403 -0.1728  0.5802 -0.1103
18445TIP3    H176750   0.123   0.250  12.365 -0.4190  0.9178 -0.4406
18445TIP3    H276751   0.052   0.136  12.435  0.1083  0.3694 -0.7882
18446TIP3   OH276752   2.110   5.003  12.083 -0.0188  0.0348  0.4602
18446TIP3    H176753   2.090   5.080  12.137 -1.5660  0.2911 -0.4321
18446TIP3    H276754   2.033   4.991  12.029  1.1364 -0.7423 -1.0964
18447TIP3   OH276755   2.146   3.581  15.419 -0.0568  0.1846  0.6233
18447TIP3    H176756   2.157   3.586  15.514 -0.8485 -1.4104  0.8229
18447TIP3    H276757   2.121   3.670  15.394  1.0281  0.8534  1.7730
18448TIP3   OH276758   3.437   0.970   1.796 -0.3365  0.1679 -0.1928
18448TIP3    H176759   3.506   1.028   1.764  0.7719 -0.2975  1.2190
18448TIP3    H276760   3.356   1.015   1.774  0.3640  0.4644 -2.3953
18449TIP3   OH276761   3.337   4.277  14.936  0.6820 -0.5100 -0.2306
18449TIP3    H176762   3.334   4.366  14.973  0.5428 -1.1530  1.3912
18449TIP3    H276763   3.427   4.248  14.952  0.2484 -1.3020  0.9119
18450TIP3   OH276764   1.502   3.748  15.087  0.1395  0.0319  0.1197
18450TIP3    H176765   1.573   3.786  15.035  2.5006 -2.6903  1.0750
18450TIP3    H276766   1.440   3.714  15.022  0.7856  0.5562 -0.7930
18451TIP3   OH276767   0.338   0.868   1.870 -0.0289  0.3400  0.2948
18451TIP3    H176768   0.421   0.908   1.842  0.2328  0.0191  0.6090
18451TIP3    H276769   0.275   0.940   1.866  0.1835  0.4960 -0.3101
18452TIP3   OH276770   0.555   4.182  12.963  0.4694  0.3446  0.0238
18452TIP3    H176771   0.500   4.122  13.015 -0.2295  1.7485  0.9724
18452TIP3    H276772   0.625   4.126  12.929  0.7531 -0.7289  2.1868
18453TIP3   OH276773   4.898   4.549  12.553 -0.0623 -0.1222 -0.9118
18453TIP3    H176774   4.939   4.518  12.473  0.0091  1.0402 -1.3481
18453TIP3    H276775   4.811   4.508  12.553  0.5122 -1.3911 -0.7508
18454TIP3   OH276776   3.986   1.495  11.372 -0.1171  0.3053  0.5247
18454TIP3    H176777   4.000   1.557  11.443 -1.1204  0.0071  1.0013
18454TIP3    H276778   3.980   1.410  11.415 -0.0365  0.0356  0.0126
18455TIP3   OH276779   1.692   5.567   0.153  0.5173  0.3038 -0.3907
18455TIP3    H176780   1.778   5.527   0.143  0.6276  0.2415  0.6550
18455TIP3    H276781   1.647   5.549   0.070  1.0095 -0.9104 -0.4139
18456TIP3   OH276782   0.773   1.449  15.759 -0.7889  0.5880 -0.7081
18456TIP3    H176783   0.758   1.354  15.754 -3.0548  0.8139  0.5686
18456TIP3    H276784   0.689   1.485  15.784  0.2851  2.8816 -0.1582
18457TIP3   OH276785   0.285   0.511  12.060  0.6143  0.7710  0.0278
18457TIP3    H176786   0.197   0.490  12.029  1.4569 -2.0485 -0.7517
18457TIP3    H276787   0.325   0.557  11.986  0.7898 -0.8671 -0.9465
18458TIP3   OH276788   5.027   5.554   5.073 -0.5532 -0.1758  0.0903
18458TIP3    H176789   4.945   5.517   5.105 -1.6419  2.0056  0.0156
18458TIP3    H276790   5.057   5.611   5.144 -0.4732  0.9967 -0.8525
18459TIP3   OH276791   1.006   5.560  14.919 -0.4441  0.0716  0.0379
18459TIP3    H176792   0.931   5.617  14.935 -0.4480  0.6567 -1.9009
18459TIP3    H276793   1.003   5.541  14.825  1.3823 -0.5486  0.0641
18460TIP3   OH276794   1.068   6.159   4.506 -0.0464 -0.0888 -0.1971
18460TIP3    H176795   0.991   6.210   4.479  0.3315 -0.7326 -2.8392
18460TIP3    H276796   1.138   6.223   4.514 -0.7624  0.4821  2.0595
18461TIP3   OH276797   5.504   1.671   4.682  0.6235 -0.4912  0.5816
18461TIP3    H176798   5.551   1.609   4.738 -0.2301 -0.1657  1.6881
18461TIP3    H276799   5.412   1.660   4.706  0.4660  1.3378  0.9430
18462TIP3   OH276800   1.021   5.864  10.668  0.0757  0.0973 -0.5773
18462TIP3    H176801   1.110   5.878  10.635  0.2127 -0.3842 -0.4235
18462TIP3    H276802   1.019   5.906  10.753 -0.4189  1.7596 -1.3666
18463TIP3   OH276803   6.499   2.847   2.475 -0.1902  0.1062 -0.6175
18463TIP3    H176804   6.535   2.881   2.557 -0.2675 -0.2170 -0.4502
18463TIP3    H276805   6.415   2.892   2.466 -0.3494 -0.1284 -0.3322
18464TIP3   OH276806   4.028   4.652   0.227 -0.3403 -0.7393 -0.0027
18464TIP3    H176807   3.967   4.718   0.194  0.3952 -0.0122  0.0546
18464TIP3    H276808   4.098   4.649   0.162 -0.0954 -1.0723  0.2731
18465TIP3   OH276809   0.919   3.257  11.834 -0.1806 -0.5548 -0.5577
18465TIP3    H176810   0.920   3.216  11.920  1.6637 -1.0291 -0.7499
18465TIP3    H276811   1.007   3.241  11.799  1.2107  4.4806 -0.2015
18466TIP3   OH276812   5.105   6.625  14.378  0.6247  0.2950 -0.1383
18466TIP3    H176813   5.116   6.688  14.307  0.9301 -1.1171 -1.3637
18466TIP3    H276814   5.011   6.611  14.383  0.7427 -1.5349 -2.0334
18467TIP3   OH276815   4.898   2.208   2.135 -0.5493  0.1729  0.0742
18467TIP3    H176816   4.882   2.252   2.219  1.0253 -1.4601  1.3262
18467TIP3    H276817   4.993   2.193   2.134 -0.7311 -1.0830 -1.3514
18468TIP3   OH276818   1.548   4.324  15.546 -0.1895 -0.2385 -0.2001
18468TIP3    H176819   1.600   4.351  15.623 -2.3751 -0.1818  1.3451
18468TIP3    H276820   1.466   4.292  15.583 -0.2153 -3.0657 -2.3552
18469TIP3   OH276821   5.115   5.041  14.738 -0.3216  0.1749 -0.0910
18469TIP3    H176822   5.135   5.121  14.689 -0.4941  0.6158  0.5455
18469TIP3    H276823   5.021   5.027  14.722 -0.1480 -0.2642 -0.7279
18470TIP3   OH276824   1.164   4.683  16.576 -0.1356  0.1883  0.5141
18470TIP3    H176825   1.217   4.632  16.638 -1.2430 -1.1336  0.4131
18470TIP3    H276826   1.094   4.721  16.629 -1.5221 -1.5537  0.0098
18471TIP3   OH276827   0.527   1.992   4.145  0.1192 -0.5389  0.2831
18471TIP3    H176828   0.457   2.026   4.200 -1.1738 -2.5581  0.0058
18471TIP3    H276829   0.605   2.042   4.170 -0.7994 -0.1735  2.6413
18472TIP3   OH276830   4.829   4.901  15.810  0.1469  0.2401 -0.2307
18472TIP3    H176831   4.893   4.953  15.859 -0.5337  1.0378 -0.1665
18472TIP3    H276832   4.744   4.932  15.842 -0.2842 -0.2955 -0.8387
18473TIP3   OH276833   4.538   0.773  12.068  0.0787 -0.0398  0.0845
18473TIP3    H176834   4.535   0.857  12.022  3.3584 -1.2641 -2.8114
18473TIP3    H276835   4.566   0.794  12.156  3.3846  1.8726 -1.2618
18474TIP3   OH276836   1.712   1.221   5.156 -0.2872  0.2755 -0.1196
18474TIP3    H176837   1.785   1.268   5.196  0.3737 -0.4113 -0.4767
18474TIP3    H276838   1.740   1.129   5.155 -1.5395 -0.1327  0.5428
18475TIP3   OH276839   0.683   1.930  12.077  0.4470  0.2852 -0.0153
18475TIP3    H176840   0.767   1.957  12.039 -0.8906  5.0218 -0.2750
18475TIP3    H276841   0.629   1.904  12.002  0.5028  1.1060 -0.3483
18476TIP3   OH276842   4.542   4.971   6.475  0.0568 -0.8949 -0.3683
18476TIP3    H176843   4.544   4.967   6.380  0.6600 -1.3434 -0.3411
18476TIP3    H276844   4.527   5.064   6.495 -0.1381 -0.8130 -0.8979
18477TIP3   OH276845   5.848   3.929   2.801  0.0376 -0.2592 -0.0507
18477TIP3    H176846   5.779   3.995   2.806 -0.7803 -0.9647 -1.2329
18477TIP3    H276847   5.864   3.903   2.891 -0.6175  0.5575  0.3113
18478TIP3   OH276848   5.536   6.741  14.979 -0.4372  0.1712 -0.7601
18478TIP3    H176849   5.606   6.793  15.020  1.3513 -1.9969 -0.8514
18478TIP3    H276850   5.572   6.716  14.894 -1.5155 -0.6202 -1.0004
18479TIP3   OH276851   4.073   5.853   0.545 -0.8721 -0.1901 -0.3306
18479TIP3    H176852   4.130   5.831   0.472 -1.4443 -1.2350 -0.4813
18479TIP3    H276853   3.985   5.860   0.506 -0.9525  0.8212 -0.0068
18480TIP3   OH276854   0.080   0.127  13.632 -0.3593 -0.4060  0.1512
18480TIP3    H176855   0.122   0.066  13.692  0.1479 -1.1773 -0.9359
18480TIP3    H276856   0.084   0.083  13.547 -2.1853  0.0899 -0.2282
18481TIP3   OH276857   3.128   3.815  11.653  0.1233 -0.1169  0.2281
18481TIP3    H176858   3.167   3.863  11.726  0.1521 -1.0540  0.8594
18481TIP3    H276859   3.147   3.723  11.673  2.2185 -0.2931 -2.1743
18482TIP3   OH276860   6.123   1.947   3.964 -0.1182 -0.5340  0.1950
18482TIP3    H176861   6.100   1.857   3.939 -0.3993 -0.3283 -0.2998
18482TIP3    H276862   6.144   1.941   4.057 -0.0401 -1.1314  0.1471
18483TIP3   OH276863   2.061   3.662   6.293 -0.4618 -0.6972  0.1917
18483TIP3    H176864   1.967   3.652   6.283 -0.2606 -1.8229 -0.7735
18483TIP3    H276865   2.080   3.749   6.258 -1.1557 -0.3732  0.5970
18484TIP3   OH276866   3.029   0.295  10.569 -0.0121  0.2343 -0.0441
18484TIP3    H176867   2.967   0.222  10.572  0.6702 -0.3095  1.5315
18484TIP3    H276868   2.994   0.358  10.632 -0.7085  1.4163 -1.5325
18485TIP3   OH276869   3.378   2.139   0.907 -0.0745 -0.1532  0.2199
18485TIP3    H176870   3.443   2.136   0.977  0.3584  1.4304 -0.0719
18485TIP3    H276871   3.425   2.174   0.831 -1.1854  0.7671 -0.0714
18486TIP3   OH276872   4.353   4.737   3.934  0.5060 -0.0906 -0.7517
18486TIP3    H176873   4.302   4.794   3.991  0.4688  0.3230 -1.1948
18486TIP3    H276874   4.381   4.665   3.991 -1.3070 -0.8017 -0.7141
18487TIP3   OH276875   5.477   1.943  14.054 -0.8821  0.2042 -0.0567
18487TIP3    H176876   5.572   1.932  14.058 -0.9776 -0.7902 -0.1672
18487TIP3    H276877   5.450   1.892  13.977 -1.6891 -1.0239  0.9972
18488TIP3   OH276878   2.992   3.279  12.852  0.4929 -0.3387 -0.3006
18488TIP3    H176879   2.993   3.183  12.843 -1.9915 -0.5453  0.9276
18488TIP3    H276880   2.982   3.294  12.946  0.5899  1.1509 -0.5039
18489TIP3   OH276881   3.870   5.106  12.262  0.1700 -0.2861 -0.6654
18489TIP3    H176882   3.789   5.074  12.302  0.3207 -0.5770 -0.5824
18489TIP3    H276883   3.936   5.042  12.290  0.7156  0.7341  0.4809
18490TIP3   OH276884   6.087   4.698  11.525  0.1652  0.2123 -0.2950
18490TIP3    H176885   6.072   4.604  11.515  1.1642  0.1553 -1.5470
18490TIP3    H276886   6.178   4.710  11.497 -0.6231  1.8561 -2.4180
18491TIP3   OH276887   1.783   3.559   0.084  0.2375 -0.3112 -0.2380
18491TIP3    H176888   1.770   3.632   0.145 -0.9631 -0.4240 -0.3480
18491TIP3    H276889   1.747   3.590   0.001 -0.8752 -1.2464 -0.1281
18492TIP3   OH276890   3.528   6.196  11.401 -0.4374  0.3430  0.1127
18492TIP3    H176891   3.520   6.101  11.405  3.5686 -0.1492  2.7425
18492TIP3    H276892   3.514   6.225  11.492 -0.1585  2.0772 -0.3613
18493TIP3   OH276893   4.653   4.128  14.708  0.3663 -0.2410 -1.1100
18493TIP3    H176894   4.582   4.064  14.706  0.1629 -0.0150 -1.3315
18493TIP3    H276895   4.731   4.078  14.732 -0.0161 -0.3460 -0.0100
18494TIP3   OH276896   2.354   3.830  15.635  0.4548 -0.1058 -0.0594
18494TIP3    H176897   2.385   3.837  15.725 -3.0947  0.7076  1.2529
18494TIP3    H276898   2.310   3.745  15.631 -2.3083  1.1983  0.1243
18495TIP3   OH276899   1.029   1.244   4.626 -0.3283  0.0347 -0.1362
18495TIP3    H176900   1.099   1.179   4.622 -1.3550 -1.0785 -0.6489
18495TIP3    H276901   1.065   1.315   4.679  2.1060  0.6505 -2.3790
18496TIP3   OH276902   4.927   5.473   4.561  0.1385 -0.5491  0.4328
18496TIP3    H176903   4.934   5.531   4.637  1.7326 -0.1174 -0.0045
18496TIP3    H276904   4.923   5.385   4.598 -2.0643 -0.2369  1.0956
18497TIP3   OH276905   5.657   5.714  14.163  0.4180 -0.3705 -0.3611
18497TIP3    H176906   5.620   5.636  14.123  1.1856 -0.3851 -1.0575
18497TIP3    H276907   5.666   5.776  14.091  0.9931 -0.0819 -0.0430
18498TIP3   OH276908   0.821   2.121  11.311 -0.0251  0.0201 -0.2745
18498TIP3    H176909   0.836   2.038  11.266 -0.3739 -1.1581  1.6828
18498TIP3    H276910   0.763   2.170  11.253  1.0682 -0.6186 -1.9755
18499TIP3   OH276911   6.580   6.746   0.400 -0.2757 -0.2576 -0.4199
18499TIP3    H176912   6.510   6.806   0.428 -1.5803 -0.9233 -2.0596
18499TIP3    H276913   6.619   6.716   0.482 -1.0025  1.1856  0.5052
18500TIP3   OH276914   1.155   0.842   3.988  0.0276 -0.0724 -0.5071
18500TIP3    H176915   1.071   0.880   3.962 -0.4448 -0.2968  0.6139
18500TIP3    H276916   1.131   0.763   4.037  0.9273 -0.5828 -0.8794
18501TIP3   OH276917   1.103   0.618  11.449 -0.2479  0.0689 -0.3485
18501TIP3    H176918   1.197   0.621  11.463 -0.5263  0.5549  1.8947
18501TIP3    H276919   1.082   0.524  11.448  0.1806 -0.0318 -0.2424
18502TIP3   OH276920   1.957   4.406   1.692 -0.0434 -0.0148 -0.4921
18502TIP3    H176921   1.970   4.500   1.691  1.8207 -0.2427 -0.3474
18502TIP3    H276922   1.913   4.388   1.775 -1.7924  0.8499 -1.1826
18503TIP3   OH276923   6.197   2.645   4.882  0.7002 -0.1258 -0.4274
18503TIP3    H176924   6.139   2.678   4.950  0.8271 -0.1430 -0.3097
18503TIP3    H276925   6.280   2.692   4.896  0.2193  1.1482 -1.6306
18504TIP3   OH276926   2.584   4.515  15.334  0.0230  0.2600  0.3029
18504TIP3    H176927   2.562   4.477  15.419 -0.9826 -0.4264 -0.2414
18504TIP3    H276928   2.614   4.441  15.282  2.1933  0.9057  0.4955
18505TIP3   OH276929   6.450   3.952   4.925  0.0372 -0.5233 -0.7627
18505TIP3    H176930   6.521   3.923   4.868 -0.3982 -2.7778 -0.2517
18505TIP3    H276931   6.483   3.939   5.014 -0.1236  0.8073 -0.4881
18506TIP3   OH276932   6.476   3.232   6.020  0.0563 -0.1456 -0.3994
18506TIP3    H176933   6.453   3.144   6.051  1.2377 -0.0434  0.8846
18506TIP3    H276934   6.498   3.219   5.928 -0.9586 -0.9735 -0.5396
18507TIP3   OH276935   1.162   1.739  16.192 -0.4967 -0.0463 -0.3643
18507TIP3    H176936   1.162   1.817  16.137 -0.3235 -0.8892 -1.6033
18507TIP3    H276937   1.215   1.675  16.144 -0.8559 -1.0164  0.4824
18508TIP3   OH276938   3.904   2.055   3.806 -0.0980  0.2123  0.5817
18508TIP3    H176939   3.852   2.136   3.812 -0.2615  0.0889  0.8365
18508TIP3    H276940   3.995   2.085   3.812  0.0641  0.7508 -2.7535
18509TIP3   OH276941   6.311   6.452  11.726 -0.4534 -0.0500  0.0149
18509TIP3    H176942   6.353   6.413  11.802  0.0271  0.4870  0.0374
18509TIP3    H276943   6.241   6.506  11.763  0.8295  1.5500  0.2343
18510TIP3   OH276944   1.239   5.607  14.563 -0.0588  0.0097 -0.1442
18510TIP3    H176945   1.215   5.696  14.536 -0.5771 -0.0364  0.1575
18510TIP3    H276946   1.312   5.584  14.505  0.9805  1.1416  0.6547
18511TIP3   OH276947   2.614   1.913  15.664 -0.6149 -0.0360  0.3191
18511TIP3    H176948   2.703   1.888  15.639 -0.1118  1.4866  0.4948
18511TIP3    H276949   2.613   1.904  15.760  0.8767  4.1963  0.9472
18512TIP3   OH276950   5.635   6.214   6.020 -0.4928  0.6261  0.0086
18512TIP3    H176951   5.702   6.282   6.021  0.0261  0.1264 -0.4578
18512TIP3    H276952   5.624   6.190   6.112 -1.1354  1.7723  0.2478
18513TIP3   OH276953   2.959   4.260   5.708  0.3548 -0.6586  0.2599
18513TIP3    H176954   2.978   4.176   5.749 -0.9627 -0.9976  0.2202
18513TIP3    H276955   2.895   4.301   5.766 -1.7686 -1.2749 -1.5370
18514TIP3   OH276956   0.716   3.716   5.407  0.7865 -0.3185  0.1012
18514TIP3    H176957   0.642   3.719   5.347  1.0889  0.2981 -0.2591
18514TIP3    H276958   0.713   3.628   5.446 -0.7273  0.0623  0.8794
18515TIP3   OH276959   2.776   4.337   5.901  0.1989  0.2724  0.8089
18515TIP3    H176960   2.846   4.357   5.964  0.6575  2.8979 -0.3954
18515TIP3    H276961   2.697   4.375   5.941  0.3506  1.2711  0.1941
18516TIP3   OH276962   4.560   5.727  12.103 -0.1040  0.6466 -0.1979
18516TIP3    H176963   4.563   5.634  12.083  0.4563  0.2668  1.4643
18516TIP3    H276964   4.545   5.770  12.019  2.5212 -0.7515 -1.4896
18517TIP3   OH276965   2.700   4.160  15.484  0.1642  0.5309 -0.5941
18517TIP3    H176966   2.725   4.142  15.393  0.7326  3.0453 -0.9992
18517TIP3    H276967   2.632   4.096  15.503  0.4756 -0.4668 -2.5770
18518TIP3   OH276968   0.920   1.830  13.930  0.4422 -0.0734 -0.2404
18518TIP3    H176969   0.951   1.833  14.021  1.1294 -0.9479 -0.4458
18518TIP3    H276970   0.828   1.859  13.936 -0.5659 -3.1215  1.2099
18519TIP3   OH276971   0.069   6.725  14.938 -0.0681  0.1482 -0.5321
18519TIP3    H176972   0.047   6.814  14.909  0.1584  0.1105 -0.8251
18519TIP3    H276973   0.150   6.735  14.988 -1.3902  0.4788  1.6791
18520TIP3   OH276974   2.600   1.852   5.545  0.2978  0.3153 -0.6661
18520TIP3    H176975   2.510   1.883   5.532  0.0538 -1.1189 -3.1144
18520TIP3    H276976   2.635   1.842   5.456  1.8872 -1.9210  0.1092
18521TIP3   OH276977   3.073   2.327   2.134  0.0405 -0.0542 -0.2995
18521TIP3    H176978   3.004   2.378   2.177  0.7497  0.0079  0.8116
18521TIP3    H276979   3.151   2.345   2.186  0.4772 -1.6656 -0.3574
18522TIP3   OH276980   1.905   4.561   5.306  0.1553 -0.1482  0.0400
18522TIP3    H176981   1.895   4.648   5.345  0.9407 -0.0272  0.0013
18522TIP3    H276982   1.838   4.507   5.348  0.9220 -0.0005  1.5343
18523TIP3   OH276983   3.552   2.374  12.151  0.2736 -0.1506  0.1674
18523TIP3    H176984   3.513   2.287  12.145  0.4943 -0.2369 -0.0441
18523TIP3    H276985   3.625   2.364  12.213 -1.2621  0.4689  2.1909
18524TIP3   OH276986   4.486   5.706   5.633 -0.2452  0.0323  0.2289
18524TIP3    H176987   4.505   5.634   5.692  2.3425 -0.7309 -1.3938
18524TIP3    H276988   4.571   5.742   5.609 -1.1783  0.6742 -2.5463
18525TIP3   OH276989   1.624   6.351   4.951  0.1629 -0.6049 -0.1004
18525TIP3    H176990   1.642   6.388   4.864 -1.3112 -2.2310 -1.1505
18525TIP3    H276991   1.708   6.355   4.997  0.9155  0.4863 -1.5122
18526TIP3   OH276992   0.211   3.780  16.985 -0.4121  0.0331  0.4202
18526TIP3    H176993   0.143   3.743  16.929  0.3693 -0.1156 -0.4756
18526TIP3    H276994   0.279   3.808  16.924 -0.3787  1.7061  1.1730
18527TIP3   OH276995   3.098   6.277  17.214 -0.3594 -0.0844 -0.1681
18527TIP3    H176996   3.120   6.265  17.122  0.7879 -0.1896  0.1007
18527TIP3    H276997   3.094   6.189  17.250 -1.3209 -0.0675 -0.2265
18528TIP3   OH276998   3.802   6.680   1.374 -0.0644  0.0477 -0.2468
18528TIP3    H176999   3.868   6.744   1.401  2.4728 -2.5655  0.1014
18528TIP3    H277000   3.808   6.680   1.278  1.8661 -1.4252 -0.1967
18529TIP3   OH277001   3.755   3.642  14.248 -0.2752 -0.1502 -0.2237
18529TIP3    H177002   3.761   3.732  14.216 -0.9165 -0.7285 -2.1423
18529TIP3    H277003   3.774   3.648  14.341 -1.4629  2.1274 -0.0596
18530TIP3   OH277004   0.204   5.176  13.024 -0.3785 -0.1822  0.0353
18530TIP3    H177005   0.121   5.200  12.983 -0.3902 -0.2234  0.0346
18530TIP3    H277006   0.270   5.195  12.957 -0.5271 -1.6341 -0.5569
18531TIP3   OH277007   6.087   2.016   0.540 -0.5454 -0.3311  0.1719
18531TIP3    H177008   6.043   1.933   0.556 -1.2515 -0.9404 -3.9391
18531TIP3    H277009   6.016   2.078   0.523  0.0330  0.7793  1.5854
18532TIP3   OH277010   6.388   4.353   4.777  0.2787 -0.2382 -0.1032
18532TIP3    H177011   6.295   4.334   4.777  0.2323 -0.0817  1.3508
18532TIP3    H277012   6.398   4.428   4.718 -0.8895  1.3767  1.6522
18533TIP3   OH277013   1.078   2.941   3.889 -0.2119 -0.0698 -0.3998
18533TIP3    H177014   1.142   2.891   3.838  1.0118 -0.9309  1.8235
18533TIP3    H277015   1.079   2.899   3.975 -1.4414  1.9047  0.6366
18534TIP3   OH277016   3.792   2.911   5.482  0.0979  0.4339 -0.6399
18534TIP3    H177017   3.756   2.838   5.532  0.5550  0.8849  0.3827
18534TIP3    H277018   3.730   2.983   5.496 -0.0254  0.4246 -1.1280
18535TIP3   OH277019   5.736   3.732   2.273  0.4099  0.2659  0.4702
18535TIP3    H177020   5.779   3.671   2.332 -0.6449  0.9564  2.0030
18535TIP3    H277021   5.681   3.677   2.217  0.5020 -0.2864  0.9210
18536TIP3   OH277022   6.625   5.110   5.590  0.4659 -0.0165 -0.2139
18536TIP3    H177023   6.573   5.079   5.664  0.4515  0.5947  0.0322
18536TIP3    H277024   6.668   5.189   5.622  2.2541 -0.9767 -0.1081
18537TIP3   OH277025   0.957   6.279  14.007  0.0349 -0.1893 -0.0947
18537TIP3    H177026   0.998   6.319  13.931 -1.2495  0.4965 -0.4465
18537TIP3    H277027   0.985   6.187  14.003  0.0486 -0.1454 -1.3450
18538TIP3   OH277028   2.023   1.962  11.398 -0.5771 -0.2272 -0.0567
18538TIP3    H177029   2.005   2.047  11.437  0.5714 -0.0966  0.2335
18538TIP3    H277030   2.118   1.950  11.408 -0.8359 -1.9945  0.8433
18539TIP3   OH277031   5.060   4.801   4.784  0.2596  0.0399  0.3000
18539TIP3    H177032   5.135   4.826   4.838  1.1587 -0.0016 -0.8839
18539TIP3    H277033   5.040   4.711   4.810  2.5696 -1.0677 -1.4152
18540TIP3   OH277034   2.830   4.998   2.091 -0.4107 -0.2343  0.5461
18540TIP3    H177035   2.896   5.066   2.077  1.2384 -1.9212 -0.2633
18540TIP3    H277036   2.749   5.047   2.108  0.4155  1.9584 -1.2130
18541TIP3   OH277037   5.309   3.738  10.288 -0.3939 -0.4687 -0.0888
18541TIP3    H177038   5.316   3.806  10.221 -1.5783  0.0272  0.2595
18541TIP3    H277039   5.373   3.672  10.263 -1.9347 -1.1003 -2.6537
18542TIP3   OH277040   3.737   3.643   2.159  0.2070 -0.0227 -0.3197
18542TIP3    H177041   3.650   3.605   2.176 -0.1857  0.1203 -1.8380
18542TIP3    H277042   3.790   3.615   2.233 -1.5944  1.4366  1.6639
18543TIP3   OH277043   4.885   4.608  11.890 -0.3872  0.0871 -0.1138
18543TIP3    H177044   4.819   4.625  11.957 -0.3031 -0.9277  0.2379
18543TIP3    H277045   4.945   4.682  11.897 -0.5976  0.1918  0.6697
18544TIP3   OH277046   0.708   1.868  12.889 -0.1289 -0.2278  0.1136
18544TIP3    H177047   0.803   1.871  12.877  0.0186 -1.1400  0.8993
18544TIP3    H277048   0.687   1.948  12.936 -0.3257  1.9138 -3.2938
18545TIP3   OH277049   5.553   6.040  14.435 -0.2525 -0.4129  0.0626
18545TIP3    H177050   5.476   6.084  14.471 -0.3810  0.5750 -1.3272
18545TIP3    H277051   5.517   5.961  14.393 -1.0380  1.4501 -3.0997
18546TIP3   OH277052   6.565   3.105   1.604 -0.1288  0.1347 -0.0118
18546TIP3    H177053   6.499   3.172   1.620 -0.5604  0.0350 -1.2561
18546TIP3    H277054   6.637   3.128   1.663 -0.5158  1.3323  0.0260
18547TIP3   OH277055   3.265   6.421   4.759 -0.5647 -0.0648  0.0233
18547TIP3    H177056   3.321   6.345   4.776 -0.5675  0.0475  0.5452
18547TIP3    H277057   3.287   6.448   4.670  0.0804 -0.1252  0.1641
18548TIP3   OH277058   6.590   5.362   2.873 -0.4932  0.2542  0.2280
18548TIP3    H177059   6.575   5.431   2.938  1.1152 -0.9162  1.9410
18548TIP3    H277060   6.503   5.327   2.855 -0.9342 -0.0463  2.5666
18549TIP3   OH277061   2.898   4.843   5.504  0.7795  0.5940 -0.3074
18549TIP3    H177062   2.820   4.823   5.555  2.7106 -0.5968  2.4608
18549TIP3    H277063   2.965   4.864   5.570  3.8074 -2.1505 -2.2011
18550TIP3   OH277064   3.759   2.682   5.628  0.1259 -0.2259 -0.4840
18550TIP3    H177065   3.747   2.732   5.709  1.6131 -0.8831  0.2025
18550TIP3    H277066   3.678   2.633   5.617 -0.8367  1.3080 -0.4582
18551TIP3   OH277067   0.026   4.896   1.087  0.2412  0.3724 -0.1023
18551TIP3    H177068   0.036   4.802   1.075 -0.7567  0.3488 -0.8159
18551TIP3    H277069   0.109   4.924   1.127 -0.3774 -1.2016  2.5583
18552TIP3   OH277070   1.336   6.655  11.241 -0.7181 -0.7086 -0.2257
18552TIP3    H177071   1.359   6.732  11.189 -1.7685 -0.2937 -0.1026
18552TIP3    H277072   1.379   6.668  11.325 -0.3404 -0.5920 -0.4345
18553TIP3   OH277073   6.139   4.681  16.427  0.4243 -0.1060  0.2307
18553TIP3    H177074   6.190   4.601  16.413  1.0925  0.2952  0.3212
18553TIP3    H277075   6.121   4.713  16.338  1.6811  0.5810  0.2033
18554TIP3   OH277076   2.058   5.739   5.000  0.0320 -0.3640  0.0661
18554TIP3    H177077   2.063   5.694   4.916  0.1912  2.1707 -1.3758
18554TIP3    H277078   1.968   5.726   5.030  0.3780 -2.5823  0.3596
18555TIP3   OH277079   4.879   4.293   2.716  0.0617  0.0376 -0.1131
18555TIP3    H177080   4.915   4.282   2.804 -0.1533  1.1438  0.1247
18555TIP3    H277081   4.956   4.293   2.659  0.7053  3.6528  0.5047
18556TIP3   OH277082   1.123   2.523  11.179 -0.2223  0.2871 -0.2630
18556TIP3    H177083   1.093   2.507  11.269 -0.2995 -1.1612 -0.5235
18556TIP3    H277084   1.099   2.444  11.131  1.0997  0.4333 -1.2345
18557TIP3   OH277085   1.389   3.560   1.788 -0.1538  0.2191  0.0496
18557TIP3    H177086   1.476   3.567   1.748  0.5726 -1.0415  1.3291
18557TIP3    H277087   1.356   3.474   1.761 -0.4818  0.1791  0.5608
18558TIP3   OH277088   6.736   6.730   6.119  0.0649  0.3923 -0.6239
18558TIP3    H177089   6.701   6.782   6.191  1.1500 -1.0712  1.0704
18558TIP3    H277090   6.785   6.792   6.065 -0.4973  1.4807  0.0931
18559TIP3   OH277091   0.369   0.682  12.969  0.5694 -0.6124 -0.2869
18559TIP3    H177092   0.420   0.708  12.892 -0.2051  1.6099 -0.1181
18559TIP3    H277093   0.434   0.673  13.039  1.0025 -0.3284 -0.6460
18560TIP3   OH277094   0.831   2.752  13.480  0.1078  0.0411 -0.1912
18560TIP3    H177095   0.921   2.732  13.457  0.1784 -0.9283  0.8551
18560TIP3    H277096   0.825   2.847  13.476  0.8236  0.0522 -1.4811
18561TIP3   OH277097   1.163   5.394   5.486 -0.0720  0.0810 -0.2568
18561TIP3    H177098   1.225   5.323   5.470 -1.1414 -1.6591  2.6436
18561TIP3    H277099   1.078   5.359   5.459 -0.4526  0.6989  0.0968
18562TIP3   OH277100   3.416   0.556   2.453 -0.5559 -0.2514  0.2529
18562TIP3    H177101   3.467   0.636   2.465 -1.1069  0.1637 -0.0979
18562TIP3    H277102   3.351   0.559   2.523 -1.0056 -0.0418 -0.1669
18563TIP3   OH277103   5.005   2.061  11.821  0.0766  0.1361  0.4965
18563TIP3    H177104   5.060   2.082  11.745  0.1174 -0.3106  0.3996
18563TIP3    H277105   4.925   2.025  11.784  0.5732 -1.2274  0.6769
18564TIP3   OH277106   5.970   3.404  12.543  0.1064 -0.2580  0.5134
18564TIP3    H177107   6.009   3.490  12.554 -0.3610  0.1515 -0.7746
18564TIP3    H277108   5.963   3.393  12.448  0.7194 -1.9746  0.6233
18565TIP3   OH277109   3.675   5.222   5.473  0.1231  0.5539  0.1778
18565TIP3    H177110   3.711   5.311   5.483  0.3737  0.4875 -0.1070
18565TIP3    H277111   3.732   5.167   5.527  1.5667  0.1732 -1.6121
18566TIP3   OH277112   6.547   2.766   5.058  0.2499  0.5636 -0.0266
18566TIP3    H177113   6.569   2.732   4.972 -1.0723  3.3512 -1.6157
18566TIP3    H277114   6.456   2.796   5.050 -0.4632 -0.4545  2.8511
18567TIP3   OH277115   6.284   0.888   1.579  0.8586  0.4316  0.0497
18567TIP3    H177116   6.360   0.906   1.634  0.2649 -1.7016  1.6958
18567TIP3    H277117   6.216   0.948   1.610  1.0284  0.4011  0.4796
18568TIP3   OH277118   3.533   0.214  13.471 -0.2537  0.0137  0.3617
18568TIP3    H177119   3.594   0.177  13.408 -0.3413 -0.1533  0.3756
18568TIP3    H277120   3.588   0.236  13.547 -0.2217 -0.1986  0.3998
18569TIP3   OH277121   5.448   1.297  14.461  0.4271  0.4203  0.0321
18569TIP3    H177122   5.354   1.279  14.457  0.6689 -0.8870 -0.3084
18569TIP3    H277123   5.471   1.286  14.553  0.1115  1.6112  0.2743
18570TIP3   OH277124   1.309   1.753   4.902  0.4253  0.6705  0.2246
18570TIP3    H177125   1.244   1.701   4.854  0.9757 -0.3684  0.5656
18570TIP3    H277126   1.300   1.841   4.867  0.3324  0.0926 -1.3130
18571TIP3   OH277127   2.895   4.973   5.760 -0.0340  0.0749  0.6834
18571TIP3    H177128   2.866   5.052   5.807 -1.0066 -0.9122  1.8104
18571TIP3    H277129   2.832   4.964   5.688  1.6379  1.7629 -1.1128
18572TIP3   OH277130   6.481   5.064   2.252 -0.6306  0.2736 -0.3492
18572TIP3    H177131   6.560   5.111   2.281 -0.1184 -1.3680  1.0916
18572TIP3    H277132   6.409   5.112   2.293 -0.3263  1.1618 -0.8171
18573TIP3   OH277133   4.523   3.847  13.839 -0.3780 -0.1443 -0.2535
18573TIP3    H177134   4.569   3.768  13.867  1.3494  0.4567 -1.1822
18573TIP3    H277135   4.556   3.863  13.750 -0.9234  1.4216 -0.2102
18574TIP3   OH277136   2.268   2.192  16.791  0.0012  0.1454  0.0827
18574TIP3    H177137   2.219   2.142  16.856 -0.0568 -0.0784 -0.1310
18574TIP3    H277138   2.224   2.277  16.788 -0.5214 -0.1293 -0.2679
18575TIP3   OH277139   3.023   0.530  14.564 -0.5419  0.3770  0.1101
18575TIP3    H177140   3.086   0.465  14.595 -0.3340  0.5405  0.0312
18575TIP3    H277141   3.060   0.614  14.592 -0.9451  0.4443  0.4522
18576TIP3   OH277142   5.586   1.667  14.195  0.4626 -0.3523  0.7006
18576TIP3    H177143   5.615   1.606  14.263 -3.0758 -1.4871  1.4552
18576TIP3    H277144   5.551   1.742  14.244 -3.8120 -1.9485  0.5803
18577TIP3   OH277145   3.556   3.449  11.591  0.5283  0.6163 -0.7386
18577TIP3    H177146   3.564   3.544  11.599  0.1521  0.4835  1.8080
18577TIP3    H277147   3.645   3.420  11.569  1.1557  1.3766  0.6781
18578TIP3   OH277148   6.459   4.636   1.064 -0.0171  0.5519 -0.0512
18578TIP3    H177149   6.377   4.599   1.098  0.0214  0.8808  0.4003
18578TIP3    H277150   6.475   4.713   1.118  0.5222  0.5683 -0.2300
18579TIP3   OH277151   2.839   4.282  14.188  0.0525  0.2262  0.4431
18579TIP3    H177152   2.795   4.200  14.213 -0.3908  0.5396  0.6909
18579TIP3    H277153   2.913   4.253  14.134 -0.3894 -0.3152  0.1108
18580TIP3   OH277154   3.751   1.256  10.434 -0.3101 -0.0206 -0.0770
18580TIP3    H177155   3.809   1.283  10.363  0.3843  0.1447  0.5431
18580TIP3    H277156   3.750   1.331  10.493  0.3705 -0.7409  0.8729
18581TIP3   OH277157   3.406   2.445   3.693  0.4086 -0.1147  0.0971
18581TIP3    H177158   3.489   2.475   3.655 -0.1372  0.4969 -0.6128
18581TIP3    H277159   3.385   2.510   3.760  0.4766 -0.2555  0.2580
18582TIP3   OH277160   1.234   0.444   3.595  0.0662 -0.2809  0.6337
18582TIP3    H177161   1.312   0.414   3.548  0.3967 -1.0458  1.6238
18582TIP3    H277162   1.176   0.368   3.597 -1.1121  0.5033 -0.8034
18583TIP3   OH277163   4.351   5.809   4.048 -0.2627  0.2659  0.5695
18583TIP3    H177164   4.280   5.847   3.996 -0.9076 -2.3551 -0.6891
18583TIP3    H277165   4.430   5.826   3.996 -0.6560 -0.7209 -0.4026
18584TIP3   OH277166   0.257   0.412  12.355 -0.2383  0.0436 -0.7481
18584TIP3    H177167   0.331   0.411  12.416 -1.5081  0.3692  0.8418
18584TIP3    H277168   0.299   0.422  12.269  1.5721  0.2402  0.0926
18585TIP3   OH277169   5.070   2.632  11.171  0.2887  0.0358  0.2812
18585TIP3    H177170   5.036   2.698  11.111  2.1431  0.3538 -0.4808
18585TIP3    H277171   4.992   2.585  11.201 -0.7587  0.2386 -1.9142
18586TIP3   OH277172   3.798   1.141   0.013 -0.7110 -0.1122 -0.2797
18586TIP3    H177173   3.781   1.050   0.038 -1.7248  0.1147 -0.1162
18586TIP3    H277174   3.742   1.193   0.071  0.8256  0.7050  0.5412
18587TIP3   OH277175   4.738   1.299  14.746  0.4197 -0.3584  0.1313
18587TIP3    H177176   4.665   1.348  14.707 -0.2533 -1.2223  0.2940
18587TIP3    H277177   4.731   1.211  14.709  1.0104 -0.6165  0.6230
18588TIP3   OH277178   0.026   4.189  14.749 -0.1789 -0.2414  0.2710
18588TIP3    H177179   0.075   4.231  14.819 -0.1787  0.3905 -0.1054
18588TIP3    H277180   0.009   4.258  14.685 -0.2575 -0.7836 -0.3141
18589TIP3   OH277181   2.215   0.576   2.497  0.1042  0.2593  0.5439
18589TIP3    H177182   2.244   0.633   2.426  2.4732 -1.0015  0.4118
18589TIP3    H277183   2.207   0.489   2.457 -1.8862  0.1270  1.0983
18590TIP3   OH277184   0.073   0.737  12.089 -0.4913  0.5624 -0.5244
18590TIP3    H177185   0.142   0.695  12.038 -0.2857 -1.3432  1.1771
18590TIP3    H277186  -0.007   0.721  12.040 -0.3487 -1.5472 -0.1406
18591TIP3   OH277187   6.616   1.721   5.547  0.0513 -0.1318  0.0431
18591TIP3    H177188   6.579   1.633   5.544 -1.6123  0.4665  1.6229
18591TIP3    H277189   6.710   1.706   5.561  0.1297 -1.6421 -1.6451
18592TIP3   OH277190   4.937   4.040  12.026  0.1388  0.3345 -0.6012
18592TIP3    H177191   5.022   4.078  12.045  1.0557 -2.2920  0.9772
18592TIP3    H277192   4.902   4.095  11.955  2.8317  1.8618 -0.8862
18593TIP3   OH277193   1.898   4.186  11.938 -0.1240 -0.3401  0.1510
18593TIP3    H177194   1.872   4.239  11.863 -0.0525 -0.9906 -0.3389
18593TIP3    H277195   1.978   4.142  11.909  0.1437 -0.2699  0.7639
18594TIP3   OH277196   1.085   4.361  13.997  0.0548 -0.5724 -0.1313
18594TIP3    H177197   1.076   4.425  13.926  0.6147  0.1834  0.4508
18594TIP3    H277198   1.180   4.356  14.011 -0.1059  1.3680  2.3485
18595TIP3   OH277199   2.596   5.624  13.561 -0.8044 -0.0790  0.1137
18595TIP3    H177200   2.592   5.595  13.652 -1.3190 -1.3471 -0.2842
18595TIP3    H277201   2.516   5.674  13.548  0.1668  1.7544  0.8563
18596TIP3   OH277202   0.901   6.128   5.563 -0.7101 -0.4406  0.6495
18596TIP3    H177203   0.869   6.044   5.530 -1.5951  0.1715 -0.0893
18596TIP3    H277204   0.866   6.133   5.652 -0.7859 -0.7847  0.6414
18597TIP3   OH277205   5.808   2.035  11.118  0.6452 -0.2424 -0.6371
18597TIP3    H177206   5.871   2.075  11.058 -0.1159  1.0033 -0.6359
18597TIP3    H277207   5.831   1.942  11.118  1.0806 -0.1731 -2.3436
18598TIP3   OH277208   1.443   5.610   0.260  0.8364 -0.5966  0.5310
18598TIP3    H177209   1.419   5.536   0.317  3.1524 -1.0412  1.0303
18598TIP3    H277210   1.534   5.592   0.235  1.3598  1.9358  0.4153
18599TIP3   OH277211   4.810   0.183  15.637 -0.4180  0.8455 -0.3580
18599TIP3    H177212   4.774   0.128  15.567 -1.3875  0.4038  0.4667
18599TIP3    H277213   4.781   0.141  15.718  0.7729  1.2895  0.3219
18600TIP3   OH277214   0.815   0.576   6.264  0.4138 -0.4283  0.3865
18600TIP3    H177215   0.864   0.501   6.232 -0.1402 -0.2829 -0.8437
18600TIP3    H277216   0.871   0.652   6.246  1.0982 -0.5484  1.8876
18601TIP3   OH277217   0.110   1.167  11.088 -0.1646 -0.0573  0.5462
18601TIP3    H177218   0.044   1.111  11.129  1.0617 -0.9115  1.4629
18601TIP3    H277219   0.153   1.212  11.161  0.5630  0.1229  0.0257
18602TIP3   OH277220   1.219   4.668  12.867  0.1900 -0.3862  0.0584
18602TIP3    H177221   1.209   4.586  12.916  1.5142 -0.2786  0.5491
18602TIP3    H277222   1.224   4.736  12.934  0.3205 -0.0378 -0.2990
18603TIP3   OH277223   0.132   4.201  14.293 -0.5803  0.0053 -0.0758
18603TIP3    H177224   0.142   4.163  14.205 -0.6602 -0.3206  0.0546
18603TIP3    H277225   0.051   4.252  14.288 -0.3436  0.3601 -0.3223
18604TIP3   OH277226   3.287   0.566   4.537 -0.0974 -0.1900 -0.5063
18604TIP3    H177227   3.280   0.470   4.544  0.2788 -0.1048  2.1286
18604TIP3    H277228   3.379   0.585   4.557 -0.5773  0.7916  0.9395
18605TIP3   OH277229   5.760   4.194  10.183  0.2304  0.1141  0.3376
18605TIP3    H177230   5.703   4.196  10.260  1.0086 -0.8006  0.9529
18605TIP3    H277231   5.730   4.268  10.130  0.0508  1.1208  1.7836
18606TIP3   OH277232   3.104   1.566   4.553 -0.0447  0.1776  0.1356
18606TIP3    H177233   3.035   1.624   4.522  0.2912 -0.0968 -1.2008
18606TIP3    H277234   3.180   1.623   4.565  0.3996  0.0024 -1.5599
18607TIP3   OH277235   4.973   4.838  13.107  0.8355 -0.2935  0.1495
18607TIP3    H177236   4.984   4.878  13.021  1.0523 -0.6212  0.0226
18607TIP3    H277237   4.912   4.765  13.092  2.6207 -1.7871 -0.1893
18608TIP3   OH277238   2.043   0.250  12.653 -0.1274  0.1808 -0.4266
18608TIP3    H177239   2.081   0.310  12.589  0.5055  0.2421 -0.0066
18608TIP3    H277240   2.049   0.296  12.736  0.7374 -0.6018 -0.0313
18609TIP3   OH277241   3.287   2.103  14.783 -0.2850  0.3262 -0.5403
18609TIP3    H177242   3.259   2.164  14.852 -0.1534 -1.1043  0.8417
18609TIP3    H277243   3.358   2.053  14.824 -0.8489 -1.2151 -1.4049
18610TIP3   OH277244   4.861   6.273  16.748 -0.8313  0.5498  0.6482
18610TIP3    H177245   4.775   6.309  16.724  0.0615  1.8491 -0.7715
18610TIP3    H277246   4.924   6.326  16.699  0.7527 -0.8934  1.0231
18611TIP3   OH277247   6.346   3.498  11.992 -0.2472 -0.4826  0.3211
18611TIP3    H177248   6.381   3.579  12.029  0.3112 -0.2667 -0.6513
18611TIP3    H277249   6.424   3.447  11.968 -0.5248  0.0386 -1.9466
18612TIP3   OH277250   3.808   5.994   5.977 -0.5846  0.5198  0.1988
18612TIP3    H177251   3.850   5.916   6.013 -1.3900  0.3181  0.7464
18612TIP3    H277252   3.870   6.065   5.993 -0.1590  0.1150  0.3611
18613TIP3   OH277253   2.695   2.124   0.673 -0.4081 -0.9935  0.1743
18613TIP3    H177254   2.783   2.106   0.706  0.9607  1.2837 -1.8893
18613TIP3    H277255   2.671   2.043   0.627  1.2865 -1.1490 -0.5256
18614TIP3   OH277256   0.449   4.450   0.465 -0.8821  0.0568 -0.5594
18614TIP3    H177257   0.520   4.497   0.421 -1.9835  2.7361  0.2767
18614TIP3    H277258   0.390   4.425   0.394  0.7720 -2.1313 -1.2543
18615TIP3   OH277259   3.008   5.061  13.529 -0.2782 -0.2460  0.2565
18615TIP3    H177260   2.957   5.111  13.592  0.0349  0.7139 -0.2422
18615TIP3    H277261   2.943   5.011  13.479 -0.6204 -0.0083  0.4646
18616TIP3   OH277262   4.731   1.002  14.153  0.0009 -0.1972 -0.7284
18616TIP3    H177263   4.649   0.994  14.203  0.2935  2.3795  0.3118
18616TIP3    H277264   4.710   0.967  14.066 -1.8682 -0.6201 -0.1461
18617TIP3   OH277265   3.124   1.502   5.119  0.7268 -0.4849 -0.3264
18617TIP3    H177266   3.197   1.546   5.163  0.4277  0.8583 -1.1230
18617TIP3    H277267   3.108   1.554   5.040 -2.5505  0.6406  0.8969
18618TIP3   OH277268   1.357   3.199   4.617  0.2637  0.4758 -0.0960
18618TIP3    H177269   1.378   3.274   4.562  0.1696  1.2559  0.8944
18618TIP3    H277270   1.306   3.236   4.689 -1.4480 -0.8455 -0.5856
18619TIP3   OH277271   3.644   5.262   2.212 -0.4667  0.2912  0.1225
18619TIP3    H177272   3.639   5.210   2.132 -1.2433  1.4237 -0.6072
18619TIP3    H277273   3.599   5.209   2.278  1.0881 -1.1069  0.0940
18620TIP3   OH277274   5.379   1.007   6.748  0.1367  0.1454 -0.4907
18620TIP3    H177275   5.343   1.014   6.836 -0.8665  0.8263 -0.9366
18620TIP3    H277276   5.335   1.076   6.699  2.1834  1.1518 -1.0292
18621TIP3   OH277277   4.423   5.160   3.900  0.2649 -0.1114  0.5004
18621TIP3    H177278   4.332   5.180   3.918  0.2985  1.3137 -0.6073
18621TIP3    H277279   4.421   5.081   3.846 -0.5455  1.2312 -1.5587
18622TIP3   OH277280   1.483   0.035  15.207  0.1699 -0.2928  0.2494
18622TIP3    H177281   1.459   0.035  15.114  1.8047  0.5742 -0.2170
18622TIP3    H277282   1.461  -0.053  15.238 -0.1463 -0.6860 -1.0281
18623TIP3   OH277283   0.561   5.534  14.883  0.7916 -0.5934 -1.0857
18623TIP3    H177284   0.631   5.535  14.948  0.5472  2.4537 -0.7367
18623TIP3    H277285   0.605   5.513  14.800  1.6502 -1.2274 -0.4882
18624TIP3   OH277286   1.506   1.919  12.042  0.6904  0.4494 -0.0578
18624TIP3    H177287   1.594   1.957  12.051  0.3898  1.5825 -1.6381
18624TIP3    H277288   1.518   1.844  11.984  0.7054  0.1643  0.3042
18625TIP3   OH277289   0.178   1.844  17.158  0.6946  0.0497 -0.7333
18625TIP3    H177290   0.103   1.892  17.124  0.9546 -0.8661 -2.7354
18625TIP3    H277291   0.247   1.858  17.092  1.8663 -0.1941  0.4039
18626TIP3   OH277292   5.270   1.947   3.758  0.1913 -0.1405  0.0865
18626TIP3    H177293   5.308   1.882   3.817 -1.3386  0.4175  1.7636
18626TIP3    H277294   5.308   1.926   3.673  1.0636 -2.1343  0.8909
18627TIP3   OH277295   5.688   4.793  16.006 -0.5325  0.2042  0.2232
18627TIP3    H177296   5.744   4.847  16.062 -0.7676 -0.0112  0.6719
18627TIP3    H277297   5.680   4.710  16.052 -1.0836  0.1727  0.0837
18628TIP3   OH277298   2.043   5.663  13.510  0.3671 -0.2906 -0.4071
18628TIP3    H177299   2.102   5.690  13.440 -0.4232 -1.8060 -1.7371
18628TIP3    H277300   1.959   5.648  13.466 -0.5743  0.2094  1.1425
18629TIP3   OH277301   4.171   2.782  13.953  0.2731 -0.2412  0.5012
18629TIP3    H177302   4.170   2.873  13.922  0.1464 -0.5549 -0.4444
18629TIP3    H277303   4.159   2.789  14.048 -0.3712  0.7027  0.3683
18630TIP3   OH277304   3.534   4.801  15.638 -0.0124  0.3202  0.0006
18630TIP3    H177305   3.481   4.772  15.712 -0.0570  0.4708  0.0267
18630TIP3    H277306   3.483   4.871  15.597 -0.6404 -0.6994 -1.0047
18631TIP3   OH277307   5.413   6.618   2.139 -0.7068 -0.4576 -0.1423
18631TIP3    H177308   5.370   6.704   2.147  0.2684  0.0399 -0.0538
18631TIP3    H277309   5.377   6.566   2.211 -0.4012  0.2931  0.5748
18632TIP3   OH277310   0.858   4.879  12.300 -0.3324  0.3704 -0.6223
18632TIP3    H177311   0.879   4.952  12.358 -1.0545  2.3745 -2.7028
18632TIP3    H277312   0.882   4.910  12.213  0.9889 -2.6167 -1.4466
18633TIP3   OH277313   2.802   6.223   0.021  0.0979 -0.3546  0.0195
18633TIP3    H177314   2.842   6.275  -0.048 -1.3024 -0.3477 -0.8323
18633TIP3    H277315   2.786   6.285   0.092  1.8934 -0.4407  0.5426
18634TIP3   OH277316   6.439   4.838   0.827 -0.1841 -0.5201  0.2592
18634TIP3    H177317   6.533   4.823   0.829 -0.3327 -1.4825  0.8485
18634TIP3    H277318   6.408   4.810   0.914 -0.9463  0.2408  0.2475
18635TIP3   OH277319   5.903   5.664   6.044 -0.3890  0.4027  0.0545
18635TIP3    H177320   5.838   5.642   5.977 -1.7199  0.6940  1.2260
18635TIP3    H277321   5.852   5.692   6.119  1.1295  1.5697  0.6956
18636TIP3   OH277322   4.437   4.301  14.758  0.1218 -0.1496 -0.4537
18636TIP3    H177323   4.517   4.250  14.743  0.3510  0.2884 -0.7554
18636TIP3    H277324   4.388   4.294  14.676  0.1306  0.0700 -0.4784
18637TIP3   OH277325   0.127   0.117  11.545  0.2754 -0.1053 -0.1851
18637TIP3    H177326   0.165   0.163  11.470 -0.5411 -1.0803 -1.2294
18637TIP3    H277327   0.201   0.075  11.587  0.9334  1.5394  0.3671
18638TIP3   OH277328   5.262   1.931  12.214 -0.0905  0.9951 -0.5209
18638TIP3    H177329   5.295   2.019  12.233 -1.3150  1.3893 -0.1712
18638TIP3    H277330   5.222   1.938  12.127 -0.9629  1.0048 -0.1236
18639TIP3   OH277331   3.467   1.917  16.271 -0.6213  0.4296  0.5420
18639TIP3    H177332   3.547   1.919  16.324 -0.2239 -3.4963  0.4121
18639TIP3    H277333   3.475   1.991  16.212  3.5108 -0.3514 -0.1641
18640TIP3   OH277334   0.048   4.206   0.217  0.1517  0.5665 -0.1089
18640TIP3    H177335  -0.032   4.254   0.238  0.4850  0.8241  0.6028
18640TIP3    H277336   0.034   4.175   0.127 -0.3851  1.3404 -0.3046
18641TIP3   OH277337   3.843   3.518   4.525 -0.2326  0.3816  0.1260
18641TIP3    H177338   3.903   3.589   4.547  1.5860 -0.7784 -0.8672
18641TIP3    H277339   3.883   3.439   4.561 -1.3174 -0.4051 -0.3135
18642TIP3   OH277340   1.471   1.110  16.656 -0.5092  0.9763 -0.7168
18642TIP3    H177341   1.435   1.033  16.701  0.9986  0.2140 -0.7086
18642TIP3    H277342   1.489   1.173  16.726  1.3464 -0.0061 -0.2260
18643TIP3   OH277343   0.234   3.150   0.723  0.1005 -0.5345 -0.0771
18643TIP3    H177344   0.179   3.101   0.783 -1.6999  1.3953 -0.0086
18643TIP3    H277345   0.225   3.104   0.639 -1.4295 -0.4588  0.0115
18644TIP3   OH277346   2.414   0.619   0.966 -0.3332 -0.1295  0.1115
18644TIP3    H177347   2.433   0.670   1.045 -0.6121 -0.8890  0.6757
18644TIP3    H277348   2.497   0.620   0.918  0.1428 -0.4920  0.8916
18645TIP3   OH277349   3.719   3.038  15.781  0.1098  0.8199 -0.4782
18645TIP3    H177350   3.790   3.049  15.718  1.1954 -0.1141  0.5574
18645TIP3    H277351   3.755   2.982  15.849 -1.8246 -0.2282 -0.2481
18646TIP3   OH277352   5.945   1.614   4.262  0.0845  0.4743 -0.7039
18646TIP3    H177353   5.889   1.566   4.201  0.7451  0.6374 -1.4516
18646TIP3    H277354   5.884   1.663   4.317 -0.5857 -0.8985 -0.1869
18647TIP3   OH277355   1.432   6.118  12.470 -0.2561 -0.2578  0.1793
18647TIP3    H177356   1.405   6.209  12.479  1.0542  0.1625  0.0587
18647TIP3    H277357   1.527   6.119  12.482  0.0819 -1.2895 -1.9386
18648TIP3   OH277358   5.737   3.395  11.521 -1.0400  0.0135 -0.0317
18648TIP3    H177359   5.681   3.331  11.566 -0.1592 -0.3754  0.5255
18648TIP3    H277360   5.724   3.376  11.428 -0.2825 -1.4414  0.1375
18649TIP3   OH277361   1.254   6.019  14.881 -0.5803  0.3408  0.2852
18649TIP3    H177362   1.330   6.009  14.825  0.9464  2.5294  1.8285
18649TIP3    H277363   1.251   5.937  14.931  2.1839  1.0089  1.7540
18650TIP3   OH277364   1.299   5.166   5.423  0.1074  0.7478 -0.1550
18650TIP3    H177365   1.312   5.142   5.331 -0.6078  0.6716 -0.2351
18650TIP3    H277366   1.235   5.103   5.456  0.4427  0.7061  0.4303
18651TIP3   OH277367   0.895   1.411  11.945  0.1073  0.2357  0.2504
18651TIP3    H177368   0.890   1.505  11.929 -0.2855  0.6827  2.5306
18651TIP3    H277369   0.829   1.395  12.013 -0.5112 -1.8761 -0.7712
18652TIP3   OH277370   5.294   2.611   5.677  0.3438 -0.0167  0.3196
18652TIP3    H177371   5.200   2.594   5.688  0.3681 -0.2682  0.1433
18652TIP3    H277372   5.337   2.554   5.741  0.3030  1.3995  1.6767
18653TIP3   OH277373   1.400   2.016  13.790  0.1082 -0.3310 -0.3896
18653TIP3    H177374   1.442   2.051  13.868 -1.3471 -0.8360  0.6702
18653TIP3    H277375   1.437   2.066  13.718  1.4077  0.2269  0.6270
18654TIP3   OH277376   2.536   0.219  16.647 -0.5408  0.1580  0.1698
18654TIP3    H177377   2.483   0.157  16.597 -2.0714  0.4325  1.4149
18654TIP3    H277378   2.536   0.299  16.593  0.6651 -0.5626 -0.9825
18655TIP3   OH277379   3.671   4.436  11.886 -0.5000  0.0343  0.6833
18655TIP3    H177380   3.709   4.510  11.838 -0.8462 -0.2707 -0.0741
18655TIP3    H277381   3.674   4.363  11.824 -1.4625 -0.2265  0.9175
18656TIP3   OH277382   2.630   2.736  12.364  0.1280 -0.1089 -0.2689
18656TIP3    H177383   2.705   2.680  12.346  0.2810 -0.1266  0.3830
18656TIP3    H277384   2.575   2.684  12.423 -0.7767 -0.3924 -1.3301
18657TIP3   OH277385   6.019   1.297   0.732  0.2074  0.3623  0.0995
18657TIP3    H177386   6.102   1.269   0.694  0.6270 -0.4768  1.5360
18657TIP3    H277387   5.952   1.247   0.685  0.7372 -0.9174  0.6619
18658TIP3   OH277388   3.851   6.356   2.533 -0.4826 -0.9222 -0.2647
18658TIP3    H177389   3.758   6.366   2.512 -0.2065 -1.4618 -1.8970
18658TIP3    H277390   3.856   6.272   2.580 -1.0091 -0.0695  1.4080
18659TIP3   OH277391   2.672   2.113   1.711 -0.0601 -0.9129 -0.1941
18659TIP3    H177392   2.632   2.165   1.641 -1.8240 -2.3993 -0.3527
18659TIP3    H277393   2.600   2.096   1.772  0.9742 -1.3939  0.9196
18660TIP3   OH277394   0.382   4.396  13.743  0.2169  0.5472  0.0371
18660TIP3    H177395   0.352   4.311  13.712 -0.5582  0.2605  1.5336
18660TIP3    H277396   0.475   4.383  13.765  0.7244  0.6954 -1.8232
18661TIP3   OH277397   2.797   3.249  15.587 -0.2357  0.0878 -0.2781
18661TIP3    H177398   2.792   3.218  15.497 -1.1082  1.2157 -0.6371
18661TIP3    H277399   2.878   3.300  15.591  1.0983 -1.9359  0.2620
18662TIP3   OH277400   1.678   3.780  10.887  0.3257 -0.1382 -0.8472
18662TIP3    H177401   1.723   3.702  10.920 -1.8293 -0.7166  1.0130
18662TIP3    H277402   1.611   3.746  10.828  0.0615  0.3715 -0.8509
18663TIP3   OH277403   5.208   6.243  13.600  0.3044 -0.6201  0.6722
18663TIP3    H177404   5.204   6.231  13.695 -0.8118 -4.6048  0.3334
18663TIP3    H277405   5.291   6.204  13.574  1.1856  1.5568  0.0392
18664TIP3   OH277406   5.974   6.628  17.190 -0.5335  0.1584 -0.2063
18664TIP3    H177407   6.004   6.716  17.167 -0.6730  0.5978  1.1787
18664TIP3    H277408   6.021   6.607  17.271 -1.5601 -0.4421  0.2589
18665TIP3   OH277409   5.124   0.764   0.640 -0.5041 -0.3448 -0.3549
18665TIP3    H177410   5.131   0.832   0.573  1.6699  0.8121  0.9165
18665TIP3    H277411   5.038   0.777   0.680 -0.5373  0.9974 -0.8338
18666TIP3   OH277412   2.961   6.649  12.390  0.2727  0.3299 -0.3277
18666TIP3    H177413   2.964   6.644  12.294  0.7384 -0.1791 -0.2877
18666TIP3    H277414   3.051   6.632  12.418  0.4942  2.0386  0.1410
18667TIP3   OH277415   5.926   1.812   1.680  0.0949 -0.4598  0.1272
18667TIP3    H177416   5.917   1.846   1.591  0.0208 -0.3046  0.1946
18667TIP3    H277417   5.893   1.882   1.736 -1.3240 -1.1500  0.2011
18668TIP3   OH277418   3.637   0.379  11.382 -0.2745 -0.3909 -0.5195
18668TIP3    H177419   3.619   0.397  11.474 -0.8369  1.0313 -0.8875
18668TIP3    H277420   3.696   0.303  11.383  0.4436  0.1573  1.0385
18669TIP3   OH277421   6.778   2.675   1.929  0.7801  0.0768 -0.0298
18669TIP3    H177422   6.706   2.682   1.991 -0.0878  2.1363 -1.1779
18669TIP3    H277423   6.845   2.735   1.962  1.5815 -1.0428  0.4626
18670TIP3   OH277424   0.412   6.010   3.798  0.4265  0.4377  0.6740
18670TIP3    H177425   0.344   5.955   3.837 -0.1183 -0.4382 -1.3895
18670TIP3    H277426   0.368   6.056   3.726  1.2351  2.4858  1.4140
18671TIP3   OH277427   3.419   5.195   5.669 -0.1287  0.6173  0.2155
18671TIP3    H177428   3.339   5.215   5.718  0.6882  0.6670  1.5849
18671TIP3    H277429   3.425   5.100   5.672 -0.5062  0.5663 -0.5139
18672TIP3   OH277430   3.509   3.498   0.538 -0.4271  0.4272 -0.3257
18672TIP3    H177431   3.520   3.508   0.632 -2.1558 -1.9629  0.2454
18672TIP3    H277432   3.440   3.560   0.515 -0.3404  0.6740  0.0731
18673TIP3   OH277433   4.087   3.648  15.924  0.1727 -0.2355 -0.1992
18673TIP3    H177434   4.176   3.677  15.946  0.6236 -0.7024 -1.3419
18673TIP3    H277435   4.073   3.679  15.835 -0.9030  0.0027  0.0336
18674TIP3   OH277436   4.864   0.266   2.269 -0.6093  0.0838 -0.2101
18674TIP3    H177437   4.871   0.361   2.259  0.2830 -0.0564 -1.0920
18674TIP3    H277438   4.771   0.250   2.285 -0.8073  1.0861 -0.3237
18675TIP3   OH277439   4.691   1.330   1.443 -0.0217  0.4862  0.0551
18675TIP3    H177440   4.609   1.375   1.461  0.6449  2.3679 -1.3305
18675TIP3    H277441   4.740   1.334   1.526 -0.4762  1.2269  0.2925
18676TIP3   OH277442   4.825   2.084  14.261 -0.3543 -0.3419 -0.0759
18676TIP3    H177443   4.855   2.011  14.315 -0.4962 -0.7537 -0.5465
18676TIP3    H277444   4.903   2.112  14.213 -0.1563  0.2262  0.5607
18677TIP3   OH277445   1.809   5.103  13.270 -0.2123  0.0030 -0.5430
18677TIP3    H177446   1.873   5.058  13.215  0.5848 -2.2703  2.0104
18677TIP3    H277447   1.755   5.153  13.209  2.7399  0.4453 -2.9780
18678TIP3   OH277448   2.029   2.083  11.894 -0.0423 -0.2667 -0.3869
18678TIP3    H177449   2.122   2.063  11.907 -0.2398 -2.2551 -1.6658
18678TIP3    H277450   2.021   2.175  11.918  2.3298  0.0584 -0.6071
18679TIP3   OH277451   4.217   0.722   5.905 -0.0639  0.1034 -0.3725
18679TIP3    H177452   4.179   0.765   5.829  1.7244  0.7972 -0.9234
18679TIP3    H277453   4.262   0.792   5.952 -1.7246 -0.1420  1.7946
18680TIP3   OH277454   2.765   3.179  15.027 -0.7451  0.3166  0.0762
18680TIP3    H177455   2.843   3.228  15.002 -0.9805  2.1287  2.4892
18680TIP3    H277456   2.697   3.246  15.038 -2.3337 -1.0787 -0.7176
18681TIP3   OH277457   5.358   5.783   5.506  0.4915  0.2384  0.5555
18681TIP3    H177458   5.323   5.848   5.445 -1.0977 -0.2121  0.9487
18681TIP3    H277459   5.390   5.835   5.580  1.1187  0.6921 -0.0290
18682TIP3   OH277460   4.049   3.690   6.117  0.0253  0.2752 -0.3778
18682TIP3    H177461   4.044   3.595   6.105  0.9923  0.2270 -0.5233
18682TIP3    H277462   4.073   3.702   6.208 -2.6188  0.4946  0.3729
18683TIP3   OH277463   0.823   5.808  12.816 -0.6704  0.0215 -0.0770
18683TIP3    H177464   0.821   5.733  12.877 -2.5469  0.3592  0.3242
18683TIP3    H277465   0.845   5.883  12.871  0.0069 -0.0323 -0.2643
18684TIP3   OH277466   0.576   6.321  15.170  0.3022 -0.1180 -0.6665
18684TIP3    H177467   0.565   6.371  15.251 -1.1705  1.3119 -1.6537
18684TIP3    H277468   0.609   6.236  15.198  2.6303  1.2574  1.1523
18685TIP3   OH277469   3.913   6.506   3.478 -0.0874  0.5352  0.5820
18685TIP3    H177470   3.918   6.410   3.481 -0.5396  0.5149  0.7451
18685TIP3    H277471   3.826   6.524   3.442  0.3772  0.8843 -0.3904
18686TIP3   OH277472   5.648   3.010  11.939 -0.0359 -0.0060  0.2444
18686TIP3    H177473   5.718   2.963  11.984 -0.2876  0.0090  0.6678
18686TIP3    H277474   5.664   3.102  11.959  0.2556  0.0618 -0.2915
18687TIP3   OH277475   2.856   0.568   1.872 -0.0786  0.1150 -0.0587
18687TIP3    H177476   2.926   0.632   1.860 -0.4868  0.7637  0.8607
18687TIP3    H277477   2.821   0.555   1.784  0.1346  1.0329 -0.2991
18688TIP3   OH277478   1.178   1.979   2.847 -0.2556 -0.6500 -0.0561
18688TIP3    H177479   1.189   2.024   2.930 -3.6424 -1.0679  0.7365
18688TIP3    H277480   1.176   1.886   2.870  0.9904 -0.9340 -0.9551
18689TIP3   OH277481   2.406   4.513   1.937  0.0367 -0.5810 -0.2189
18689TIP3    H177482   2.349   4.537   1.864 -1.1718 -1.3603  0.4301
18689TIP3    H277483   2.429   4.421   1.920  2.6652  0.2289 -1.4390
18690TIP3   OH277484   0.922   4.179  15.360 -0.1642 -0.0046  0.0236
18690TIP3    H177485   0.930   4.090  15.394  3.0184  0.0094 -0.3897
18690TIP3    H277486   0.859   4.221  15.418 -1.0860 -2.2531  0.7669
18691TIP3   OH277487   4.950   5.956   4.880  0.6761  0.3904 -0.0528
18691TIP3    H177488   4.900   6.037   4.894  1.1868  0.9448 -1.2712
18691TIP3    H277489   4.883   5.890   4.861  0.1475  0.1501  2.3625
18692TIP3   OH277490   6.635   3.914  15.598  0.2667 -0.2442 -0.3634
18692TIP3    H177491   6.554   3.885  15.558 -0.0614 -1.0328  0.8206
18692TIP3    H277492   6.647   4.004  15.567 -0.5335 -0.4553 -1.3187
18693TIP3   OH277493   5.994   2.423  10.345 -0.0126  0.4277  0.4688
18693TIP3    H177494   6.059   2.476  10.391  0.0942  0.4420  0.3041
18693TIP3    H277495   6.016   2.332  10.368  0.5921  0.3815 -0.2562
18694TIP3   OH277496   4.576   1.231  15.819 -0.2935  0.3698 -0.6351
18694TIP3    H177497   4.553   1.253  15.728 -0.7721 -1.8543 -1.1232
18694TIP3    H277498   4.492   1.232  15.865  0.0278  2.1358 -0.0122
18695TIP3   OH277499   3.880   6.547   3.776  0.3956 -0.2222 -0.3372
18695TIP3    H177500   3.925   6.571   3.696  2.1470 -1.4445  0.2357
18695TIP3    H277501   3.922   6.598   3.845  2.5102 -2.8981  0.5243
18696TIP3   OH277502   2.295   2.329   1.725 -0.3703 -0.4886 -0.1807
18696TIP3    H177503   2.297   2.411   1.675 -0.7588 -0.3794 -0.0198
18696TIP3    H277504   2.324   2.354   1.813 -1.4566 -0.3209  0.1467
18697TIP3   OH277505   0.582   0.944  15.037 -0.5303 -0.3500  0.7527
18697TIP3    H177506   0.515   0.905  15.092 -0.0635 -0.5159  1.2163
18697TIP3    H277507   0.652   0.968  15.098 -0.1795 -0.1624  0.2854
18698TIP3   OH277508   4.646   2.737  13.938 -0.8289  0.1791 -0.0447
18698TIP3    H177509   4.574   2.728  13.876 -0.9802  0.2717  0.1178
18698TIP3    H277510   4.720   2.692  13.896 -0.8524  0.4833 -0.4139
18699TIP3   OH277511   3.567   4.017   0.477 -0.2269  0.0970 -0.8105
18699TIP3    H177512   3.569   4.080   0.405 -0.0345 -0.0186 -0.9080
18699TIP3    H277513   3.479   3.979   0.474  0.1650 -0.7801 -1.7407
18700TIP3   OH277514   6.022   3.786   2.336 -0.1085 -0.7804  0.5905
18700TIP3    H177515   6.013   3.865   2.390  0.1047 -0.0919 -0.3498
18700TIP3    H277516   5.948   3.790   2.276  0.5017 -0.7156 -0.1759
18701TIP3   OH277517   1.865   1.701  14.740  0.6294  0.2814 -0.0315
18701TIP3    H177518   1.878   1.616  14.698  2.7685  0.1151  0.8607
18701TIP3    H277519   1.879   1.684  14.833  1.3510  1.6370  0.1345
18702TIP3   OH277520   4.197   4.049   1.854 -0.3428  0.6871  0.5327
18702TIP3    H177521   4.271   3.997   1.822 -1.2915 -0.1453 -0.4277
18702TIP3    H277522   4.205   4.133   1.809 -0.6651  0.1423 -0.6052
18703TIP3   OH277523   5.321   0.070   2.256  0.2316  0.1339 -0.5219
18703TIP3    H177524   5.242   0.110   2.219 -0.5641 -0.0866  0.8818
18703TIP3    H277525   5.292   0.029   2.337  1.4104 -1.7144 -0.9887
18704TIP3   OH277526   0.776   4.394  13.050  0.0989  0.0540 -0.3756
18704TIP3    H177527   0.770   4.320  12.991 -0.5023 -0.8156  0.7316
18704TIP3    H277528   0.799   4.355  13.135  1.5601  1.3120 -0.1507
18705TIP3   OH277529   1.201   6.579   0.399 -0.3035 -0.7484  0.2135
18705TIP3    H177530   1.246   6.580   0.314  0.8637 -0.3773  0.8196
18705TIP3    H277531   1.162   6.666   0.406  0.7613 -0.2946  0.6484
18706TIP3   OH277532   5.266   5.237  13.241 -0.2190  0.1105 -0.1440
18706TIP3    H177533   5.278   5.222  13.335 -0.7994  0.6580  0.0212
18706TIP3    H277534   5.325   5.309  13.220 -0.2355  0.1194 -0.1595
18707TIP3   OH277535   0.597   1.016   5.393 -0.5763  0.0953 -0.2930
18707TIP3    H177536   0.584   1.034   5.486 -0.4184  0.8372 -0.4103
18707TIP3    H277537   0.686   0.980   5.388 -0.9791 -0.9770 -0.0287
18708TIP3   OH277538   1.111   5.493   3.087  0.7702  0.2077 -0.5492
18708TIP3    H177539   1.162   5.465   3.163 -2.1560 -0.5396  1.3483
18708TIP3    H277540   1.158   5.569   3.053  3.9297 -1.3623 -0.0514
18709TIP3   OH277541   1.774   6.152  12.026  0.0005  0.9120  0.3035
18709TIP3    H177542   1.726   6.137  11.944  0.8558  0.0543 -0.0695
18709TIP3    H277543   1.724   6.103  12.092  0.7787 -0.6715 -0.2364
18710TIP3   OH277544   5.767   4.622   4.828  0.2585 -0.4114 -0.3465
18710TIP3    H177545   5.713   4.555   4.784  1.0378 -1.7542  0.6578
18710TIP3    H277546   5.854   4.611   4.791  0.5910 -0.5697  0.4577
18711TIP3   OH277547   0.801   0.438   3.397  0.3610  0.3060 -0.1488
18711TIP3    H177548   0.843   0.459   3.480 -0.1905  0.6344  0.0574
18711TIP3    H277549   0.871   0.441   3.333  0.6166  1.1031  0.1487
18712TIP3   OH277550   4.110   1.654   0.215 -0.3763  0.2763  0.0959
18712TIP3    H177551   4.078   1.678   0.128  1.8159  0.5449 -0.6859
18712TIP3    H277552   4.107   1.737   0.265 -2.4442 -0.0419  0.6299
18713TIP3   OH277553   1.927   1.933   0.609  0.5820 -0.5424  0.1973
18713TIP3    H177554   2.005   1.919   0.662  0.8549 -0.0877 -0.0768
18713TIP3    H277555   1.882   2.007   0.650  0.8380 -0.1359 -0.2488
18714TIP3   OH277556   1.660   0.767   0.837  0.3107 -0.6475  0.6767
18714TIP3    H177557   1.602   0.819   0.781 -4.7808 -3.4737  2.6046
18714TIP3    H277558   1.670   0.820   0.916 -1.5978 -0.8984  1.1339
18715TIP3   OH277559   5.798   6.391  10.630  0.0935  0.2930  0.1990
18715TIP3    H177560   5.703   6.390  10.622  0.1707  0.1965 -0.7622
18715TIP3    H277561   5.826   6.469  10.581  0.5944 -0.3549 -0.5626
18716TIP3   OH277562   1.764   2.178  17.067  0.2420  0.5489 -0.0225
18716TIP3    H177563   1.786   2.194  16.975 -0.6421 -0.6847 -0.4739
18716TIP3    H277564   1.708   2.101  17.065  0.2431  0.4802  1.5715
18717TIP3   OH277565   1.371   3.962   1.634  0.2775  0.4375 -0.6931
18717TIP3    H177566   1.459   3.925   1.633  1.0872  2.0983 -3.5854
18717TIP3    H277567   1.329   3.925   1.556 -0.4624  2.0767 -1.1060
18718TIP3   OH277568   4.880   2.608  13.810 -0.3889  0.3543 -0.0961
18718TIP3    H177569   4.904   2.688  13.763  0.1886  0.9930  1.2126
18718TIP3    H277570   4.874   2.541  13.743 -1.1284  1.5470 -1.2648
18719TIP3   OH277571   3.034   3.306  16.806 -0.1039  0.6583 -0.3929
18719TIP3    H177572   3.033   3.293  16.901  0.1599  0.2223 -0.4499
18719TIP3    H277573   3.109   3.256  16.776 -1.6151 -1.3327 -1.1218
18720TIP3   OH277574   3.200   6.483  12.460  0.2470 -0.1348 -0.2012
18720TIP3    H177575   3.135   6.414  12.474 -1.6569  1.4942 -0.5708
18720TIP3    H277576   3.282   6.444  12.488 -0.9315 -2.1823  0.6471
18721TIP3   OH277577   2.059   3.375  10.919  0.5585  0.6300  0.0605
18721TIP3    H177578   2.135   3.360  10.862 -0.0389 -2.2752 -0.1338
18721TIP3    H277579   2.061   3.303  10.982 -0.9735  1.5819  1.2784
18722TIP3   OH277580   2.238   6.175  13.680 -0.0044 -0.2093 -0.5128
18722TIP3    H177581   2.308   6.110  13.688  0.3757  0.3645  1.2537
18722TIP3    H277582   2.171   6.146  13.741  0.6491  1.5883  1.1429
18723TIP3   OH277583   0.050   4.342  11.211 -0.0593 -0.1340  0.1706
18723TIP3    H177584   0.082   4.419  11.164 -0.7498 -0.8667 -1.5694
18723TIP3    H277585  -0.022   4.376  11.265  0.1847  0.5697  0.0715
18724TIP3   OH277586   0.661   3.169   2.728 -0.0933  0.4105  0.1664
18724TIP3    H177587   0.649   3.159   2.633 -0.8399  1.2831  0.1529
18724TIP3    H277588   0.713   3.093   2.754 -1.7673 -1.0685 -0.5967
18725TIP3   OH277589   2.067   2.782   1.085  0.3466 -0.2051 -0.2480
18725TIP3    H177590   2.152   2.738   1.080 -0.5612 -2.4342  1.8978
18725TIP3    H277591   2.062   2.815   1.174  0.1731  2.7928 -1.2607
18726TIP3   OH277592   5.944   4.427  10.459 -0.1676 -0.5058 -0.7077
18726TIP3    H177593   5.865   4.481  10.463  1.0935  1.4602 -0.7024
18726TIP3    H277594   5.991   4.460  10.382  1.7799  0.0944  0.6714
18727TIP3   OH277595   6.693   0.146   1.561 -0.3230  0.6283  0.1310
18727TIP3    H177596   6.751   0.222   1.568 -1.3079  1.3036  1.4648
18727TIP3    H277597   6.672   0.141   1.468  1.2327  0.8305 -0.2625
18728TIP3   OH277598   0.649   5.064  14.791 -0.6952  0.9376 -0.0563
18728TIP3    H177599   0.676   4.988  14.842  1.4808  0.4538 -1.7402
18728TIP3    H277600   0.649   5.137  14.853  1.9962  0.4022  0.6912
18729TIP3   OH277601   0.809   3.405   4.661  0.0558  0.2148 -0.3769
18729TIP3    H177602   0.729   3.385   4.709 -0.5765  1.5846 -0.7874
18729TIP3    H277603   0.862   3.456   4.723  0.6576 -0.7584 -0.0794
18730TIP3   OH277604   3.293   3.351  12.280  0.1173 -0.0959  0.3025
18730TIP3    H177605   3.303   3.350  12.376  2.0790 -1.0808  0.1242
18730TIP3    H277606   3.381   3.365  12.246 -0.0970 -2.2846 -1.3826
18731TIP3   OH277607   0.183   2.026  16.087  0.6018 -0.5242  0.0529
18731TIP3    H177608   0.179   1.998  15.996 -0.8811 -1.4108  0.3623
18731TIP3    H277609   0.246   2.098  16.088 -0.0541  0.1099 -1.8136
18732TIP3   OH277610   4.515   3.368   4.414  0.1572 -0.2112 -0.2789
18732TIP3    H177611   4.429   3.334   4.437 -0.8557  0.8318 -2.2336
18732TIP3    H277612   4.551   3.402   4.496 -1.3935 -0.4221  0.5199
18733TIP3   OH277613   5.114   1.580  16.965 -0.1779 -0.2822  0.4657
18733TIP3    H177614   5.026   1.591  17.003  0.4655  0.7085  1.7507
18733TIP3    H277615   5.098   1.556  16.874 -1.7926  0.4004  0.5377
18734TIP3   OH277616   4.040   2.492  14.820  0.3050  0.3299  0.0059
18734TIP3    H177617   4.057   2.453  14.735  2.1501 -0.4560  0.6970
18734TIP3    H277618   4.095   2.444  14.881 -2.6184 -0.6827  2.0894
18735TIP3   OH277619   2.679   0.707  13.276  0.1177 -0.5441 -0.5483
18735TIP3    H177620   2.647   0.745  13.194  1.8933 -1.5558 -1.7809
18735TIP3    H277621   2.747   0.767  13.306  1.0052 -1.2856 -1.0268
18736TIP3   OH277622   0.145   2.308  12.441  0.0033 -0.3408  0.0852
18736TIP3    H177623   0.231   2.334  12.409 -0.1334  0.0973  0.0665
18736TIP3    H277624   0.102   2.269  12.365  0.6205 -1.6882  0.3907
18737TIP3   OH277625   6.663   3.098  12.045  0.2648  0.6656 -0.4169
18737TIP3    H177626   6.641   3.007  12.065  0.1025  0.9029  0.5095
18737TIP3    H277627   6.679   3.138  12.130 -0.3743  1.6921 -0.7630
18738TIP3   OH277628   5.653   5.925   3.095  0.0088  0.7244 -0.0165
18738TIP3    H177629   5.653   5.844   3.145 -0.6276 -0.4186 -1.7728
18738TIP3    H277630   5.695   5.989   3.152  1.8816 -1.1769  0.8487
18739TIP3   OH277631   1.412   0.506  16.408  0.6209 -0.2678  0.3301
18739TIP3    H177632   1.441   0.415  16.399 -0.3571 -0.5607  0.1053
18739TIP3    H277633   1.401   0.519  16.502 -1.8223 -1.2178  0.2218
18740TIP3   OH277634   5.002   2.728  12.160  0.1886  0.0981  0.0291
18740TIP3    H177635   4.979   2.761  12.247  0.3482  0.3314 -0.0164
18740TIP3    H277636   4.929   2.752  12.104  0.7261  1.2275 -0.2126
18741TIP3   OH277637   5.028   2.147  12.720 -0.5865 -0.0991  0.1867
18741TIP3    H177638   5.010   2.235  12.686  0.4126  1.0321  2.3496
18741TIP3    H277639   5.073   2.163  12.803 -1.0648 -2.6833  1.0158
18742TIP3   OH277640   2.149   0.329   1.940  0.1404  0.0686 -0.0828
18742TIP3    H177641   2.129   0.353   2.031  1.6557  0.1713  0.2480
18742TIP3    H277642   2.244   0.337   1.933  0.1965 -1.2265 -1.3162
18743TIP3   OH277643   4.258   4.450   2.359 -0.1911  0.0366 -0.1250
18743TIP3    H177644   4.254   4.360   2.326 -0.2043 -0.2115  0.5467
18743TIP3    H277645   4.319   4.446   2.432 -2.5875 -0.0851  1.9928
18744TIP3   OH277646   5.250   4.060   5.862 -0.8980 -0.0694 -0.2141
18744TIP3    H177647   5.154   4.065   5.867 -0.8649 -0.5975  3.9716
18744TIP3    H277648   5.277   4.018   5.944  3.0030  0.7441 -0.8778
18745TIP3   OH277649   5.097   3.503  16.196 -0.1121 -0.2851  0.5470
18745TIP3    H177650   5.104   3.497  16.101  2.3043 -4.2875  0.7330
18745TIP3    H277651   5.167   3.562  16.222 -1.1037  1.2299 -0.1085
18746TIP3   OH277652   6.059   1.871   2.614 -0.2437 -0.6576  0.0020
18746TIP3    H177653   5.995   1.800   2.621 -0.3556 -0.5381  0.2034
18746TIP3    H277654   6.039   1.928   2.687  0.7440 -1.1415  0.6757
18747TIP3   OH277655   6.505   4.770  13.962 -0.0363 -0.1451  0.1825
18747TIP3    H177656   6.541   4.855  13.986  0.0021 -0.0553 -0.1751
18747TIP3    H277657   6.490   4.777  13.867  0.8659 -0.8648 -0.0251
18748TIP3   OH277658   2.971   2.330   2.625 -0.2344  0.1714 -0.1297
18748TIP3    H177659   3.059   2.292   2.634 -0.7253 -0.7590  1.0378
18748TIP3    H277660   2.936   2.330   2.714 -0.9296  1.7884 -0.3660
18749TIP3   OH277661   5.136   6.790  16.651  0.0467  0.1427 -0.2876
18749TIP3    H177662   5.168   6.708  16.687  0.0058  0.2803  0.0686
18749TIP3    H277663   5.062   6.814  16.707  0.8203  1.0446  0.3865
18750TIP3   OH277664   6.591   5.643   2.706  0.4113 -0.3223 -0.4676
18750TIP3    H177665   6.678   5.662   2.740 -0.3659  0.2824  1.2801
18750TIP3    H277666   6.536   5.633   2.784 -1.1444 -0.3973 -1.5275
18751TIP3   OH277667   2.434   3.655   2.539 -0.5164  0.2672  0.2230
18751TIP3    H177668   2.447   3.579   2.596 -0.2860  1.1189  1.3394
18751TIP3    H277669   2.523   3.678   2.510 -0.3895  1.0313  1.1475
18752TIP3   OH277670   1.457   0.375  16.664 -0.0413 -1.1235 -0.0121
18752TIP3    H177671   1.367   0.345  16.655 -0.3195 -0.0908 -0.9930
18752TIP3    H277672   1.509   0.309  16.619 -0.4881 -0.9070 -0.8676
18753TIP3   OH277673   3.003   1.950   2.845  0.4654 -0.2434 -0.7914
18753TIP3    H177674   2.974   1.878   2.900  0.8796 -0.9140 -1.4366
18753TIP3    H277675   2.922   1.993   2.816  0.2302 -0.2709 -0.1784
18754TIP3   OH277676   0.374   3.097  11.178  0.3333  0.3381 -0.5667
18754TIP3    H177677   0.455   3.136  11.143 -0.1081  0.7738 -1.1187
18754TIP3    H277678   0.373   3.008  11.143  1.3929 -0.2267  0.7678
18755TIP3   OH277679   2.123   6.148  14.459  0.2182 -0.2095 -0.0696
18755TIP3    H177680   2.041   6.098  14.463 -0.4482  0.8329 -0.1897
18755TIP3    H277681   2.107   6.223  14.515  0.5271  0.7968 -1.2910
18756TIP3   OH277682   5.100   6.020   5.642  0.6942 -0.3760  0.3663
18756TIP3    H177683   5.089   5.978   5.728  0.6718  3.0170  2.2333
18756TIP3    H277684   5.011   6.025   5.606  0.1232  1.1981  1.8443
18757TIP3   OH277685   2.088   0.588  11.776  0.3312  0.2169  0.4066
18757TIP3    H177686   2.171   0.568  11.819  1.6211  0.3779 -1.8029
18757TIP3    H277687   2.060   0.505  11.738 -0.4863  0.1927  1.0372
18758TIP3   OH277688   2.104   1.382  12.318 -0.3471  0.0858 -0.1252
18758TIP3    H177689   2.115   1.291  12.291  0.5197  0.8880 -2.7762
18758TIP3    H277690   2.076   1.377  12.410 -0.0879 -2.8088 -0.1246
18759TIP3   OH277691   0.313   2.009   5.155 -0.1583 -0.2315 -0.3327
18759TIP3    H177692   0.218   2.003   5.144 -0.2860  0.7235  0.1693
18759TIP3    H277693   0.334   1.935   5.213 -0.6888 -0.0666  0.0860
18760TIP3   OH277694   0.694   4.905   0.272 -0.4518  0.3810 -0.3352
18760TIP3    H177695   0.755   4.972   0.303 -0.9192  0.1363  1.1990
18760TIP3    H277696   0.699   4.910   0.177  1.8801  0.4408 -0.2769
18761TIP3   OH277697   4.386   6.679   0.106 -0.0979 -0.7033 -0.8902
18761TIP3    H177698   4.389   6.771   0.131 -0.6554 -0.9819  0.2891
18761TIP3    H277699   4.297   6.667   0.072 -0.5493 -1.1313  0.3867
18762TIP3   OH277700   1.906   6.533  12.111  0.4857 -0.2283  0.3651
18762TIP3    H177701   1.912   6.475  12.035  1.3008 -1.2570  1.1697
18762TIP3    H277702   1.954   6.486  12.180  2.4796  2.0589  0.6677
18763TIP3   OH277703   0.110   1.094   5.017  0.2268 -0.1352  0.2123
18763TIP3    H177704   0.132   1.082   5.110 -0.2087  0.8510  0.4549
18763TIP3    H277705   0.186   1.140   4.981  1.1721 -2.0281 -0.3439
18764TIP3   OH277706   2.998   6.647   0.273 -0.2806  0.1154 -0.0147
18764TIP3    H177707   3.093   6.637   0.267 -0.2984 -0.5362  0.6255
18764TIP3    H277708   2.980   6.648   0.367 -0.9453 -0.1842 -0.1352
18765TIP3   OH277709   4.938   0.902  15.076 -0.0472  0.0193  0.3268
18765TIP3    H177710   4.860   0.943  15.040 -0.1284  0.4308  0.9469
18765TIP3    H277711   4.907   0.859  15.156  0.5374  1.0991  1.1688
18766TIP3   OH277712   2.819   2.180   0.156  0.0646 -0.3126 -0.0169
18766TIP3    H177713   2.882   2.248   0.133 -1.0868  0.8751  0.1886
18766TIP3    H277714   2.745   2.196   0.098 -0.5424 -0.8989  0.5768
18767TIP3   OH277715   2.308   3.223   5.082 -0.4872 -0.1185  0.2479
18767TIP3    H177716   2.243   3.168   5.039  0.9437 -2.1335  0.5239
18767TIP3    H277717   2.313   3.190   5.172  0.6555  0.2288  0.3350
18768TIP3   OH277718   3.745   1.773  14.851  0.4686 -0.2742 -0.1120
18768TIP3    H177719   3.668   1.720  14.872  0.1543  0.3927  0.4830
18768TIP3    H277720   3.816   1.710  14.841 -0.2136 -0.9209 -0.9817
18769TIP3   OH277721   0.800   3.665  11.732 -0.3850 -0.9772  1.0142
18769TIP3    H177722   0.892   3.669  11.708 -0.6548 -1.2583 -0.1336
18769TIP3    H277723   0.785   3.743  11.786  0.2061 -0.1668  0.0437
18770TIP3   OH277724   5.394   5.032   3.210 -0.0372 -0.0341  0.1623
18770TIP3    H177725   5.489   5.028   3.219  0.3042 -0.2558 -2.7059
18770TIP3    H277726   5.375   5.124   3.193 -0.4095  0.0699  1.0639
18771TIP3   OH277727   1.385   0.852   4.768  0.6291 -0.6038  0.1827
18771TIP3    H177728   1.308   0.864   4.711  1.3832  1.9539 -0.4447
18771TIP3    H277729   1.363   0.777   4.822 -2.0676 -0.3392 -0.3879
18772TIP3   OH277730   0.950   1.067   5.288  0.7649 -0.0510  0.5776
18772TIP3    H177731   0.947   1.088   5.381 -0.6418 -0.5411  0.6633
18772TIP3    H277732   0.907   0.981   5.281 -0.0750  0.4402 -0.6369
18773TIP3   OH277733   6.566   1.702  16.631 -0.0028  0.4481 -0.7267
18773TIP3    H177734   6.642   1.716  16.574  1.0733 -0.6958  0.3489
18773TIP3    H277735   6.590   1.744  16.713 -1.3826  1.7446 -0.9470
18774TIP3   OH277736   5.440   4.762   3.038 -0.1693 -0.1173 -0.0208
18774TIP3    H177737   5.427   4.812   3.119  1.1825  0.1109  0.0825
18774TIP3    H277738   5.352   4.750   3.003 -0.8028 -0.3380  1.5515
18775TIP3   OH277739   4.036   1.798   5.110 -0.6935  0.4682  0.1501
18775TIP3    H177740   3.941   1.800   5.101 -0.4918  1.2265 -3.5522
18775TIP3    H277741   4.061   1.710   5.082 -0.2658  0.1222  1.5242
18776TIP3   OH277742   5.595   2.354  16.437  0.1600  0.3129  0.1044
18776TIP3    H177743   5.551   2.392  16.513 -1.7289  1.7094 -1.5732
18776TIP3    H277744   5.582   2.260  16.446 -0.4677  0.5010  1.2620
18777TIP3   OH277745   3.054   2.780  15.352 -0.2475 -0.1442 -0.3874
18777TIP3    H177746   2.999   2.788  15.431  0.1405 -1.3564  0.0312
18777TIP3    H277747   3.090   2.867  15.340 -2.3362  0.7456 -0.7453
18778TIP3   OH277748   1.099   1.617   3.612  0.1384  0.1340  0.1837
18778TIP3    H177749   1.042   1.593   3.538  0.6448 -0.6418  0.0327
18778TIP3    H277750   1.150   1.538   3.628  2.3276  1.2953 -0.7320
18779TIP3   OH277751   2.688   5.653   1.321 -0.3845  0.1718 -0.0300
18779TIP3    H177752   2.763   5.596   1.340 -1.5253 -1.5949 -0.5534
18779TIP3    H277753   2.682   5.711   1.396  2.5042  1.5233 -0.7246
18780TIP3   OH277754   3.891   5.608  14.708 -0.3009 -0.1513 -0.1972
18780TIP3    H177755   3.941   5.540  14.663 -0.9825  0.2457 -1.6129
18780TIP3    H277756   3.861   5.566  14.789 -0.0055 -1.2586 -0.6436
18781TIP3   OH277757   4.466   2.310  16.725  0.0648  0.3699 -0.1886
18781TIP3    H177758   4.445   2.341  16.637 -2.1626  0.1277  0.1919
18781TIP3    H277759   4.556   2.339  16.741  0.7465 -0.1315 -2.7670
18782TIP3   OH277760   1.166   0.160  13.737  0.2093 -0.2738 -0.0751
18782TIP3    H177761   1.223   0.096  13.695 -0.6269  0.1268 -1.8924
18782TIP3    H277762   1.131   0.114  13.814 -1.6932 -2.7025 -2.2282
18783TIP3   OH277763   0.680   2.299  14.620 -0.5026  0.1603  0.2801
18783TIP3    H177764   0.590   2.324  14.641 -0.5740 -0.0071  0.1732
18783TIP3    H277765   0.673   2.252  14.537 -0.1571  1.2417 -0.3718
18784TIP3   OH277766   2.636   5.171  14.560  0.1837  0.0391 -0.5852
18784TIP3    H177767   2.640   5.077  14.541 -0.7759 -0.2890  0.6653
18784TIP3    H277768   2.573   5.206  14.497 -0.0781 -0.3047 -0.5152
18785TIP3   OH277769   5.088   2.140   3.677  0.8131  0.3826  0.3719
18785TIP3    H177770   5.136   2.166   3.598  1.8118  0.5286  1.0098
18785TIP3    H277771   5.142   2.072   3.716 -0.8527 -1.4344 -0.3008
18786TIP3   OH277772   1.369   5.838  11.402 -0.5028  0.1552  0.0285
18786TIP3    H177773   1.365   5.841  11.306 -2.2027  0.9347  0.0835
18786TIP3    H277774   1.463   5.837  11.422 -0.1050  0.9109 -1.6247
18787TIP3   OH277775   1.627   3.762   1.970 -0.6103 -0.7464  0.4933
18787TIP3    H177776   1.700   3.822   1.958 -0.8341 -0.3665  0.9862
18787TIP3    H277777   1.549   3.812   1.946 -0.7110 -1.1716 -0.1009
18788TIP3   OH277778   4.044   0.974   1.263  0.0010 -0.0101 -0.1784
18788TIP3    H177779   3.982   0.973   1.336  0.6153 -3.9497  0.5444
18788TIP3    H277780   3.994   0.944   1.188  0.5089 -1.2237 -0.0588
18789TIP3   OH277781   1.535   1.543  15.680 -0.3093  0.2594  0.1853
18789TIP3    H177782   1.579   1.463  15.711 -0.0792  0.2529 -0.1551
18789TIP3    H277783   1.598   1.613  15.699  0.1408  0.1715 -0.9045
18790TIP3   OH277784   6.566   4.249  16.216 -0.1621  0.0896 -0.3273
18790TIP3    H177785   6.560   4.334  16.172  0.1993 -0.3039 -1.1590
18790TIP3    H277786   6.647   4.211  16.183 -1.3984 -1.5180 -1.6916
18791TIP3   OH277787   4.950   5.772  11.483 -0.0309  0.1493 -0.6317
18791TIP3    H177788   4.931   5.699  11.424 -0.6974  1.1699 -1.7310
18791TIP3    H277789   4.978   5.731  11.565 -0.3322 -1.3237 -1.2452
18792TIP3   OH277790   1.334   0.626  13.512 -0.1995  0.5915 -0.5564
18792TIP3    H177791   1.303   0.558  13.572 -1.1291  0.4898 -1.1412
18792TIP3    H277792   1.428   0.633  13.531 -0.7052  1.7434  2.1320
18793TIP3   OH277793   0.028   4.317   2.950  0.1743  0.0077 -0.0419
18793TIP3    H177794  -0.049   4.314   3.007 -0.3253  0.2033 -0.6914
18793TIP3    H277795   0.088   4.377   2.994  0.0700 -0.3483  0.6019
18794TIP3   OH277796   4.288   2.178   2.344 -0.3484  0.1073 -0.3843
18794TIP3    H177797   4.268   2.129   2.424  1.3102  0.5160  0.3157
18794TIP3    H277798   4.217   2.241   2.336 -1.9407 -1.6122 -0.6952
18795TIP3   OH277799   1.536   5.263  13.168  0.0058  0.1692 -0.3987
18795TIP3    H177800   1.452   5.307  13.154 -0.2680  0.2553  1.2582
18795TIP3    H277801   1.600   5.333  13.177 -0.2080  0.2142  0.9346
18796TIP3   OH277802   3.316   0.120   3.720 -0.0147 -0.5079 -0.0805
18796TIP3    H177803   3.319   0.061   3.645  0.5180 -1.6257  0.7840
18796TIP3    H277804   3.398   0.105   3.766  0.9014  2.1413 -0.6881
18797TIP3   OH277805   5.389   4.791  13.461  0.3508  0.0818  0.4347
18797TIP3    H177806   5.474   4.824  13.492  1.0913 -1.4090  0.0606
18797TIP3    H277807   5.351   4.749  13.538  1.1797 -1.6062 -0.0183
18798TIP3   OH277808   4.523   3.846   4.286 -0.5905  0.0031 -0.0834
18798TIP3    H177809   4.540   3.778   4.351  1.0182 -1.6579 -2.1056
18798TIP3    H277810   4.450   3.812   4.234 -2.1591  1.5139  1.0316
18799TIP3   OH277811   3.990   4.225  13.103  0.5723  0.1754  0.6532
18799TIP3    H177812   3.988   4.320  13.092 -1.1774  0.3260  1.9178
18799TIP3    H277813   3.965   4.190  13.018  0.0575  0.8850  0.5068
18800TIP3   OH277814   3.963   0.753   5.670 -0.2261  0.4291  0.3647
18800TIP3    H177815   4.052   0.786   5.663 -0.6062  1.1912 -1.1733
18800TIP3    H277816   3.951   0.698   5.592 -0.4760 -1.2991  1.5471
18801TIP3   OH277817   5.986   6.316   2.794 -0.6830 -0.0972  0.1514
18801TIP3    H177818   5.940   6.395   2.822 -0.6816 -0.2306  0.5298
18801TIP3    H277819   5.952   6.299   2.705 -0.5564  0.4188  0.0025
18802TIP3   OH277820   1.174   3.889  11.144 -0.4419  0.0091 -0.6884
18802TIP3    H177821   1.184   3.949  11.217 -1.2164 -3.0153  2.1828
18802TIP3    H277822   1.261   3.881  11.106  0.1125  1.2368  0.2745
18803TIP3   OH277823   5.093   1.233  13.478  0.1588 -0.0003  0.4214
18803TIP3    H177824   5.040   1.273  13.546 -0.4259  1.8302 -1.0239
18803TIP3    H277825   5.181   1.229  13.516 -0.2949  0.3079  1.5439
18804TIP3   OH277826   5.513   1.175   6.403  0.7227  0.0799 -0.0540
18804TIP3    H177827   5.431   1.204   6.441 -0.4785 -0.9390 -1.7445
18804TIP3    H277828   5.544   1.105   6.461  0.7302  0.8690  0.9103
18805TIP3   OH277829   1.993   3.810   5.093 -0.3386 -0.3581  0.2662
18805TIP3    H177830   1.897   3.807   5.099 -0.4422  0.6425 -0.6952
18805TIP3    H277831   2.020   3.856   5.173 -0.7065 -0.0107  0.1932
18806TIP3   OH277832   6.473   4.612  13.528 -0.8654  0.4090  0.4275
18806TIP3    H177833   6.519   4.654  13.455 -0.3906 -0.7279  0.0568
18806TIP3    H277834   6.431   4.535  13.490 -1.0571  0.0927  1.2493
18807TIP3   OH277835   2.764   3.546  12.671  0.1410 -0.5243  0.2318
18807TIP3    H177836   2.798   3.613  12.731  1.0329  1.6175 -2.4347
18807TIP3    H277837   2.672   3.569  12.660 -0.1957 -1.3417  1.2735
18808TIP3   OH277838   0.596   2.826   1.733  0.4644  0.1151  0.0458
18808TIP3    H177839   0.546   2.749   1.760 -1.4580  1.5132  0.7306
18808TIP3    H277840   0.640   2.856   1.812  0.0213  0.5255  0.1465
18809TIP3   OH277841   1.895   6.516   0.412 -0.3386 -0.3764 -0.1620
18809TIP3    H177842   1.943   6.535   0.331 -1.3099 -0.0403 -0.6744
18809TIP3    H277843   1.941   6.441   0.450  0.3325 -0.3324 -0.8536
18810TIP3   OH277844   5.844   1.833  11.342  0.0646  0.3800  0.1962
18810TIP3    H177845   5.939   1.843  11.349  0.0714  0.4669 -0.0272
18810TIP3    H277846   5.831   1.782  11.261 -0.0420 -0.1902  0.5665
18811TIP3   OH277847   5.475   1.837   2.410  0.1499 -0.1936 -0.1880
18811TIP3    H177848   5.422   1.816   2.487 -0.7001  3.6886  0.4917
18811TIP3    H277849   5.420   1.811   2.336  0.3560 -2.6036  0.4144
18812TIP3   OH277850   3.295   1.392   0.849  0.4335  0.0221  0.0344
18812TIP3    H177851   3.278   1.462   0.911 -0.7475 -2.1774  2.4061
18812TIP3    H277852   3.286   1.433   0.763 -0.3686  2.6919  1.2840
18813TIP3   OH277853   5.257   6.744   0.848  0.5689 -0.0317  0.3920
18813TIP3    H177854   5.188   6.761   0.784  0.3077 -1.4771  0.2631
18813TIP3    H277855   5.337   6.736   0.796  0.2854 -1.6587  0.1631
18814TIP3   OH277856   2.512   5.477   6.853  0.2757 -0.1538  0.4136
18814TIP3    H177857   2.561   5.422   6.791 -2.4112 -2.0801 -0.1780
18814TIP3    H277858   2.459   5.416   6.903 -2.2673  1.8185  0.3147
18815TIP3   OH277859   3.843   6.342  12.901  0.0123 -0.5711  0.5893
18815TIP3    H177860   3.918   6.325  12.845 -0.7647 -1.5434 -0.1915
18815TIP3    H277861   3.815   6.256  12.932 -1.4439 -0.3490 -0.0258
18816TIP3   OH277862   0.774   2.241   3.806 -0.0498  0.1358 -0.1101
18816TIP3    H177863   0.705   2.232   3.741  0.0241 -1.2896 -0.0148
18816TIP3    H277864   0.855   2.221   3.758  0.0169 -0.7936  0.3617
18817TIP3   OH277865   0.051   0.944   0.046  0.4140  0.2977 -0.3232
18817TIP3    H177866   0.032   1.033   0.018  2.1115  1.2530  1.3556
18817TIP3    H277867  -0.035   0.907   0.066 -0.1964  2.5945  1.7851
18818TIP3   OH277868   5.470   5.915   5.112 -0.5506  0.0531  0.1371
18818TIP3    H177869   5.405   5.931   5.181 -0.6110  2.3948 -0.3612
18818TIP3    H277870   5.527   5.846   5.147 -3.1851 -2.0074  0.6249
18819TIP3   OH277871   5.827   1.686  13.716 -0.6367  0.8822 -0.0997
18819TIP3    H177872   5.876   1.617  13.760 -0.7160  0.1572 -1.1000
18819TIP3    H277873   5.844   1.765  13.767  0.8638  0.4752  0.0664
18820TIP3   OH277874   4.346   2.022   1.150  0.2384 -0.0576 -0.5823
18820TIP3    H177875   4.290   1.957   1.192  0.2699  0.8692  0.9979
18820TIP3    H277876   4.341   2.002   1.057  0.3319 -2.3670 -0.1559
18821TIP3   OH277877   0.121   1.105  13.837  0.5168  0.3097  0.1106
18821TIP3    H177878   0.089   1.110  13.746  3.0743  1.4517 -0.8210
18821TIP3    H277879   0.112   1.194  13.870  3.0124  0.8259 -0.3813
18822TIP3   OH277880   5.157   2.234  12.935  0.0434 -0.0750  0.5127
18822TIP3    H177881   5.139   2.180  13.012  3.0214 -1.6004  0.2535
18822TIP3    H277882   5.245   2.269  12.949 -0.1245  1.2503 -1.3243
18823TIP3   OH277883   6.707   0.252  15.342 -0.5138  0.4993  0.5793
18823TIP3    H177884   6.675   0.248  15.251 -1.7772  1.0179  0.9714
18823TIP3    H277885   6.692   0.163  15.376 -0.6895  0.4889  0.4805
18824TIP3   OH277886   2.615   6.545  15.900  0.1556 -0.3756 -0.1295
18824TIP3    H177887   2.601   6.496  15.819 -2.0791 -0.5281  0.3060
18824TIP3    H277888   2.573   6.630  15.884  0.1267 -0.2291  0.7000
18825TIP3   OH277889   0.547   1.794  13.198 -0.0405  0.4055 -0.6760
18825TIP3    H177890   0.593   1.725  13.245 -0.2328 -0.4091 -1.6525
18825TIP3    H277891   0.572   1.782  13.106 -0.4391  1.3496 -0.9270
18826TIP3   OH277892   4.829   2.470  14.682  0.1861 -0.3994  0.2299
18826TIP3    H177893   4.849   2.380  14.655  0.9680  0.0006 -0.5885
18826TIP3    H277894   4.760   2.498  14.621 -1.0194 -0.8581  1.3206
18827TIP3   OH277895   4.126   2.900   4.957  0.0268  0.4748  0.1729
18827TIP3    H177896   4.114   2.932   5.046 -0.2325 -1.1030  0.7428
18827TIP3    H277897   4.038   2.884   4.924  0.1210  1.0501 -0.3821
18828TIP3   OH277898   0.240   1.496   1.662  0.0094  0.0422 -0.4376
18828TIP3    H177899   0.228   1.556   1.589  0.4398  1.1980  0.4250
18828TIP3    H277900   0.166   1.513   1.720 -0.0936 -0.5584 -0.3805
18829TIP3   OH277901   2.133   4.673  17.133 -0.1995  0.0044  0.1052
18829TIP3    H177902   2.174   4.652  17.217 -0.4792  1.6803  0.6884
18829TIP3    H277903   2.059   4.613  17.127  1.0376 -1.5710  0.0463
18830TIP3   OH277904   5.773   0.546   3.314  0.6110 -0.1132  0.4350
18830TIP3    H177905   5.705   0.545   3.381  0.5801  1.5943  0.4799
18830TIP3    H277906   5.848   0.504   3.354  0.3413  0.1893  1.2697
18831TIP3   OH277907   0.304   1.636   1.440  0.3277  0.5981 -0.1800
18831TIP3    H177908   0.247   1.576   1.391 -0.3842  1.3495 -0.2951
18831TIP3    H277909   0.277   1.723   1.410  1.9170  0.9526 -0.6458
18832TIP3   OH277910   5.179   3.248  16.281  0.4910  0.3396 -0.2316
18832TIP3    H177911   5.207   3.260  16.372 -0.9411 -1.1984  0.4858
18832TIP3    H277912   5.141   3.332  16.256  2.8504  1.4683 -0.1965
18833TIP3   OH277913   2.561   3.481  16.087  0.3120 -0.1048  0.2783
18833TIP3    H177914   2.497   3.456  16.020  2.0043 -0.0318 -1.4738
18833TIP3    H277915   2.547   3.575  16.100 -0.9834 -0.4005  1.1418
18834TIP3   OH277916   5.757   0.800   0.942 -0.3106  0.1747 -0.1460
18834TIP3    H177917   5.724   0.884   0.911 -0.9781 -0.0276 -0.0141
18834TIP3    H277918   5.759   0.744   0.864 -0.4239  0.1458 -0.1288
18835TIP3   OH277919   2.948   4.575  16.395 -0.1342 -0.1314 -0.1551
18835TIP3    H177920   3.014   4.606  16.333 -1.0909  0.3497 -0.9603
18835TIP3    H277921   2.867   4.615  16.366 -1.5322 -3.4952 -1.4226
18836TIP3   OH277922   5.273   2.073  12.559  0.4440  0.1868 -0.1578
18836TIP3    H177923   5.199   2.096  12.615 -0.3074  1.1831 -1.5121
18836TIP3    H277924   5.256   1.982  12.533  0.1714  0.1177  0.2558
18837TIP3   OH277925   6.637   3.861  12.224 -0.2762  0.3498 -0.6794
18837TIP3    H177926   6.638   3.845  12.319  1.1937 -0.5419 -0.8140
18837TIP3    H277927   6.653   3.955  12.215 -0.6866  0.4885 -0.0525
18838TIP3   OH277928   3.583   4.444   0.019 -0.2185 -0.2173 -0.0114
18838TIP3    H177929   3.520   4.434   0.090  0.7280 -1.1174  0.7522
18838TIP3    H277930   3.540   4.500  -0.045 -1.4425 -0.1166  0.8716
18839TIP3   OH277931   4.171   5.319   4.785 -0.0066  0.4201 -0.2946
18839TIP3    H177932   4.090   5.281   4.820  1.3036 -1.0826  1.2602
18839TIP3    H277933   4.148   5.347   4.697 -2.0734 -0.4899 -0.1027
18840TIP3   OH277934   0.480   2.945  11.470 -0.2738  0.5333 -0.0140
18840TIP3    H177935   0.529   3.025  11.486  1.2297 -0.3055 -0.2075
18840TIP3    H277936   0.453   2.951  11.379  1.8408 -0.1568 -0.7530
18841TIP3   OH277937   1.843   4.112   1.301  0.0044  0.0461 -0.0789
18841TIP3    H177938   1.923   4.066   1.327 -0.7396 -1.9518 -1.1321
18841TIP3    H277939   1.855   4.201   1.334  1.9416 -0.6260  1.2065
18842TIP3   OH277940   4.529   0.302   5.583 -0.2123  0.4311 -0.5378
18842TIP3    H177941   4.504   0.389   5.551 -0.5288  0.0341 -1.4065
18842TIP3    H277942   4.606   0.318   5.638 -0.4016  1.2833 -0.4969
18843TIP3   OH277943   0.601   5.215   0.282 -0.0039  0.4008 -0.0696
18843TIP3    H177944   0.632   5.216   0.373 -0.0611 -1.1981 -0.0094
18843TIP3    H277945   0.570   5.125   0.268 -1.1143  0.9481 -1.3005
18844TIP3   OH277946   0.244   1.152   2.755  0.6704 -0.2670 -0.3250
18844TIP3    H177947   0.222   1.079   2.813  0.1571 -0.3770 -0.6482
18844TIP3    H277948   0.336   1.140   2.735  0.8424 -0.2648  0.4172
18845TIP3   OH277949   0.227   1.445   3.033  0.4366 -0.2565 -0.1751
18845TIP3    H177950   0.260   1.469   2.947  1.7994  0.0387  0.4030
18845TIP3    H277951   0.161   1.378   3.015  0.6008 -0.1030 -1.4540
18846TIP3   OH277952   6.250   4.929  12.980 -0.0025 -0.0660  0.0535
18846TIP3    H177953   6.344   4.937  12.965  0.0729  0.2069  0.6498
18846TIP3    H277954   6.216   4.888  12.900  0.6132 -0.1229 -0.1811
18847TIP3   OH277955   3.682   3.895  12.054 -0.0441 -0.0855 -0.5195
18847TIP3    H177956   3.735   3.841  11.996  1.4603  0.7145  0.0511
18847TIP3    H277957   3.667   3.976  12.005  0.3508  0.1800 -0.2151
18848TIP3   OH277958   5.782   5.001  11.613  0.3729  0.4435 -0.3024
18848TIP3    H177959   5.871   5.002  11.577 -0.3587  1.2562 -2.2678
18848TIP3    H277960   5.747   5.088  11.592 -0.5371  0.5397  1.4350
18849TIP3   OH277961   3.566   0.812   2.509 -0.0360  0.3285 -0.6764
18849TIP3    H177962   3.537   0.893   2.551 -0.0055  0.1203 -0.2475
18849TIP3    H277963   3.653   0.796   2.545 -0.5946 -0.6277  0.3011
18850TIP3   OH277964   1.556   4.903   3.151 -0.0307 -0.2683 -0.6807
18850TIP3    H177965   1.526   4.969   3.088 -1.3608  1.1216  1.2963
18850TIP3    H277966   1.599   4.836   3.097 -1.0832  0.8447 -3.0419
18851TIP3   OH277967   4.736   3.146   2.565  0.1431  0.2788 -0.5183
18851TIP3    H177968   4.717   3.160   2.472 -0.8479 -2.4031 -0.8036
18851TIP3    H277969   4.827   3.176   2.575  0.1914  0.8425 -2.2826
18852TIP3   OH277970   0.438   1.145  15.400 -0.6019 -0.6184  0.1242
18852TIP3    H177971   0.531   1.160  15.414 -0.3711 -1.7286 -0.1377
18852TIP3    H277972   0.395   1.196  15.469  0.3630 -2.9754  2.6582
18853TIP3   OH277973   2.859   3.776  15.252  0.2440  0.1505 -0.0907
18853TIP3    H177974   2.778   3.819  15.223 -0.5692 -1.7214 -0.8116
18853TIP3    H277975   2.922   3.795  15.183  0.1450  0.7951 -0.0138
18854TIP3   OH277976   6.059   3.861  15.859  0.2130  0.1061 -0.2853
18854TIP3    H177977   6.027   3.937  15.810 -1.4069 -0.0245  0.5176
18854TIP3    H277978   5.994   3.793  15.844 -0.4438  0.1011  2.0958
18855TIP3   OH277979   1.017   4.232  15.916 -0.4837  0.3744  0.7123
18855TIP3    H177980   0.965   4.152  15.921 -0.2989  0.1911 -0.1073
18855TIP3    H277981   0.952   4.303  15.920 -0.8828  0.1407 -0.8409
18856TIP3   OH277982   6.492   5.091  13.202 -0.6633 -0.0289  0.2139
18856TIP3    H177983   6.492   5.055  13.113 -1.9358 -0.3999  0.3471
18856TIP3    H277984   6.582   5.080  13.232 -0.6125 -1.5015 -0.3982
18857TIP3   OH277985   1.989   6.591  16.945 -0.1033  0.1710  0.6720
18857TIP3    H177986   2.053   6.579  16.875 -0.7465  2.6025 -0.4172
18857TIP3    H277987   2.041   6.594  17.025  0.8656 -0.4808  0.0894
18858TIP3   OH277988   3.767   3.542  15.162 -0.6146 -0.7487  0.1583
18858TIP3    H177989   3.837   3.598  15.128 -1.2273 -0.1461 -0.1451
18858TIP3    H277990   3.812   3.467  15.200  0.3231  0.5453  1.7363
18859TIP3   OH277991   6.328   3.744  11.395 -0.4275 -0.1923 -0.2600
18859TIP3    H177992   6.295   3.661  11.430  1.9762  0.2616  3.7891
18859TIP3    H277993   6.420   3.727  11.376 -0.2112  1.2047 -0.5676
18860TIP3   OH277994   1.588   2.540  16.228 -0.7968 -0.7123 -0.1949
18860TIP3    H177995   1.653   2.549  16.158  0.7958 -0.4979  1.2626
18860TIP3    H277996   1.517   2.599  16.203 -0.1995 -0.5265 -1.5380
18861TIP3   OH277997   4.183   3.274  10.948  0.4117 -0.6374  0.2054
18861TIP3    H177998   4.273   3.300  10.929  0.1794 -0.0000 -0.0573
18861TIP3    H277999   4.174   3.188  10.907  0.6737 -0.3703 -0.4265
18862TIP3   OH278000   1.816   1.827   4.729 -0.8985  0.1865 -0.7380
18862TIP3    H178001   1.769   1.801   4.808 -0.3078 -1.1294 -0.7882
18862TIP3    H278002   1.895   1.772   4.729 -1.3800 -0.6018 -2.7485
18863TIP3   OH278003   6.248   4.595  14.271 -0.0945 -0.2680  0.0828
18863TIP3    H178004   6.294   4.586  14.354  0.1066  0.6153  0.0807
18863TIP3    H278005   6.224   4.688  14.267 -1.9593 -0.7078  0.1333
18864TIP3   OH278006   2.441   0.969   3.093  0.1318  0.1969  0.1872
18864TIP3    H178007   2.384   1.041   3.118 -0.2350  0.4627 -1.2711
18864TIP3    H278008   2.381   0.896   3.076  0.5401 -0.6705  2.2161
18865TIP3   OH278009   6.029   3.568   1.635  0.0410  0.0709  0.1562
18865TIP3    H178010   5.938   3.597   1.628  0.2680  0.6283 -0.6949
18865TIP3    H278011   6.081   3.647   1.617  0.7123  0.0330  1.7596
18866TIP3   OH278012   2.488   4.241  12.262 -0.1975  0.1664  0.1155
18866TIP3    H178013   2.572   4.288  12.263  0.0250 -0.2320  0.6030
18866TIP3    H278014   2.429   4.299  12.214  0.7134 -0.1741 -1.4975
18867TIP3   OH278015   4.848   1.855   5.620 -0.1982  0.4694 -0.3424
18867TIP3    H178016   4.883   1.888   5.703  0.4542  0.5388 -0.6411
18867TIP3    H278017   4.839   1.761   5.634 -0.0427  0.4741 -0.2037
18868TIP3   OH278018   3.753   2.571  12.044 -0.0246 -0.2870  0.2077
18868TIP3    H178019   3.681   2.508  12.036 -0.1035 -0.0135 -2.0196
18868TIP3    H278020   3.793   2.551  12.128 -1.2700 -2.0018  0.4586
18869TIP3   OH278021   1.405   3.281   3.584 -0.0814 -0.5190  0.0904
18869TIP3    H178022   1.435   3.362   3.544  1.4122 -0.5411  1.0956
18869TIP3    H278023   1.394   3.221   3.510  0.5337  0.0703 -0.4981
18870TIP3   OH278024   3.004   3.288   5.683 -0.4682 -0.1590 -0.0881
18870TIP3    H178025   3.032   3.276   5.593 -2.4346  0.1017 -0.7777
18870TIP3    H278026   2.988   3.200   5.716  2.3901 -0.4508  0.8208
18871TIP3   OH278027   4.859   5.391  16.600 -0.6985 -0.3478  0.0468
18871TIP3    H178028   4.842   5.329  16.672 -1.1492  0.9193  1.0763
18871TIP3    H278029   4.772   5.413  16.567 -0.5076 -0.6833 -0.6981
18872TIP3   OH278030   1.306   1.128   0.264  0.1399 -0.4906 -0.3838
18872TIP3    H178031   1.269   1.192   0.204  1.1448  0.6889  0.2058
18872TIP3    H278032   1.325   1.052   0.210 -0.9099 -0.2427 -1.1328
18873TIP3   OH278033   3.236   5.595  13.331  0.4768  0.1112  0.4804
18873TIP3    H178034   3.292   5.608  13.254  0.3469 -1.3180  0.1280
18873TIP3    H278035   3.231   5.500  13.342  0.4256  0.2834  2.2177
18874TIP3   OH278036   5.298   6.202   2.382  0.0301  0.1795  0.5144
18874TIP3    H178037   5.248   6.140   2.436  1.8645 -2.6070 -0.7428
18874TIP3    H278038   5.390   6.177   2.397  0.6603 -0.6639 -3.5981
18875TIP3   OH278039   3.846   0.411  15.111  0.4453 -0.3921  0.2643
18875TIP3    H178040   3.879   0.501  15.107 -0.1352 -0.2055 -0.5052
18875TIP3    H278041   3.750   0.421  15.111  0.3753 -0.9893  0.7401
18876TIP3   OH278042   6.363   0.417  13.312  0.3111 -0.1117  0.0586
18876TIP3    H178043   6.387   0.377  13.228  0.9472 -0.8386  0.5789
18876TIP3    H278044   6.446   0.443  13.351  0.0538 -0.2281  0.6911
18877TIP3   OH278045   5.928   5.304  16.758  0.0611 -0.1039  0.3750
18877TIP3    H178046   5.890   5.306  16.670  0.0455  1.7158  0.3933
18877TIP3    H278047   5.944   5.211  16.775 -1.9606 -0.7037 -0.6793
18878TIP3   OH278048   0.842   0.952   1.207 -0.0814  0.1904 -0.5694
18878TIP3    H178049   0.924   0.901   1.208  0.3359  0.8436 -0.0012
18878TIP3    H278050   0.778   0.895   1.249 -0.0057 -0.4594 -1.3178
18879TIP3   OH278051   1.763   4.933   4.498  0.0302 -0.1445 -0.2816
18879TIP3    H178052   1.717   4.936   4.414 -0.9562 -1.5326  0.1632
18879TIP3    H278053   1.855   4.943   4.475 -0.3068  0.6111 -1.4160
18880TIP3   OH278054   5.570   3.711  14.649 -0.2731 -0.1522  0.4746
18880TIP3    H178055   5.555   3.648  14.578 -0.7127 -1.6478  1.8174
18880TIP3    H278056   5.500   3.775  14.639 -2.8367 -2.5393  1.8141
18881TIP3   OH278057   4.564   5.836  14.956  0.4218 -0.0301 -0.2136
18881TIP3    H178058   4.611   5.790  14.886  1.9955  1.1744 -0.0029
18881TIP3    H278059   4.500   5.890  14.909  0.3574 -0.4455 -0.6182
18882TIP3   OH278060   1.090   6.647   1.867  0.7000  0.3341  0.3237
18882TIP3    H178061   1.014   6.644   1.809  0.4806 -1.9512  0.6324
18882TIP3    H278062   1.165   6.638   1.808  0.6985  1.4878  0.1213
18883TIP3   OH278063   4.111   4.482   2.658  0.5288 -0.0662  0.1406
18883TIP3    H178064   4.198   4.443   2.645  1.1022 -0.2835  3.6052
18883TIP3    H278065   4.051   4.408   2.655  0.7131 -0.1974 -0.3367
18884TIP3   OH278066   2.470   2.928  17.082  0.1010 -0.1675 -0.3840
18884TIP3    H178067   2.525   2.898  17.154  1.3305  0.8038 -0.8948
18884TIP3    H278068   2.447   3.018  17.105  1.2545  0.4690 -1.6080
18885TIP3   OH278069   3.014   5.944  11.862  0.0146 -0.0157 -0.1606
18885TIP3    H178070   2.922   5.938  11.837 -0.6345 -0.6179  2.1235
18885TIP3    H278071   3.060   5.891  11.796 -1.0450  1.3519 -2.1091
18886TIP3   OH278072   6.325   5.745   0.122 -0.1739 -0.5153 -0.1921
18886TIP3    H178073   6.366   5.719   0.039 -1.0290 -2.5053 -0.0468
18886TIP3    H278074   6.231   5.745   0.104 -0.2742  1.5219  0.1446
18887TIP3   OH278075   6.390   5.672   1.979  0.3021 -0.0887  0.5456
18887TIP3    H178076   6.341   5.596   2.011 -0.2089  0.1267  0.2826
18887TIP3    H278077   6.459   5.685   2.045  0.0559 -0.4384  0.8812
18888TIP3   OH278078   4.319   6.129  11.634 -0.0118 -0.5760  0.3268
18888TIP3    H178079   4.225   6.111  11.636  0.0173 -0.7053  0.5187
18888TIP3    H278080   4.359   6.045  11.614  0.1743 -0.9150  2.0346
18889TIP3   OH278081   3.957   4.639   1.012  0.1784 -0.1644  0.3147
18889TIP3    H178082   3.869   4.670   1.029  0.5090  1.2740 -0.4288
18889TIP3    H278083   3.945   4.557   0.963 -0.7122 -1.2941  2.2954
18890TIP3   OH278084   6.426   2.377   5.305 -0.0056 -0.2984  0.1358
18890TIP3    H178085   6.375   2.457   5.307 -0.3339 -0.5196  1.2343
18890TIP3    H278086   6.497   2.391   5.367 -0.4154 -1.0758  0.7991
18891TIP3   OH278087   6.161   0.364  16.205  0.5414  0.6213  0.0523
18891TIP3    H178088   6.164   0.366  16.110 -0.6245 -0.2014 -0.0186
18891TIP3    H278089   6.253   0.358  16.232  0.8394 -2.7579 -1.1562
18892TIP3   OH278090   4.237   1.632   5.722 -1.0576 -0.1141 -0.3702
18892TIP3    H178091   4.148   1.613   5.693 -0.9322 -1.7614  0.2358
18892TIP3    H278092   4.256   1.567   5.789  0.0296  1.2296  0.7150
18893TIP3   OH278093   5.628   0.210  13.562  0.1353  0.3201  0.4030
18893TIP3    H178094   5.556   0.180  13.619 -1.1078  1.0663 -0.7070
18893TIP3    H278095   5.587   0.274  13.504  1.9059  1.4021  0.2723
18894TIP3   OH278096   5.265   3.768  17.031  0.2266 -0.1183  0.2374
18894TIP3    H178097   5.291   3.858  17.015  1.4034 -0.4248  0.3662
18894TIP3    H278098   5.346   3.717  17.025 -0.3668 -1.1297  0.4588
18895TIP3   OH278099   2.253   0.452  16.714  0.0953  0.4330  0.1676
18895TIP3    H178100   2.342   0.468  16.683  0.6530 -1.9355  0.3697
18895TIP3    H278101   2.251   0.489  16.802  0.8057  0.6707  0.0888
18896TIP3   OH278102   2.332   3.412   2.931  0.0278  0.3669 -0.5360
18896TIP3    H178103   2.263   3.429   2.995  2.1565 -1.6766  2.6195
18896TIP3    H278104   2.301   3.337   2.881 -0.4470  0.0491  0.2188
18897TIP3   OH278105   0.916   3.556  15.897 -0.3794 -1.0232 -0.4369
18897TIP3    H178106   0.842   3.604  15.858 -2.2811 -2.1774  1.4968
18897TIP3    H278107   0.875   3.481  15.940  2.0743 -2.2340 -0.0664
18898TIP3   OH278108   4.603   2.181   2.422 -0.0005  0.4119  0.0803
18898TIP3    H178109   4.561   2.223   2.497 -0.5185 -1.4718  0.9075
18898TIP3    H278110   4.683   2.231   2.409 -0.3203  1.3155  1.3475
18899TIP3   OH278111   3.093   5.596  12.007 -0.1892 -0.5445  0.1081
18899TIP3    H178112   3.103   5.682  12.047  0.6338 -0.6530  0.1350
18899TIP3    H278113   3.003   5.597  11.973 -0.1970  0.3094  0.1243
18900TIP3   OH278114   0.563   2.953  12.906  0.4290  0.3684 -0.4618
18900TIP3    H178115   0.563   3.028  12.966 -0.0691  1.2046 -1.4944
18900TIP3    H278116   0.656   2.928  12.900  0.8356  2.0079 -1.4490
18901TIP3   OH278117   4.221   1.824  16.159  0.3404 -0.2903  0.1927
18901TIP3    H178118   4.181   1.792  16.078 -1.0078  1.2494  0.2019
18901TIP3    H278119   4.282   1.891  16.131 -1.2942  1.3921  0.4859
18902TIP3   OH278120   3.701   6.252   2.942 -0.5064 -0.2043  0.2063
18902TIP3    H178121   3.754   6.331   2.934 -0.1600 -0.3669  0.8548
18902TIP3    H278122   3.630   6.275   3.002  1.2018 -1.1789  2.7536
18903TIP3   OH278123   3.866   5.702  13.291  0.1052 -0.4581  1.0791
18903TIP3    H178124   3.789   5.759  13.289 -0.0798 -0.7253 -0.4828
18903TIP3    H278125   3.843   5.627  13.236  1.6730 -0.2581  0.0781
18904TIP3   OH278126   2.367   2.121  12.052 -0.3917  0.4564 -0.6065
18904TIP3    H178127   2.366   2.035  12.010  0.8820  0.2459 -0.2554
18904TIP3    H278128   2.405   2.104  12.138 -1.3487  1.1671 -0.0324
18905TIP3   OH278129   4.725   4.151   4.899 -0.0554 -0.1502 -0.4412
18905TIP3    H178130   4.772   4.139   4.816 -0.3960 -0.2240 -0.6256
18905TIP3    H278131   4.707   4.245   4.903 -1.4695 -0.3437 -1.2532
18906TIP3   OH278132   5.899   0.737   1.362 -0.0883 -0.0161  0.2969
18906TIP3    H178133   5.993   0.752   1.352  0.4178 -2.5398  0.4619
18906TIP3    H278134   5.887   0.725   1.457  0.2067 -3.3410  0.0489
18907TIP3   OH278135   4.374   5.654  15.976  0.5536  0.3536  0.0189
18907TIP3    H178136   4.306   5.661  15.910 -0.7479  3.8430  1.5002
18907TIP3    H278137   4.386   5.560  15.989 -1.7077 -0.3853 -2.5239
18908TIP3   OH278138   6.007   6.433   2.067  0.1794 -0.0450  0.4095
18908TIP3    H178139   6.092   6.423   2.024 -0.4932 -0.5086 -0.8446
18908TIP3    H278140   5.952   6.478   2.003 -0.2682  1.1527  1.5788
18909TIP3   OH278141   4.683   3.089   5.823  0.0188 -0.1224  0.0710
18909TIP3    H178142   4.635   3.006   5.830 -0.5580  0.1728 -0.2689
18909TIP3    H278143   4.774   3.066   5.836  0.0477 -1.0428 -1.5993
18910TIP3   OH278144   4.687   6.499  14.182 -0.0961  0.0861 -0.7244
18910TIP3    H178145   4.658   6.468  14.096 -2.5302 -0.9876  0.3805
18910TIP3    H278146   4.652   6.434  14.243 -0.5295  2.0832  1.2661
18911TIP3   OH278147   1.460   0.600  17.130  0.1195 -0.7886  0.0449
18911TIP3    H178148   1.459   0.695  17.137 -0.1789 -0.7632 -0.2869
18911TIP3    H278149   1.477   0.583  17.037 -1.5787 -1.0295 -0.2560
18912TIP3   OH278150   2.634   1.418   5.511 -0.0337 -0.5632 -0.1038
18912TIP3    H178151   2.560   1.478   5.520 -0.4716 -1.1727  0.4224
18912TIP3    H278152   2.696   1.444   5.579  0.1634 -0.1553 -0.4397
18913TIP3   OH278153   5.851   3.545  14.409  0.4160 -0.1428 -0.0392
18913TIP3    H178154   5.933   3.503  14.382 -0.0948 -1.0174 -0.2742
18913TIP3    H278155   5.851   3.538  14.505  0.9199  0.4633  0.0139
18914TIP3   OH278156   0.264   6.639   1.741  0.4472  0.0861 -0.3637
18914TIP3    H178157   0.184   6.692   1.744 -0.8656 -1.7677 -1.2672
18914TIP3    H278158   0.292   6.643   1.650  2.5820  2.2878  0.2646
18915TIP3   OH278159   4.655   3.557   2.349 -0.1395 -0.0048  0.2414
18915TIP3    H178160   4.734   3.610   2.339  0.6646 -0.9440  1.3870
18915TIP3    H278161   4.584   3.616   2.325  0.9422  0.5440 -1.9842
18916TIP3   OH278162   5.494   1.337  16.683 -1.0438  0.2787 -0.1700
18916TIP3    H178163   5.513   1.317  16.592  1.1759  0.7479  0.1309
18916TIP3    H278164   5.569   1.302  16.732 -1.5741  1.1154  1.3306
18917TIP3   OH278165   0.752   6.268   2.989  0.0591 -0.2553 -0.2166
18917TIP3    H178166   0.778   6.293   3.078 -0.9527 -1.4550  0.4530
18917TIP3    H278167   0.832   6.233   2.950  0.7874  1.3132 -0.1935
18918TIP3   OH278168   0.191   1.082   5.265 -0.0185 -0.5110 -0.0607
18918TIP3    H178169   0.225   1.171   5.272  0.5685 -0.6174 -1.2725
18918TIP3    H278170   0.268   1.028   5.248 -0.4203 -1.1891  0.2268
18919TIP3   OH278171   3.096   1.649  11.798 -0.5578 -0.4029 -0.3085
18919TIP3    H178172   3.133   1.562  11.790 -0.5681 -0.4249 -0.1209
18919TIP3    H278173   3.164   1.701  11.841 -1.3190 -0.8348  1.5200
18920TIP3   OH278174   6.540   3.120  15.397  0.2566 -0.1578 -0.0464
18920TIP3    H178175   6.530   3.212  15.422 -0.6017 -0.1608 -0.3362
18920TIP3    H278176   6.599   3.122  15.321  2.5312 -0.1177  1.6413
18921TIP3   OH278177   5.461   3.232  16.142 -0.4267 -0.1020 -0.3737
18921TIP3    H178178   5.513   3.304  16.108  1.4099 -1.4771 -0.6483
18921TIP3    H278179   5.371   3.258  16.127  0.2154  0.9030 -3.0953
18922TIP3   OH278180   5.096   3.168   2.785  0.3179 -0.1421 -0.4303
18922TIP3    H178181   5.019   3.204   2.831 -0.4973 -0.2351 -1.6660
18922TIP3    H278182   5.087   3.201   2.696  0.6675 -1.7298 -1.0829
18923TIP3   OH278183   4.039   4.328  15.329  0.0615 -0.6099 -0.4303
18923TIP3    H178184   4.005   4.391  15.392 -0.7582 -0.3665 -1.1047
18923TIP3    H278185   4.127   4.307  15.362 -0.0691  0.0577  0.3861
18924TIP3   OH278186   4.307   1.323   2.335 -0.0763 -0.4723  0.6922
18924TIP3    H178187   4.354   1.312   2.253  1.1610  0.0841  1.3043
18924TIP3    H278188   4.228   1.270   2.325 -0.3721  0.2604 -1.1752
18925TIP3   OH278189   6.067   4.394  13.246  0.1835 -0.3512  0.2341
18925TIP3    H178190   5.990   4.400  13.302  0.6160 -0.0609  0.7934
18925TIP3    H278191   6.142   4.396  13.305  0.7222  1.6184 -0.4186
18926TIP3   OH278192   5.367   0.034   6.604  0.4352 -0.5669 -0.0071
18926TIP3    H178193   5.326   0.019   6.689  1.8082 -0.2284  0.7417
18926TIP3    H278194   5.435  -0.034   6.598  0.8618 -0.1099 -0.4686
18927TIP3   OH278195   4.321   2.605  16.790 -0.1460  0.5103  0.1034
18927TIP3    H178196   4.330   2.568  16.878 -0.5742  0.6114  0.1939
18927TIP3    H278197   4.227   2.620  16.781 -0.2789 -0.7754 -0.8946
18928TIP3   OH278198   3.204   4.729   0.039  0.2910 -0.1276  0.2509
18928TIP3    H178199   3.172   4.671   0.108  0.8871  0.3424  0.9282
18928TIP3    H278200   3.127   4.779   0.013 -0.3735 -1.5794 -0.7393
18929TIP3   OH278201   4.667   5.314   3.843  0.2169 -0.0968  0.2048
18929TIP3    H178202   4.742   5.261   3.819  0.8893  1.1028 -0.4189
18929TIP3    H278203   4.608   5.253   3.889  0.0760 -1.8329 -2.1137
18930TIP3   OH278204   3.014   1.293  16.727  0.4820 -0.1898  0.0606
18930TIP3    H178205   2.988   1.202  16.736 -1.1047  0.1387 -0.7999
18930TIP3    H278206   2.972   1.338  16.801  0.1418  0.0496 -0.2733
18931TIP3   OH278207   2.774   6.479  14.831  0.0700 -0.1561 -0.8584
18931TIP3    H178208   2.849   6.420  14.839  0.9239  0.9891 -0.0991
18931TIP3    H278209   2.710   6.445  14.894  0.9474  0.2699  0.3026
18932TIP3   OH278210   2.481   1.516   6.552 -0.2364 -0.0830  0.2578
18932TIP3    H178211   2.392   1.538   6.581 -1.0186  1.2181 -2.6664
18932TIP3    H278212   2.525   1.601   6.545  0.9600 -0.6422  0.8047
18933TIP3   OH278213   0.853   2.759   0.197 -0.4157 -0.5587 -0.0439
18933TIP3    H178214   0.888   2.805   0.272  1.1375  0.9237 -1.5884
18933TIP3    H278215   0.925   2.703   0.168 -0.6899 -0.4779 -0.9043
18934TIP3   OH278216   0.548   6.347   0.309 -0.2459  0.2954  0.4106
18934TIP3    H178217   0.551   6.258   0.345 -0.9908  0.9474  2.1957
18934TIP3    H278218   0.613   6.346   0.238 -0.4415 -1.7326  0.1915
18935TIP3   OH278219   1.583   0.875  13.323 -0.6356  0.4662  0.6818
18935TIP3    H178220   1.498   0.900  13.360 -0.4809  2.0051  0.0926
18935TIP3    H278221   1.645   0.937  13.361 -0.3446  1.5519 -1.4275
18936TIP3   OH278222   5.672   1.432  12.822  0.5740  0.9884  0.4441
18936TIP3    H178223   5.745   1.412  12.881  1.0897  1.4303 -0.0335
18936TIP3    H278224   5.600   1.455  12.881  0.7860  0.4359  0.9242
18937TIP3   OH278225   2.458   1.906   0.862  0.0472  0.3955 -0.4463
18937TIP3    H178226   2.490   1.981   0.912  0.2719  0.4823 -0.7223
18937TIP3    H278227   2.521   1.894   0.792  0.1037 -0.1578 -0.3093
18938TIP3   OH278228   3.982   5.370   2.059 -0.5684  0.9908 -0.0568
18938TIP3    H178229   3.961   5.319   2.137 -1.3724 -1.1966 -1.5940
18938TIP3    H278230   4.078   5.375   2.058 -0.5165  0.1953  0.5484
18939TIP3   OH278231   1.428   4.346  15.280  0.1550  0.6145  0.6473
18939TIP3    H178232   1.473   4.273  15.323 -0.7662 -0.6234 -0.4058
18939TIP3    H278233   1.436   4.419  15.341  0.4743 -0.5740  2.0736
18940TIP3   OH278234   1.992   2.506  12.361 -0.1505  0.5059  0.0048
18940TIP3    H178235   2.065   2.446  12.377  0.2174  0.6793 -0.9241
18940TIP3    H278236   2.034   2.589  12.339 -0.6404  0.7998  0.1706
18941TIP3   OH278237   1.746   3.865  11.845 -0.5336  0.8507  0.0818
18941TIP3    H178238   1.715   3.780  11.815 -1.2926  0.1190  2.6540
18941TIP3    H278239   1.666   3.915  11.861 -0.1412  1.4856  0.0894
18942TIP3   OH278240   6.173   2.350  16.029 -0.1220 -0.1715  0.2442
18942TIP3    H178241   6.219   2.270  16.055  0.1676 -0.1392 -0.1649
18942TIP3    H278242   6.126   2.327  15.950  1.6949  0.6205 -1.1348
18943TIP3   OH278243   4.010   6.387  11.786 -0.4635  0.2849 -0.6043
18943TIP3    H178244   4.093   6.406  11.829  0.4603 -0.3897 -2.0579
18943TIP3    H278245   3.963   6.331  11.848 -0.1918  1.2835  0.5509
18944TIP3   OH278246   4.187   1.919   3.687 -0.1974 -0.0398 -0.4897
18944TIP3    H178247   4.227   2.006   3.679  2.0205 -1.0618 -1.4298
18944TIP3    H278248   4.167   1.911   3.780  2.0813  0.5002  0.1151
18945TIP3   OH278249   5.289   2.093   2.398 -0.2513 -0.0082  0.1600
18945TIP3    H178250   5.284   2.052   2.312  2.0270  1.1824 -0.6163
18945TIP3    H278251   5.371   2.061   2.436 -0.4535  0.6844  1.2401
18946TIP3   OH278252   0.744   5.069   5.517 -0.6423  0.2414  0.4447
18946TIP3    H178253   0.723   4.979   5.490  0.1921  0.2597 -0.2777
18946TIP3    H278254   0.680   5.123   5.471  1.2421  0.3542 -2.2814
18947TIP3   OH278255   4.848   4.731  14.938 -0.2835 -0.2240  0.1261
18947TIP3    H178256   4.897   4.744  14.857  0.4137 -0.0775  0.5635
18947TIP3    H278257   4.911   4.694  14.999 -0.3336  1.2521  1.1224
18948TIP3   OH278258   0.456   0.643   1.451 -0.0868  0.4047  0.0487
18948TIP3    H178259   0.526   0.626   1.514 -0.8499  1.1618  1.1244
18948TIP3    H278260   0.499   0.690   1.379  1.1276 -1.8572 -0.8298
18949TIP3   OH278261   1.040   4.996  12.507  0.1013 -0.7300  0.4001
18949TIP3    H178262   1.117   4.950  12.473  0.4439 -0.0773  0.2739
18949TIP3    H278263   1.050   5.086  12.475  0.0883 -0.2630  1.6617
18950TIP3   OH278264   0.616   4.061   3.597  0.8243  0.1194 -0.1268
18950TIP3    H178265   0.633   4.132   3.534 -1.3250  0.8873  0.0754
18950TIP3    H278266   0.563   4.102   3.665  1.3617 -1.2050  1.1462
18951TIP3   OH278267   2.961   3.053   5.833 -0.2915  0.0956 -0.2344
18951TIP3    H178268   2.873   3.016   5.824 -0.5780  1.0427 -1.8302
18951TIP3    H278269   3.020   2.978   5.817 -0.7519 -0.7174  1.6326
18952TIP3   OH278270   1.714   2.014  13.850  0.1693 -0.3836  0.1478
18952TIP3    H178271   1.788   2.061  13.813 -1.1843  2.0520  0.3520
18952TIP3    H278272   1.738   1.998  13.941  0.4351  0.4635  0.2305
18953TIP3   OH278273   0.609   6.702  13.217 -0.0169 -0.1452 -0.0377
18953TIP3    H178274   0.622   6.632  13.281  0.9224  0.2539  0.2246
18953TIP3    H278275   0.523   6.738  13.238  0.6523  0.5943  1.6183
18954TIP3   OH278276   4.343   0.201   5.760 -0.5373 -0.3495 -0.0835
18954TIP3    H178277   4.263   0.190   5.709 -0.1199 -0.7549 -0.6859
18954TIP3    H278278   4.404   0.243   5.699 -0.0534 -0.7644  0.1081
18955TIP3   OH278279   3.848   2.595  14.257 -0.6532 -0.2244 -0.2975
18955TIP3    H178280   3.813   2.638  14.179 -1.3787 -0.3022 -0.0232
18955TIP3    H278281   3.778   2.536  14.286  0.9992 -3.0740 -1.7408
18956TIP3   OH278282   3.976   2.661  13.178  0.1041  0.3288  0.3860
18956TIP3    H178283   4.050   2.650  13.238 -0.9260  1.3766  1.9161
18956TIP3    H278284   3.928   2.736  13.212 -0.2719  1.3138 -2.0757
18957TIP3   OH278285   0.355   5.297  14.702  0.9407  0.1401 -0.8333
18957TIP3    H178286   0.351   5.340  14.788 -2.1642  0.2802 -0.9266
18957TIP3    H278287   0.365   5.369  14.640  0.3438  0.3138 -0.7316
18958TIP3   OH278288   6.359   3.785   0.416  0.2968 -0.4638 -0.5998
18958TIP3    H178289   6.299   3.859   0.428 -0.0226 -0.5662 -1.5322
18958TIP3    H278290   6.434   3.823   0.371  1.0176 -0.3102  0.6630
18959TIP3   OH278291   2.688   4.279  15.743 -0.8033 -0.2484  0.2370
18959TIP3    H178292   2.690   4.232  15.659 -1.0460  0.0339  0.0711
18959TIP3    H278293   2.769   4.252  15.787  0.0114  0.6518 -0.6645
18960TIP3   OH278294   1.447   0.738  14.216  0.2244 -0.3785 -0.8650
18960TIP3    H178295   1.424   0.792  14.141  0.8193 -0.3904 -1.0674
18960TIP3    H278296   1.419   0.789  14.292  1.3357  0.5281 -1.0239
18961TIP3   OH278297   5.585   1.249   0.652  0.0881  0.1016  0.5341
18961TIP3    H178298   5.555   1.304   0.725 -1.4231 -0.2762  0.2284
18961TIP3    H278299   5.641   1.307   0.600 -0.8499  1.1341  0.6362
18962TIP3   OH278300   2.070   3.008  16.161 -0.5175 -0.0372  0.0100
18962TIP3    H178301   2.162   3.014  16.136  0.1797 -2.2486  1.6757
18962TIP3    H278302   2.049   3.094  16.197  0.5824  0.7909 -1.2135
18963TIP3   OH278303   3.183   4.512   1.043 -0.0984  0.2677 -0.4202
18963TIP3    H178304   3.234   4.546   0.970  1.0333 -1.1437 -0.3327
18963TIP3    H278305   3.238   4.443   1.080 -1.2699 -0.0043  0.8788
18964TIP3   OH278306   5.369   5.093  14.842 -0.4029  0.6944 -0.1709
18964TIP3    H178307   5.282   5.053  14.842 -0.4450  0.7867 -0.2387
18964TIP3    H278308   5.369   5.151  14.919 -0.5411  0.9970 -0.3972
18965TIP3   OH278309   1.109   3.504   1.913  0.0212 -0.7721  0.4860
18965TIP3    H178310   1.051   3.569   1.953 -0.8529 -0.6858 -0.8575
18965TIP3    H278311   1.051   3.435   1.882  0.9259 -2.1749  1.7533
18966TIP3   OH278312   2.093   4.633   2.982 -0.4801 -0.3897 -0.3435
18966TIP3    H178313   2.023   4.572   2.958 -1.3915 -0.0474  1.2846
18966TIP3    H278314   2.147   4.584   3.044 -0.2305 -0.1226 -0.3507
18967TIP3   OH278315   1.122   3.633  15.335  0.7791  0.4495  0.8859
18967TIP3    H178316   1.069   3.698  15.381 -0.8456  1.3843 -2.0874
18967TIP3    H278317   1.205   3.676  15.320  0.0062  1.5751 -0.3129
18968TIP3   OH278318   0.049   5.176  11.123  0.0694 -0.3069 -0.0547
18968TIP3    H178319  -0.007   5.102  11.097  0.4618 -0.3300 -0.8873
18968TIP3    H278320   0.118   5.136  11.176  0.0790 -0.4908 -0.2024
18969TIP3   OH278321   4.808   0.566   1.344  0.2510  0.2016 -0.3664
18969TIP3    H178322   4.800   0.652   1.384  1.5156 -0.6719  1.9595
18969TIP3    H278323   4.776   0.505   1.412 -0.4238 -1.2010 -1.8653
18970TIP3   OH278324   1.128   5.190  11.943  0.5259 -0.2583 -0.5398
18970TIP3    H178325   1.152   5.281  11.924 -3.2562  0.3345 -3.8999
18970TIP3    H278326   1.182   5.138  11.883  0.9192 -0.0019 -0.4116
18971TIP3   OH278327   0.810   5.414  12.157 -0.0345 -0.4098  0.4290
18971TIP3    H178328   0.739   5.389  12.098 -0.6655  2.2921 -0.1171
18971TIP3    H278329   0.856   5.483  12.109  2.9513 -1.9978  0.8263
18972TIP3   OH278330   3.467   4.692   3.350  0.2267  0.1810  0.1772
18972TIP3    H178331   3.476   4.744   3.430  0.5090  0.0718  0.2175
18972TIP3    H278332   3.445   4.604   3.381 -0.0697  0.2301  0.1156
18973TIP3   OH278333   6.533   2.999   2.684 -0.2514 -0.1335  0.3554
18973TIP3    H178334   6.582   2.968   2.759  1.3877  0.0031 -0.6190
18973TIP3    H278335   6.585   3.071   2.649 -1.8915  0.9926  0.1220
18974TIP3   OH278336   4.612   6.459  11.491  0.1438 -0.1243  0.1108
18974TIP3    H178337   4.560   6.529  11.531  4.3857  1.7022  3.1693
18974TIP3    H278338   4.655   6.501  11.416  0.8924 -0.0995  0.5430
18975TIP3   OH278339   4.601   1.623  13.710 -0.2713  0.5049 -0.6831
18975TIP3    H178340   4.620   1.538  13.671 -2.2068  0.3797 -1.4688
18975TIP3    H278341   4.509   1.639  13.689 -0.5577  1.8280  1.2761
18976TIP3   OH278342   3.078   0.097  14.617  0.0404  0.1506  0.2772
18976TIP3    H178343   3.139   0.028  14.592 -0.3719 -0.3994  0.7965
18976TIP3    H278344   3.134   0.171  14.641  0.5937 -0.9277  2.5501
18977TIP3   OH278345   1.366   5.300   3.621  0.2950 -0.6359 -0.1122
18977TIP3    H178346   1.363   5.392   3.596 -1.1686 -0.9072 -1.0366
18977TIP3    H278347   1.340   5.299   3.713  4.1376  0.2078  1.1610
18978TIP3   OH278348   2.510   0.507   2.414  0.8441 -0.0772  0.4376
18978TIP3    H178349   2.466   0.522   2.498  0.3138 -1.1126  0.3659
18978TIP3    H278350   2.483   0.580   2.359 -2.3544 -1.5689 -0.2179
18979TIP3   OH278351   2.299   5.581  17.176 -0.3236 -0.2558 -0.1327
18979TIP3    H178352   2.278   5.488  17.181 -0.2667 -0.1936  2.1559
18979TIP3    H278353   2.365   5.587  17.107  0.9899 -2.1775  0.8920
18980TIP3   OH278354   6.483   6.700   0.971 -0.1378  0.0271  0.4123
18980TIP3    H178355   6.482   6.728   0.880 -1.3754  1.4568  0.8115
18980TIP3    H278356   6.454   6.778   1.020  1.1330 -0.4951  2.0868
18981TIP3   OH278357   1.537   4.897  15.857  0.1215 -0.9451  0.4950
18981TIP3    H178358   1.465   4.882  15.796 -0.2203  0.2661  0.5745
18981TIP3    H278359   1.501   4.958  15.922  0.9464 -1.0326  1.0474
18982TIP3   OH278360   1.755   5.447  14.080  0.2619 -0.4240 -0.1441
18982TIP3    H178361   1.757   5.543  14.084  0.0526 -0.4631  1.2408
18982TIP3    H278362   1.847   5.422  14.069  0.3075 -0.0766 -0.6221
18983TIP3   OH278363   6.573   2.232   0.905 -0.5001  0.1404  0.1119
18983TIP3    H178364   6.591   2.207   0.814 -0.9211 -1.0608  0.3409
18983TIP3    H278365   6.641   2.188   0.956  1.6151  3.2080  0.1790
18984TIP3   OH278366   5.193   4.048  12.398  0.3457 -0.6534  0.4743
18984TIP3    H178367   5.184   3.955  12.417 -0.5316 -0.9527 -1.2330
18984TIP3    H278368   5.104   4.083  12.405  0.1724 -0.5386 -1.5846
18985TIP3   OH278369   5.391   4.777   2.691  0.5302  0.4240  0.3879
18985TIP3    H178370   5.377   4.750   2.782  1.0221 -0.1372  0.3063
18985TIP3    H278371   5.486   4.779   2.681  0.4779  0.2660 -0.1789
18986TIP3   OH278372   5.008   1.453   3.292 -0.2936  0.3226 -0.0569
18986TIP3    H178373   4.948   1.527   3.296  0.4515  1.0036 -0.8611
18986TIP3    H278374   5.002   1.423   3.201 -0.5673 -0.5985  0.2537
18987TIP3   OH278375   5.483   5.214  11.324  0.1875 -0.1291  0.0897
18987TIP3    H178376   5.452   5.164  11.249 -0.4837 -1.2619  1.0818
18987TIP3    H278377   5.437   5.176  11.399  1.4460  0.4111  1.1838
18988TIP3   OH278378   4.439   6.361   1.000 -0.1746 -0.2655 -0.0576
18988TIP3    H178379   4.413   6.270   1.012  0.9821 -0.6496 -0.3654
18988TIP3    H278380   4.372   6.397   0.942 -1.1732 -0.6404  0.8176
18989TIP3   OH278381   6.126   4.643   4.243  0.1039  1.0259  0.4503
18989TIP3    H178382   6.105   4.729   4.280  0.2651  1.5268 -0.5898
18989TIP3    H278383   6.099   4.649   4.152  1.6389  0.5377 -0.0686
18990TIP3   OH278384   5.937   0.118   0.154  0.4988  0.2736  0.7509
18990TIP3    H178385   5.946   0.137   0.060 -0.3328 -0.3674  0.5245
18990TIP3    H278386   5.883   0.190   0.187 -0.8962 -0.5283  0.3127
18991TIP3   OH278387   1.752   3.731  15.991  0.5333 -0.4092 -0.6360
18991TIP3    H178388   1.699   3.702  15.917 -0.7210  1.2088 -0.4159
18991TIP3    H278389   1.705   3.806  16.027  2.1972  0.1363  0.5247
18992TIP3   OH278390   3.596   4.621  11.418  0.0746 -0.7460 -0.0141
18992TIP3    H178391   3.568   4.624  11.326 -0.1143 -1.7973 -0.0003
18992TIP3    H278392   3.548   4.693  11.459 -1.4768 -1.5680 -0.3052
18993TIP3   OH278393   1.404   6.250  14.937 -0.2709 -0.4063 -0.2916
18993TIP3    H178394   1.422   6.323  14.877 -0.1773 -0.7550 -0.6953
18993TIP3    H278395   1.330   6.205  14.897  0.0174 -0.8486 -0.3272
18994TIP3   OH278396   0.390   3.744   5.383  0.7318  0.4078 -0.0830
18994TIP3    H178397   0.320   3.707   5.328  0.6111 -1.3302  1.1644
18994TIP3    H278398   0.355   3.739   5.472  2.4076 -0.4534  0.5654
18995TIP3   OH278399   1.930   2.050   5.276 -0.1813 -0.3481  0.6493
18995TIP3    H178400   1.850   2.099   5.297 -0.3956 -0.3693 -0.0812
18995TIP3    H278401   1.952   2.004   5.357 -1.4623 -1.1048  0.5948
18996TIP3   OH278402   2.196   2.337  12.416 -0.3341 -0.3638  0.0944
18996TIP3    H178403   2.280   2.369  12.381  0.4549 -1.8438  0.5243
18996TIP3    H278404   2.218   2.253  12.456 -1.9244 -0.4762  0.8024
18997TIP3   OH278405   1.269   2.520  12.757  0.0825 -0.1155  0.2651
18997TIP3    H178406   1.258   2.429  12.785  0.0532  0.0945  0.9627
18997TIP3    H278407   1.196   2.536  12.697 -0.4532 -0.2805  0.8618
18998TIP3   OH278408   3.387   3.759   2.245  0.0605  0.2263  0.5584
18998TIP3    H178409   3.446   3.802   2.184  1.0571 -0.4693  1.0057
18998TIP3    H278410   3.423   3.671   2.255 -1.9797 -0.7759 -0.4227
18999TIP3   OH278411   2.822   0.046  10.591  0.2028  0.1741  0.5338
18999TIP3    H178412   2.846  -0.013  10.520 -0.1603  0.2025  0.3852
18999TIP3    H278413   2.736   0.080  10.566  0.4190  0.7873  0.5999
19000TIP3   OH278414   4.881   6.559   1.522 -0.5506  0.7609  0.0417
19000TIP3    H178415   4.825   6.518   1.456 -0.6957  0.4115  0.3824
19000TIP3    H278416   4.838   6.642   1.542  0.0141  1.3370 -1.0285
19001TIP3   OH278417   0.201   5.645  11.147  0.1818 -0.3679  0.2945
19001TIP3    H178418   0.220   5.739  11.139  2.8450 -0.8999 -0.7295
19001TIP3    H278419   0.160   5.622  11.064  1.2591 -0.4324 -0.2347
19002TIP3   OH278420   3.919   6.152   5.372  0.3342  0.2927  0.0926
19002TIP3    H178421   3.975   6.219   5.409 -0.2009 -0.2710  2.0235
19002TIP3    H278422   3.914   6.173   5.278 -0.6254  3.5349  0.7608
19003TIP3   OH278423   3.244   6.220   3.824  0.0700 -0.1949  0.1431
19003TIP3    H178424   3.277   6.169   3.897 -1.1751  0.1082  0.9518
19003TIP3    H278425   3.155   6.245   3.850 -0.7029 -0.7189 -1.7868
19004TIP3   OH278426   4.612   0.402  14.950 -0.1169 -0.1060 -0.1652
19004TIP3    H178427   4.668   0.329  14.978 -0.0761  0.2244  0.6329
19004TIP3    H278428   4.528   0.361  14.931  0.3332 -0.5823 -1.2107
19005TIP3   OH278429   0.689   0.755  16.342 -0.4588 -0.6243  0.2369
19005TIP3    H178430   0.626   0.689  16.314 -0.9985  0.0325 -0.1287
19005TIP3    H278431   0.772   0.728  16.303 -0.9858 -0.2805 -1.1674
19006TIP3   OH278432   5.916   1.256   0.448 -0.5703  0.2232  0.2974
19006TIP3    H178433   5.931   1.168   0.415 -2.2521 -0.0789  0.2284
19006TIP3    H278434   5.943   1.314   0.377  1.6802 -0.1446  0.7812
19007TIP3   OH278435   4.760   1.439   2.056  0.0683 -0.0268 -0.0382
19007TIP3    H178436   4.815   1.513   2.030  1.0593  0.1501  2.2705
19007TIP3    H278437   4.793   1.414   2.142 -1.6387 -1.7999  0.1747
19008TIP3   OH278438   3.886   5.765   2.752 -0.0926  0.1261 -0.7484
19008TIP3    H178439   3.967   5.721   2.723 -0.9080 -1.6381 -0.5037
19008TIP3    H278440   3.819   5.732   2.692 -1.1776 -0.9216  0.9472
19009TIP3   OH278441   4.740   5.174  16.183  0.0432  0.4817  0.0565
19009TIP3    H178442   4.762   5.253  16.134 -0.4731  0.6651  0.1104
19009TIP3    H278443   4.819   5.153  16.232  0.7424  0.0162 -1.2154
19010TIP3   OH278444   5.641   3.414  16.019 -0.0070 -0.2674 -0.1062
19010TIP3    H178445   5.562   3.441  15.972 -0.2303 -2.2989 -0.9932
19010TIP3    H278446   5.708   3.476  15.990 -0.7858  0.2033 -0.9526
19011TIP3   OH278447   5.840   0.511  15.879 -0.3968  0.1748  0.3997
19011TIP3    H178448   5.821   0.586  15.934 -2.2517  0.8336 -1.0691
19011TIP3    H278449   5.756   0.466  15.868 -0.3374  0.6192 -2.6460
19012TIP3   OH278450   3.591   2.018   5.344 -0.1459 -0.4440 -0.3930
19012TIP3    H178451   3.631   2.105   5.348 -2.8492  0.8576  0.9719
19012TIP3    H278452   3.610   1.987   5.255  2.4829  0.6649 -0.3003
19013TIP3   OH278453   4.834   6.003  10.368 -0.4877  0.7625  0.2509
19013TIP3    H178454   4.790   5.923  10.340 -2.1441  1.4872  0.6632
19013TIP3    H278455   4.822   6.005  10.463  1.3890  0.4648  0.5250
19014TIP3   OH278456   4.767   4.846   3.464  0.4623  0.2566 -0.9570
19014TIP3    H178457   4.746   4.824   3.374  0.3806 -0.4377 -0.7759
19014TIP3    H278458   4.683   4.860   3.506  0.2434 -2.4946 -0.2397
19015TIP3   OH278459   5.334   5.540  14.298  0.0657 -0.0864  0.5080
19015TIP3    H178460   5.239   5.551  14.299  0.1252  0.6127 -0.2799
19015TIP3    H278461   5.347   5.453  14.258 -0.2956 -1.5300  3.3043
19016TIP3   OH278462   2.165   1.308  15.288  0.3029 -0.0397 -0.1240
19016TIP3    H178463   2.101   1.264  15.344  0.7992 -1.1089 -0.3565
19016TIP3    H278464   2.213   1.366  15.346 -1.2222  1.2068 -0.0485
19017TIP3   OH278465   0.587   0.456  11.356 -0.2636 -0.0315 -0.2676
19017TIP3    H178466   0.574   0.480  11.264 -0.6444 -0.0963 -0.2307
19017TIP3    H278467   0.599   0.540  11.401 -1.8752  0.1262 -0.0925
19018TIP3   OH278468   0.892   6.323   0.521  0.4398 -0.3923 -0.5018
19018TIP3    H178469   0.984   6.337   0.543  0.1620  2.2006 -0.7072
19018TIP3    H278470   0.863   6.255   0.581  1.9128  0.3695  1.1663
19019TIP3   OH278471   6.276   1.865   6.391 -0.1277  0.8343 -0.4198
19019TIP3    H178472   6.181   1.864   6.404  0.0124  1.0047  0.6578
19019TIP3    H278473   6.290   1.934   6.326 -0.4964  2.9766  1.6483
19020TIP3   OH278474   5.625   2.391   3.066  0.4357 -0.2758  0.4890
19020TIP3    H178475   5.641   2.472   3.018 -0.9960  0.5706  1.3550
19020TIP3    H278476   5.707   2.372   3.111  0.6256  1.0015  0.7069
19021TIP3   OH278477   6.783   1.001   4.803  0.1128  0.2719  0.3387
19021TIP3    H178478   6.848   0.950   4.754 -0.1706  1.0042 -0.8271
19021TIP3    H278479   6.826   1.019   4.887  0.8359 -0.4968  0.1513
19022TIP3   OH278480   6.588   0.439   2.635 -0.4647 -0.7364 -0.1132
19022TIP3    H178481   6.617   0.433   2.726 -0.4341 -1.0570 -0.1436
19022TIP3    H278482   6.615   0.527   2.607  0.6297 -1.0921 -0.1966
19023TIP3   OH278483   1.872   2.724   0.909  0.2873 -0.4796  0.3734
19023TIP3    H178484   1.950   2.726   0.965 -1.1671 -0.4943  2.5083
19023TIP3    H278485   1.800   2.750   0.966 -1.1108  1.1073 -1.9137
19024TIP3   OH278486   1.455   5.770  11.991 -0.1970  0.2377  0.0250
19024TIP3    H178487   1.458   5.861  12.019  0.2764  0.1954  0.1145
19024TIP3    H278488   1.455   5.773  11.896  0.8840  0.3018  0.0198
19025TIP3   OH278489   6.346   2.611  16.964 -0.5367 -0.2392 -0.4097
19025TIP3    H178490   6.342   2.674  16.893  0.2711  0.1295 -0.1356
19025TIP3    H278491   6.351   2.664  17.043  3.7948 -0.4743 -0.3015
19026TIP3   OH278492   1.768   2.906   3.634 -0.1159 -1.1303 -0.0302
19026TIP3    H178493   1.803   2.845   3.569  2.6607 -0.1976  0.4615
19026TIP3    H278494   1.809   2.878   3.717  0.2499  0.6185  0.4152
19027TIP3   OH278495   0.228   3.529   2.721  0.1053  0.3723 -0.0825
19027TIP3    H178496   0.311   3.488   2.745  0.8969  2.0345  0.1546
19027TIP3    H278497   0.242   3.562   2.632 -0.1111  1.1019  0.1458
19028TIP3   OH278498   1.778   6.710   1.656  0.2441  0.7860  0.0999
19028TIP3    H178499   1.704   6.770   1.647 -0.3264 -0.2242 -2.8017
19028TIP3    H278500   1.847   6.748   1.603  0.6503  0.0283  0.0668
19029TIP3   OH278501   6.414   1.396  15.197 -0.2582 -0.7838 -0.2701
19029TIP3    H178502   6.361   1.352  15.131 -0.0826  0.1140 -1.0353
19029TIP3    H278503   6.504   1.386  15.166  0.0269 -2.1172  0.9100
19030TIP3   OH278504   0.266   0.582  13.519 -0.2725 -1.1327  0.3583
19030TIP3    H178505   0.347   0.551  13.559  0.1314  0.0874  0.5219
19030TIP3    H278506   0.215   0.503  13.505  2.2498 -2.4011 -2.8377
19031TIP3   OH278507   1.101   5.682  13.987  0.0724 -0.3578 -0.1289
19031TIP3    H178508   1.033   5.636  13.937 -1.5502  1.7625 -0.0235
19031TIP3    H278509   1.172   5.618  13.994 -1.1604 -2.0602 -1.8162
19032TIP3   OH278510   2.735   5.293   6.107 -0.3505 -0.5900 -0.4568
19032TIP3    H178511   2.642   5.279   6.127 -0.2919  0.7227  0.9014
19032TIP3    H278512   2.757   5.375   6.151  1.9428 -1.8372  0.8784
19033TIP3   OH278513   1.676   6.627  14.472 -0.3139  0.3496  0.6147
19033TIP3    H178514   1.704   6.661  14.557  0.1368  0.7854  0.2952
19033TIP3    H278515   1.647   6.538  14.490  0.7359  0.0859  1.0491
19034TIP3   OH278516   5.969   1.118  11.608  0.0316 -0.1230 -0.1398
19034TIP3    H178517   6.043   1.170  11.575  0.1721 -0.0261  0.3222
19034TIP3    H278518   5.895   1.145  11.554 -0.2027  1.5433  0.9317
19035TIP3   OH278519   4.108   0.913  16.328 -0.5487  0.2821 -0.1415
19035TIP3    H178520   4.043   0.969  16.371 -0.7015 -0.5443  0.7453
19035TIP3    H278521   4.060   0.872  16.256 -1.3210 -1.0390  1.0686
19036TIP3   OH278522   3.307   4.803  13.991 -0.2793 -0.4847  0.7252
19036TIP3    H178523   3.241   4.749  13.948 -0.4430 -0.3385  0.7907
19036TIP3    H278524   3.391   4.766  13.962 -0.3768 -0.0642 -0.1375
19037TIP3   OH278525   1.495   6.492  17.206  0.1182  0.0558  0.0266
19037TIP3    H178526   1.582   6.471  17.174 -0.5645 -2.4842 -0.3306
19037TIP3    H278527   1.473   6.574  17.162  3.1231  2.0337  1.8241
19038TIP3   OH278528   4.302   1.635  13.676  0.1302  0.3584  0.4667
19038TIP3    H178529   4.296   1.631  13.580  0.7177 -1.6258  0.4666
19038TIP3    H278530   4.251   1.713  13.700 -0.9530  0.2775 -1.3838
19039TIP3   OH278531   3.466   2.319   5.229 -0.5059  0.6511  0.7166
19039TIP3    H178532   3.389   2.263   5.239 -1.4324  1.7060 -0.2299
19039TIP3    H278533   3.476   2.330   5.135  1.6148 -0.5023  0.7333
19040TIP3   OH278534   6.502   5.431  11.192 -0.0003  0.0911 -0.1248
19040TIP3    H178535   6.504   5.365  11.261 -0.4135 -1.6283 -1.6915
19040TIP3    H278536   6.593   5.460  11.183  0.0758  0.2742  1.0250
19041TIP3   OH278537   5.928   0.710  16.626  0.4199 -0.3888 -0.2985
19041TIP3    H178538   5.897   0.653  16.555 -0.4211  1.8677 -1.8713
19041TIP3    H278539   5.914   0.659  16.706  0.8534 -2.8129 -1.6633
19042TIP3   OH278540   2.721   6.537   3.734  0.1328 -0.0823  0.0660
19042TIP3    H178541   2.766   6.621   3.747 -1.1931  0.8327 -0.9500
19042TIP3    H278542   2.646   6.559   3.678 -1.7822 -1.4592  1.9581
19043TIP3   OH278543   0.257   0.850  12.477 -0.5760  0.0308  0.0843
19043TIP3    H178544   0.187   0.915  12.484 -1.4500 -0.9680  1.0330
19043TIP3    H278545   0.212   0.766  12.484  0.7492 -0.6330  1.0284
19044TIP3   OH278546   3.481   3.446  15.445  0.2526 -0.0135 -0.6244
19044TIP3    H178547   3.431   3.384  15.498 -1.2447  1.9677  0.4177
19044TIP3    H278548   3.416   3.489  15.390  0.9562  1.7267 -0.1823
19045TIP3   OH278549   6.627   5.400   4.511 -0.4546  1.2001  0.6164
19045TIP3    H178550   6.592   5.389   4.599 -0.4116  0.3683  0.5440
19045TIP3    H278551   6.623   5.312   4.473  3.0955  0.6920  1.1146
19046TIP3   OH278552   5.396   2.960  15.316  0.0734  0.5882  0.0236
19046TIP3    H178553   5.464   2.977  15.381  1.9831 -1.5885 -1.2642
19046TIP3    H278554   5.421   3.016  15.241  0.0419  0.3210 -0.1865
19047TIP3   OH278555   2.601   1.270   4.237  0.4520 -1.0687  0.0562
19047TIP3    H178556   2.604   1.312   4.151 -1.4248 -1.6861 -0.3556
19047TIP3    H278557   2.673   1.310   4.286 -0.2481  1.4663 -0.8279
19048TIP3   OH278558   5.617   2.765  15.400 -0.5204  0.1506 -0.5335
19048TIP3    H178559   5.600   2.777  15.307  0.4888 -1.5388 -0.9740
19048TIP3    H278560   5.697   2.816  15.417 -0.1643 -0.3157 -0.8083
19049TIP3   OH278561   1.164   2.172   0.668  0.1780 -0.2952 -0.1576
19049TIP3    H178562   1.156   2.115   0.592 -2.9293 -3.0542  2.0007
19049TIP3    H278563   1.128   2.256   0.639  0.1044 -0.9215 -1.9969
19050TIP3   OH278564   4.256   0.080  15.970  0.0625  0.0525  0.4278
19050TIP3    H178565   4.269   0.114  16.058  0.3462  0.6462  0.1617
19050TIP3    H278566   4.179   0.025  15.977  0.2610 -0.1440  1.1124
19051TIP3   OH278567   3.399   0.447  16.024 -0.1507  0.7447 -0.4925
19051TIP3    H178568   3.329   0.385  16.041  1.5084 -0.9844  0.4161
19051TIP3    H278569   3.405   0.452  15.929 -0.9466  0.2802 -0.5702
19052TIP3   OH278570   6.183   0.504  13.119 -0.1619  0.0813  0.5585
19052TIP3    H178571   6.104   0.459  13.146 -1.0944  2.1325  1.4698
19052TIP3    H278572   6.244   0.491  13.192 -1.5450  2.8434  2.3901
19053TIP3   OH278573   0.096   2.482   1.465  0.1144  0.5809 -0.3105
19053TIP3    H178574   0.105   2.420   1.393 -0.3476  1.2036 -0.9234
19053TIP3    H278575   0.085   2.567   1.422  2.0562  1.2986  0.5182
19054TIP3   OH278576   5.735   4.318  16.732 -0.0245 -0.0810 -0.4017
19054TIP3    H178577   5.737   4.364  16.816 -1.9290 -0.8284  0.1089
19054TIP3    H278578   5.693   4.234  16.752  2.2497 -1.5800 -1.5375
19055TIP3   OH278579   5.846   3.242  13.042  0.2355  0.2594  0.2075
19055TIP3    H178580   5.869   3.156  13.077  0.0214 -0.2021 -0.7370
19055TIP3    H278581   5.926   3.274  13.001 -0.5188 -1.0726 -2.5317
19056TIP3   OH278582   4.730   3.757  10.424 -0.1041 -0.0431  0.9779
19056TIP3    H178583   4.662   3.762  10.357  1.7432  0.3621 -0.9520
19056TIP3    H278584   4.788   3.687  10.395  0.9863  0.4304  1.9287
19057TIP3   OH278585   3.352   5.293   0.146 -0.3866  0.1992 -0.5184
19057TIP3    H178586   3.267   5.319   0.110 -0.2939 -1.6369 -2.2894
19057TIP3    H278587   3.331   5.253   0.230 -1.1782  0.4934 -0.5655
19058TIP3   OH278588   5.707   6.393  16.881  0.3538  0.2113 -0.4323
19058TIP3    H178589   5.640   6.425  16.942  0.5954 -1.7757  0.9862
19058TIP3    H278590   5.733   6.470  16.831 -1.6894  1.4068  0.2218
19059TIP3   OH278591   0.255   1.694  15.771  0.1558 -0.2049  0.0422
19059TIP3    H178592   0.259   1.749  15.693  0.1145  2.8014  1.9960
19059TIP3    H278593   0.188   1.734  15.826  0.3587 -2.0424  1.7699
19060TIP3   OH278594   6.573   6.046  16.565  0.0820  1.0166  0.0189
19060TIP3    H178595   6.491   6.004  16.591  1.1350 -1.3572 -0.2920
19060TIP3    H278596   6.564   6.061  16.471  0.1057  0.5363 -0.0589
19061TIP3   OH278597   2.823   0.922  15.337 -0.2381  0.2901  0.0502
19061TIP3    H178598   2.844   0.846  15.282 -0.1675  0.2036  0.1954
19061TIP3    H278599   2.730   0.936  15.324 -0.3321 -0.0591  0.3166
19062TIP3   OH278600   4.029   3.157   5.473 -0.4108 -0.3648 -0.3937
19062TIP3    H178601   4.124   3.170   5.469 -0.4317 -0.3299 -0.9246
19062TIP3    H278602   4.012   3.130   5.563 -0.3144  2.6842  0.6224
19063TIP3   OH278603   1.443   5.743  13.855  0.5197  0.3761  0.0941
19063TIP3    H178604   1.410   5.685  13.924 -0.0576 -1.0633 -1.3325
19063TIP3    H278605   1.519   5.698  13.819  0.1079  0.5076 -0.9886
19064TIP3   OH278606   0.333   1.221  13.543 -0.2018 -0.2046  0.7779
19064TIP3    H178607   0.240   1.214  13.522 -0.2890  0.3189  0.9909
19064TIP3    H278608   0.337   1.280  13.618  0.3381  0.0861  0.5259
19065TIP3   OH278609   4.496   3.241   1.407  0.3389  0.5826 -0.0023
19065TIP3    H178610   4.579   3.195   1.397  0.3733  0.7397 -0.4504
19065TIP3    H278611   4.481   3.282   1.322 -0.1024  0.7129  0.1372
19066TIP3   OH278612   0.015   2.986   2.322  0.2732 -0.2487 -0.0043
19066TIP3    H178613  -0.016   2.896   2.313 -1.9306  0.4949 -0.4287
19066TIP3    H278614  -0.018   3.030   2.244  1.2724  0.9596  0.2351
19067TIP3   OH278615   1.676   2.113  14.687 -0.2505  0.2987 -0.5226
19067TIP3    H178616   1.718   2.168  14.753 -0.1742  0.0721 -0.3826
19067TIP3    H278617   1.623   2.051  14.737 -0.0492  0.0070 -0.6647
19068TIP3   OH278618   3.587   2.128  11.849 -0.1073  0.2062  0.1537
19068TIP3    H178619   3.578   2.050  11.903 -0.5687  0.6246  0.6961
19068TIP3    H278620   3.497   2.158  11.836  0.0429  0.4583 -0.3316
19069TIP3   OH278621   1.869   2.395  15.345 -0.3002 -0.3448 -0.4343
19069TIP3    H178622   1.830   2.459  15.404 -0.1086  0.1825 -0.8645
19069TIP3    H278623   1.957   2.429  15.328  1.0350 -2.3349  1.8150
19070TIP3   OH278624   3.770   4.862  14.761  0.3949  0.1834 -0.0067
19070TIP3    H178625   3.759   4.767  14.769  0.4956  0.3323  3.0678
19070TIP3    H278626   3.860   4.878  14.789  0.5944  1.1574 -1.1389
19071TIP3   OH278627   1.336   6.784   4.676  0.2242 -0.6511  0.7505
19071TIP3    H178628   1.380   6.814   4.597 -0.4110 -1.3190  0.1359
19071TIP3    H278629   1.339   6.688   4.670 -0.5773 -0.7039  1.1146
19072TIP3   OH278630   5.179   1.892  14.494  0.2419 -0.5377 -0.0321
19072TIP3    H178631   5.099   1.853  14.529  1.9508 -1.7785  2.8422
19072TIP3    H278632   5.167   1.891  14.399 -2.9567 -0.9835  0.2807
19073TIP3   OH278633   6.520   1.507  14.110  0.2569  0.3734 -0.0930
19073TIP3    H178634   6.585   1.448  14.147 -1.0886 -0.5448  0.8975
19073TIP3    H278635   6.569   1.586  14.088  1.7046 -0.3009  0.5827
19074TIP3   OH278636   1.131   0.279  14.356  0.1055  0.1067  0.2173
19074TIP3    H178637   1.109   0.271  14.449 -1.2429  0.1437 -0.0699
19074TIP3    H278638   1.063   0.337  14.320 -0.7192 -1.6178 -1.1917
19075TIP3   OH278639   3.725   1.860  17.053  0.2360 -0.0290 -0.3353
19075TIP3    H178640   3.764   1.928  16.998 -2.6182  0.8784 -1.4238
19075TIP3    H278641   3.719   1.900  17.140  0.6895  0.2190 -0.4139
19076TIP3   OH278642   5.349   0.321  15.432  0.1355  0.0794 -0.0354
19076TIP3    H178643   5.358   0.417  15.425  0.1520  0.2058  1.4185
19076TIP3    H278644   5.355   0.290  15.341  2.4086  1.2645 -0.3586
19077TIP3   OH278645   5.766   5.960   1.924 -0.3392  0.0716 -0.4790
19077TIP3    H178646   5.718   6.039   1.899 -0.7580  0.6667  2.0223
19077TIP3    H278647   5.700   5.901   1.960  0.5616  0.5809  2.2344
19078TIP3   OH278648   3.111   1.200  11.921  0.3769  0.0117  0.0814
19078TIP3    H178649   3.171   1.127  11.935  2.4349  1.7270  0.6721
19078TIP3    H278650   3.161   1.264  11.870 -1.6240  0.7296 -1.1128
19079TIP3   OH278651   4.934   0.645   5.048 -0.3838 -0.1444  0.1035
19079TIP3    H178652   4.961   0.713   5.110 -0.6781 -1.5020  1.8117
19079TIP3    H278653   4.951   0.563   5.094  0.4020 -1.2730 -2.0725
19080TIP3   OH278654   3.982   4.169  11.869 -0.0620 -0.9232 -0.3406
19080TIP3    H178655   4.053   4.167  11.933  0.1580 -0.6054 -0.5736
19080TIP3    H278656   4.022   4.140  11.787 -0.5280 -2.1246 -0.1707
19081TIP3   OH278657   4.445   4.743   3.545  0.5179  0.1291  0.5895
19081TIP3    H178658   4.471   4.658   3.581  0.3176  0.1796  0.8615
19081TIP3    H278659   4.349   4.738   3.541  0.3160  1.1267  2.6529
19082TIP3   OH278660   0.143   6.437   5.747  0.4275  0.0628 -0.5814
19082TIP3    H178661   0.146   6.373   5.818  0.3173  0.1576 -0.4902
19082TIP3    H278662   0.156   6.521   5.790 -0.1404  0.1697 -0.6082
19083TIP3   OH278663   6.490   0.839  16.438  0.0517  0.1011 -0.6885
19083TIP3    H178664   6.573   0.799  16.465  0.3235  0.1858 -1.3624
19083TIP3    H278665   6.446   0.860  16.520 -0.3162 -1.9831 -0.2866
19084TIP3   OH278666   3.584   2.235  12.607 -0.0577 -0.1222  0.4146
19084TIP3    H178667   3.561   2.199  12.693 -0.2043 -0.6669  0.1493
19084TIP3    H278668   3.631   2.164  12.563 -0.3480  0.0089 -0.1135
19085TIP3   OH278669   1.720   0.502   5.534 -0.0810  0.6058  0.1736
19085TIP3    H178670   1.776   0.579   5.528 -0.1300  0.6017 -0.3909
19085TIP3    H278671   1.717   0.482   5.628  1.3569  0.2400  0.1693
19086TIP3   OH278672   2.254   1.650   2.856 -0.1232  0.6244  0.4526
19086TIP3    H178673   2.244   1.605   2.772  1.0347  1.3042 -0.0666
19086TIP3    H278674   2.179   1.619   2.908 -0.2542 -0.6561 -0.4327
19087TIP3   OH278675   6.685   2.744  16.923  0.3305  0.2784 -0.0840
19087TIP3    H178676   6.616   2.810  16.934  1.0017  1.4007 -2.1186
19087TIP3    H278677   6.724   2.736  17.011 -1.6117  0.4514  0.8519
19088TIP3   OH278678   2.558   6.368  11.599  0.4123  0.4459 -0.6663
19088TIP3    H178679   2.485   6.418  11.562  0.7631  0.8751 -0.7846
19088TIP3    H278680   2.633   6.391  11.545  1.4308  2.7936  1.5761
19089TIP3   OH278681   1.513   0.416   5.357  0.5310  0.7339  0.3290
19089TIP3    H178682   1.589   0.461   5.394 -0.3331  2.6091 -0.0756
19089TIP3    H278683   1.471   0.373   5.431  0.5936  1.7959  0.9891
19090TIP3   OH278684   0.427   5.996   2.229 -0.1605 -0.3939  0.1486
19090TIP3    H178685   0.391   5.921   2.276 -0.3443 -0.4750 -0.1170
19090TIP3    H278686   0.376   6.001   2.148  0.7833 -0.8572 -0.5004
19091TIP3   OH278687   0.916   4.727   2.437  0.0880 -0.3385  0.1458
19091TIP3    H178688   0.830   4.754   2.471  0.0760 -0.0999 -0.0623
19091TIP3    H278689   0.979   4.770   2.494  0.0693 -0.7161  0.4511
19092TIP3   OH278690   2.556   5.075  13.147  0.4814 -0.4068 -0.4180
19092TIP3    H178691   2.472   5.032  13.135  0.3856 -0.5162  0.5810
19092TIP3    H278692   2.621   5.007  13.128  0.3325 -0.8153  0.4808
19093TIP3   OH278693   4.460   1.741  14.540  0.0284  0.7358  0.1730
19093TIP3    H178694   4.505   1.825  14.529 -0.6630  1.0446 -0.3695
19093TIP3    H278695   4.410   1.750  14.621  0.4172  0.6318  0.4250
19094TIP3   OH278696   2.245   2.028  16.346  0.1763  0.2834 -0.3549
19094TIP3    H178697   2.315   2.074  16.301 -0.4535  1.8908  0.2270
19094TIP3    H278698   2.214   2.090  16.412  1.3939 -2.1166  2.6930
19095TIP3   OH278699   5.845   6.053  13.945  0.2476 -0.4516 -0.1434
19095TIP3    H178700   5.930   6.047  13.901  0.3652  0.6524 -0.1101
19095TIP3    H278701   5.846   5.983  14.009  1.7931  0.4964  0.9350
19096TIP3   OH278702   1.809   5.445  12.628  0.1359 -0.0097 -0.8146
19096TIP3    H178703   1.789   5.405  12.543 -0.4759  0.1349 -0.7436
19096TIP3    H278704   1.746   5.406  12.689  0.5022 -0.0345 -0.4469
19097TIP3   OH278705   3.402   5.358   4.054 -0.1923 -0.3436  0.1599
19097TIP3    H178706   3.313   5.387   4.073 -0.4182 -1.1250  0.3134
19097TIP3    H278707   3.456   5.437   4.065 -0.7698 -0.0229  0.7327
19098TIP3   OH278708   4.125   3.252   3.573 -0.1896 -0.1798 -0.0113
19098TIP3    H178709   4.167   3.332   3.604 -1.2694 -0.3479  2.0725
19098TIP3    H278710   4.181   3.182   3.606 -0.0120 -0.3189 -0.6032
19099TIP3   OH278711   0.441   6.393   5.760  0.4849 -0.0664  0.2651
19099TIP3    H178712   0.360   6.342   5.766  2.2037 -3.0691  0.1578
19099TIP3    H278713   0.490   6.351   5.690  2.0923  1.7960  0.1995
19100TIP3   OH278714   5.423   1.942   3.015 -0.2743 -0.4634 -0.0334
19100TIP3    H178715   5.453   1.854   3.036 -1.2438 -0.5178  1.2742
19100TIP3    H278716   5.334   1.946   3.050 -0.2137  1.0635  0.0243
19101TIP3   OH278717   0.847   5.813   1.760  0.2049  0.1097 -0.0896
19101TIP3    H178718   0.895   5.831   1.841 -0.6252  1.2953  0.1676
19101TIP3    H278719   0.847   5.718   1.752  0.3881 -0.0209  1.2578
19102TIP3   OH278720   1.294   0.572   1.359 -0.2256 -0.1970  0.4778
19102TIP3    H178721   1.244   0.642   1.317  0.2700  0.8382  1.5830
19102TIP3    H278722   1.251   0.491   1.329 -1.6746  0.6098  0.3001
19103TIP3   OH278723   5.054   2.039   0.948 -0.7926  0.1579  0.1361
19103TIP3    H178724   5.002   2.118   0.965  1.5437  1.4708  1.7379
19103TIP3    H278725   5.057   1.995   1.033 -0.7064 -0.8129 -0.3602
19104TIP3   OH278726   5.618   1.008   6.594  0.4103  0.3698 -0.7511
19104TIP3    H178727   5.591   0.947   6.663 -0.0391  1.2568 -0.1229
19104TIP3    H278728   5.711   1.023   6.610  1.0183 -1.5951 -2.0633
19105TIP3   OH278729   5.241   0.311  11.210  0.3000  0.3980 -0.3672
19105TIP3    H178730   5.239   0.346  11.121  1.1409  1.2669 -0.0537
19105TIP3    H278731   5.311   0.246  11.209  2.5177  2.5906  0.3913
19106TIP3   OH278732   2.110   0.277  11.292  0.2509  0.3767 -0.4836
19106TIP3    H178733   2.150   0.306  11.210 -1.9243  2.7213 -0.8282
19106TIP3    H278734   2.047   0.209  11.266 -0.5657  1.2453 -0.8113
19107TIP3   OH278735   3.366   3.285  13.344  0.2833 -0.0552  0.0118
19107TIP3    H178736   3.404   3.335  13.416  0.8568  0.3871 -0.5819
19107TIP3    H278737   3.380   3.339  13.267 -3.2526  1.0230 -0.0272
19108TIP3   OH278738   2.133   5.895  12.759  0.0561  0.3712  0.2342
19108TIP3    H178739   2.212   5.949  12.758  0.7224 -0.5537 -1.6282
19108TIP3    H278740   2.094   5.908  12.673  0.2277 -2.0454 -0.2693
19109TIP3   OH278741   3.894   3.834   4.567 -0.2329 -0.4588 -0.5386
19109TIP3    H178742   3.986   3.853   4.552 -0.3300 -1.4864 -2.8488
19109TIP3    H278743   3.869   3.893   4.638  2.9645 -2.5166  2.6311
19110TIP3   OH278744   5.478   6.208  16.962 -0.0951 -0.4655 -0.2570
19110TIP3    H178745   5.495   6.131  17.015 -0.0099  0.0977  0.5583
19110TIP3    H278746   5.532   6.277  17.000 -1.2837  0.3805 -0.0044
19111TIP3   OH278747   2.336   1.516   5.468 -0.5053  0.0458  0.0764
19111TIP3    H178748   2.261   1.467   5.502 -0.7957 -2.0812 -3.2500
19111TIP3    H278749   2.298   1.579   5.407  0.3057 -0.0178 -0.5134
19112TIP3   OH278750   0.011   5.488  17.174  0.3815  0.6803 -0.3577
19112TIP3    H178751  -0.058   5.441  17.222  1.0242  0.1409  0.0591
19112TIP3    H278752   0.093   5.452  17.209  0.9382  2.7689  0.6502
19113TIP3   OH278753   0.134   0.298   5.480 -0.3063 -0.0606 -0.1816
19113TIP3    H178754   0.044   0.327   5.491 -0.7244 -1.6766  1.0430
19113TIP3    H278755   0.139   0.215   5.527  1.1781 -1.2928 -2.2929
19114TIP3   OH278756   3.422   0.442  12.412 -0.3926  0.3180  0.6498
19114TIP3    H178757   3.407   0.520  12.465 -1.3076  0.4737  0.1700
19114TIP3    H278758   3.362   0.450  12.338  0.0879 -0.4359  0.1542
19115TIP3   OH278759   6.702   4.476   4.212  0.5492 -0.0781  0.2960
19115TIP3    H178760   6.786   4.453   4.252  0.1146  0.1140  1.3430
19115TIP3    H278761   6.638   4.465   4.282 -0.4464 -1.1287 -0.7317
19116TIP3   OH278762   3.048   2.143  14.138 -0.1203  0.1826 -0.3768
19116TIP3    H178763   3.071   2.128  14.230 -1.5994  0.7358  0.1097
19116TIP3    H278764   2.956   2.168  14.140 -0.0514  0.6676 -1.9763
19117TIP3   OH278765   2.823   4.021  14.500 -0.4758  0.0138  0.1725
19117TIP3    H178766   2.894   3.961  14.475  0.4103  0.3355  1.7837
19117TIP3    H278767   2.799   4.064  14.418  1.3321  0.0312 -0.4029
19118TIP3   OH278768   2.177   3.588   0.407  0.1505  0.1505  0.2219
19118TIP3    H178769   2.209   3.523   0.343  0.6190  0.0227  0.5844
19118TIP3    H278770   2.095   3.550   0.439  0.4439 -0.2893  0.4651
19119TIP3   OH278771   1.081   5.038   3.067  0.5986  0.0408  0.3623
19119TIP3    H178772   1.043   5.026   3.154 -0.3857  0.4956  0.0015
19119TIP3    H278773   1.091   4.949   3.032 -0.3145 -0.0791  0.3905
19120TIP3   OH278774   0.156   2.499   1.174  0.3008  0.3544 -0.0915
19120TIP3    H178775   0.192   2.577   1.131  1.0848  0.5199  0.8261
19120TIP3    H278776   0.232   2.444   1.192 -0.0469  0.1239  0.7394
19121TIP3   OH278777   4.451   1.958  16.010  0.6390 -0.0943  0.4066
19121TIP3    H178778   4.534   1.920  15.984  0.0278 -0.4777 -1.0581
19121TIP3    H278779   4.398   1.957  15.931 -0.5946  0.6011  1.1923
19122TIP3   OH278780   2.621   6.441   4.709 -0.2431  0.1975  0.1194
19122TIP3    H178781   2.622   6.348   4.733 -0.3383 -0.2337 -1.4088
19122TIP3    H278782   2.640   6.487   4.790 -0.5742 -1.1411  0.9947
19123TIP3   OH278783   6.396   4.850   3.412  0.8816 -0.6237  0.0811
19123TIP3    H178784   6.474   4.806   3.378  0.9406 -2.0149  1.8560
19123TIP3    H278785   6.370   4.797   3.487  0.3387  1.8688  1.7454
19124TIP3   OH278786   2.839   6.220  14.618 -0.7137  0.0714 -0.3197
19124TIP3    H178787   2.897   6.216  14.542  0.8360 -0.3605  0.8291
19124TIP3    H278788   2.773   6.285  14.594 -0.3053 -0.1032 -2.0455
19125TIP3   OH278789   4.982   2.053  12.127  0.3582  0.6458  0.0307
19125TIP3    H178790   4.986   2.043  12.032 -1.1255  1.2365 -0.1299
19125TIP3    H278791   4.920   1.986  12.156  0.9150  0.3674  0.6114
19126TIP3   OH278792   3.557   5.675  16.048  0.4863  0.5778  0.5354
19126TIP3    H178793   3.595   5.748  16.098 -0.9843  0.3570  2.0769
19126TIP3    H278794   3.510   5.624  16.114 -1.2153  0.0387 -1.0314
19127TIP3   OH278795   2.024   2.771  10.772  0.8148 -0.1599 -0.1501
19127TIP3    H178796   2.116   2.754  10.750  1.4493  1.4069  1.0789
19127TIP3    H278797   2.002   2.706  10.839  1.5983  0.5339  0.8101
19128TIP3   OH278798   6.013   1.461  14.352  0.2991 -0.3524 -0.0524
19128TIP3    H178799   6.089   1.448  14.409  0.4230  1.0544  0.1312
19128TIP3    H278800   5.939   1.471  14.413  0.1721 -0.4532 -0.1895
19129TIP3   OH278801   1.347   2.875   1.661  0.2160  0.5124 -0.1192
19129TIP3    H178802   1.264   2.854   1.619  0.6022  0.7699 -1.0378
19129TIP3    H278803   1.395   2.925   1.595  1.5371 -0.5785 -0.0258
19130TIP3   OH278804   2.680   5.282  12.237  0.4918 -0.0125  0.0232
19130TIP3    H178805   2.754   5.226  12.215  0.6787 -0.3121  1.3416
19130TIP3    H278806   2.711   5.337  12.309 -0.3749  0.2548  0.2094
19131TIP3   OH278807   4.554   5.565  11.593  0.0919  0.1131  0.1388
19131TIP3    H178808   4.528   5.619  11.518 -0.3834 -2.2008 -1.4763
19131TIP3    H278809   4.472   5.543  11.637 -0.0172 -1.1916 -0.6474
19132TIP3   OH278810   0.378   4.993  16.966 -0.1236  0.0262 -1.4640
19132TIP3    H178811   0.466   4.968  16.939  0.0856 -1.4766  0.3803
19132TIP3    H278812   0.341   4.913  17.004 -1.7101  1.0318 -0.7896
19133TIP3   OH278813   1.865   1.099  11.471 -0.0048  0.6543  0.1962
19133TIP3    H178814   1.908   1.133  11.391  0.7537 -0.3766  0.1452
19133TIP3    H278815   1.849   1.177  11.524  2.8848  1.0642  0.6566
19134TIP3   OH278816   6.222   2.574   5.303 -0.9847  0.1282  0.0284
19134TIP3    H178817   6.199   2.599   5.213  0.9863 -0.5991 -0.7315
19134TIP3    H278818   6.225   2.657   5.351  1.3228  1.0150 -1.4460
19135TIP3   OH278819   5.092   1.224  12.884 -0.7909 -0.2897  0.5593
19135TIP3    H178820   5.019   1.280  12.914 -0.6919  0.8220 -1.1216
19135TIP3    H278821   5.055   1.136  12.881 -1.0518 -0.3353  2.9717
19136TIP3   OH278822   6.108   6.144   0.721  0.2215 -0.4040  0.1982
19136TIP3    H178823   6.099   6.137   0.816 -0.9206  2.2090  0.3789
19136TIP3    H278824   6.196   6.111   0.703 -0.1755 -2.6485  1.8737
19137TIP3   OH278825   6.016   3.392  10.957 -0.1034  0.1197 -0.1752
19137TIP3    H178826   5.986   3.446  11.031 -1.5904  0.0661 -0.7022
19137TIP3    H278827   6.019   3.453  10.883 -0.0468 -0.1308 -0.3802
19138TIP3   OH278828   5.003   6.610   1.251  0.1044 -0.2927 -0.0163
19138TIP3    H178829   4.998   6.588   1.344  1.7358 -1.3282 -0.1422
19138TIP3    H278830   4.912   6.629   1.227 -0.6678 -1.9650  1.3154
19139TIP3   OH278831   3.904   2.844   3.205  0.1065  0.3822  0.0812
19139TIP3    H178832   3.946   2.818   3.287 -0.4745  2.1924  1.0163
19139TIP3    H278833   3.977   2.861   3.145  0.5829 -4.9639 -1.3240
19140TIP3   OH278834   1.811   0.542   2.868  0.7540  0.0941  0.2316
19140TIP3    H178835   1.850   0.621   2.905  2.9339 -0.2588 -1.1428
19140TIP3    H278836   1.782   0.568   2.781 -0.5090 -0.1177  0.5709
19141TIP3   OH278837   0.188   2.027  14.194 -0.2125  0.0836  0.2942
19141TIP3    H178838   0.229   2.108  14.164  0.1706  0.2943  1.3494
19141TIP3    H278839   0.103   2.054  14.228 -0.3200 -0.0489  0.1389
19142TIP3   OH278840   5.389   2.018   2.658 -0.1286 -0.0612  0.2878
19142TIP3    H178841   5.351   1.931   2.668  0.5151 -0.3953 -0.0740
19142TIP3    H278842   5.344   2.072   2.722 -1.4623 -0.3547 -0.3640
19143TIP3   OH278843   1.370   3.735  15.361 -0.0501 -0.3421 -0.1587
19143TIP3    H178844   1.428   3.680  15.414 -0.3612  1.3746  2.1306
19143TIP3    H278845   1.427   3.770  15.293  0.6847 -1.6515 -0.2527
19144TIP3   OH278846   3.354   1.779  14.482 -0.6458  0.7980  0.2472
19144TIP3    H178847   3.330   1.776  14.390  2.1455  0.4702 -0.5558
19144TIP3    H278848   3.423   1.846  14.487 -0.4616  0.5407  2.0100
19145TIP3   OH278849   0.542   4.820   2.867 -0.5988 -0.0085 -0.0223
19145TIP3    H178850   0.447   4.818   2.867 -0.6696  0.3805 -2.4703
19145TIP3    H278851   0.568   4.735   2.904 -1.9004 -0.4160 -0.0132
19146TIP3   OH278852   1.994   3.876   3.821  0.1291  0.4923 -0.0887
19146TIP3    H178853   2.005   3.876   3.916  0.4883  2.6933 -0.0748
19146TIP3    H278854   2.042   3.954   3.792 -1.0589  0.5775 -1.9315
19147TIP3   OH278855   5.067   5.492   0.314  0.3136  0.5664 -0.5239
19147TIP3    H178856   4.975   5.476   0.335 -0.1271  0.5568 -2.3614
19147TIP3    H278857   5.066   5.534   0.228  1.9955  1.3754 -0.2026
19148TIP3   OH278858   1.653   2.102   2.275  0.2697 -0.0289 -0.2180
19148TIP3    H178859   1.695   2.021   2.305  0.2559  0.2762  0.6271
19148TIP3    H278860   1.726   2.162   2.260  0.2196  0.0893  0.0150
19149TIP3   OH278861   2.506   3.334   1.154 -0.4301 -0.6971  0.1651
19149TIP3    H178862   2.510   3.277   1.231  0.3132  0.2250  0.8321
19149TIP3    H278863   2.521   3.422   1.189  0.0860 -0.2847 -1.0679
19150TIP3   OH278864   1.598   1.112  13.757  0.1663 -0.0064  0.2086
19150TIP3    H178865   1.572   1.149  13.842 -1.8654 -0.6033 -0.0855
19150TIP3    H278866   1.589   1.017  13.769  0.1970 -0.1101 -0.5703
19151TIP3   OH278867   2.777   2.834  14.765  0.0847 -0.3352 -0.4152
19151TIP3    H178868   2.833   2.855  14.840 -0.9026  0.8394  0.0255
19151TIP3    H278869   2.764   2.739  14.771 -0.2260 -0.2248  1.1000
19152TIP3   OH278870   2.797   2.847   6.297  0.6913  0.4819 -0.0791
19152TIP3    H178871   2.884   2.853   6.256  1.7313 -0.4335  1.8311
19152TIP3    H278872   2.811   2.880   6.386 -0.7179 -0.4866  0.5412
19153TIP3   OH278873   3.969   3.680  16.997  0.1942  0.1121  0.1840
19153TIP3    H178874   3.879   3.708  17.015 -0.1124 -1.2807  0.9338
19153TIP3    H278875   4.004   3.656  17.083  1.6078  1.4736  0.0390
19154TIP3   OH278876   6.028   4.638  12.047 -0.5671  0.2527  0.1204
19154TIP3    H178877   6.052   4.659  12.137  0.7209  1.6768 -0.5050
19154TIP3    H278878   6.068   4.708  11.995 -0.3128 -1.1472 -1.6657
19155TIP3   OH278879   6.043   6.358   4.733  0.2321 -0.2301  0.3798
19155TIP3    H178880   5.968   6.412   4.705  1.9893  0.7959 -2.9006
19155TIP3    H278881   6.025   6.271   4.696  0.7454  0.1042 -0.7030
19156TIP3   OH278882   2.731   1.427   2.466  0.1048 -0.1921  1.1133
19156TIP3    H178883   2.756   1.338   2.442  1.0107  0.7095 -1.6349
19156TIP3    H278884   2.678   1.416   2.545  0.6696 -3.0937  1.2120
19157TIP3   OH278885   3.617   4.325   0.961 -0.1435 -0.5456  0.0151
19157TIP3    H178886   3.700   4.324   1.008 -0.3366  0.3453  0.3893
19157TIP3    H278887   3.596   4.418   0.951 -0.8156 -0.7514 -0.5733
19158TIP3   OH278888   3.228   5.994  11.330 -0.2102 -0.6224 -0.2336
19158TIP3    H178889   3.163   6.037  11.274  0.0511 -0.0698 -0.1142
19158TIP3    H278890   3.186   5.912  11.356 -0.1755 -1.0824 -1.5656
19159TIP3   OH278891   1.387   0.667   3.304  0.1441  0.2605 -0.1177
19159TIP3    H178892   1.366   0.745   3.355 -2.6022 -1.6062  1.8663
19159TIP3    H278893   1.421   0.604   3.369 -0.4742 -1.1469 -1.1050
19160TIP3   OH278894   3.378   6.535  13.699 -0.1980 -0.1158 -0.8801
19160TIP3    H178895   3.381   6.523  13.604 -1.2311  0.5893 -1.0236
19160TIP3    H278896   3.304   6.595  13.713 -1.5999 -2.0735  0.5690
19161TIP3   OH278897   0.657   4.281  13.713  0.4286 -0.0428  0.2603
19161TIP3    H178898   0.643   4.229  13.792  0.5766  0.3675  0.5607
19161TIP3    H278899   0.693   4.219  13.649 -0.3062 -0.5162  0.3036
19162TIP3   OH278900   6.560   6.232   2.226  0.2778  0.2525 -0.0690
19162TIP3    H178901   6.567   6.141   2.253  1.0055  0.1205 -0.6632
19162TIP3    H278902   6.650   6.258   2.204  0.2679  1.4515  1.1366
19163TIP3   OH278903   4.668   0.501   2.133  0.0833 -0.3038  0.1491
19163TIP3    H178904   4.755   0.531   2.161  0.4968  0.6510 -1.9497
19163TIP3    H278905   4.609   0.569   2.164  0.6822  1.3878 -2.1145
19164TIP3   OH278906   1.074   0.058   2.961 -0.1456 -0.3519  0.0570
19164TIP3    H178907   1.003   0.120   2.976 -0.7762  0.2485 -4.0385
19164TIP3    H278908   1.054  -0.016   3.018 -2.7665  0.7420  0.7108
19165TIP3   OH278909   2.665   5.151  16.621 -0.5414 -0.0796  0.1576
19165TIP3    H178910   2.744   5.101  16.641 -0.1449 -0.2002 -1.5242
19165TIP3    H278911   2.694   5.242  16.621 -0.6413 -0.0464  0.5363
19166TIP3   OH278912   6.409   0.423   4.166  0.0437 -0.1344 -0.1853
19166TIP3    H178913   6.502   0.424   4.185  0.0331  1.8072 -0.1224
19166TIP3    H278914   6.379   0.338   4.199  1.5408 -0.2400  0.9952
19167TIP3   OH278915   4.539   6.775  11.871  0.3208 -0.2473 -0.0904
19167TIP3    H178916   4.517   6.839  11.938 -0.1549  1.0331 -1.4151
19167TIP3    H278917   4.459   6.766  11.818  0.8270 -0.8564 -0.7798
19168TIP3   OH278918   5.076   2.033   1.211 -0.1346  0.3123  0.3755
19168TIP3    H178919   5.133   2.032   1.288  0.8477  1.3718 -0.2954
19168TIP3    H278920   5.013   2.103   1.228 -1.2421 -0.8440  1.1071
19169TIP3   OH278921   5.642   1.381   3.662  0.3389 -0.1940  0.2075
19169TIP3    H178922   5.609   1.291   3.668  2.9106 -1.1657  1.0275
19169TIP3    H278923   5.567   1.436   3.685 -1.6237 -2.0223 -1.3714
19170TIP3   OH278924   4.444   5.251   2.769 -0.0194  0.4021 -0.2450
19170TIP3    H178925   4.376   5.279   2.831  1.5799  1.6079  1.0638
19170TIP3    H278926   4.515   5.218   2.825 -0.2005 -2.7210 -1.6098
19171TIP3   OH278927   3.579   2.472   1.010  0.0926 -0.1368 -0.2704
19171TIP3    H178928   3.544   2.488   1.097 -0.0525 -0.5569 -0.2486
19171TIP3    H278929   3.664   2.515   1.010 -0.3681  0.7996 -0.2847
19172TIP3   OH278930   1.328   2.669   3.839  0.1298  0.1984  0.3151
19172TIP3    H178931   1.365   2.702   3.758 -2.4453 -1.4554 -1.6706
19172TIP3    H278932   1.385   2.595   3.863  1.0516  0.8606  0.2171
19173TIP3   OH278933   2.816   4.653   5.204 -0.1755 -0.8019 -0.1668
19173TIP3    H178934   2.727   4.634   5.233 -0.8484  0.7601 -1.0915
19173TIP3    H278935   2.835   4.584   5.140 -2.0151  0.5964 -2.3873
19174TIP3   OH278936   1.116   4.522   0.429 -0.1319  0.0405 -0.1424
19174TIP3    H178937   1.079   4.574   0.357 -2.5976  0.2281  1.1234
19174TIP3    H278938   1.149   4.442   0.387 -1.4028  0.1892 -1.5137
19175TIP3   OH278939   5.651   6.583  15.837 -0.5884 -0.1005  0.7486
19175TIP3    H178940   5.696   6.498  15.841 -0.3872 -0.0396 -0.0268
19175TIP3    H278941   5.710   6.638  15.786 -1.7705 -0.1742 -0.7450
19176TIP3   OH278942   6.118   4.851  12.758 -0.4104  0.3044 -0.3886
19176TIP3    H178943   6.132   4.933  12.711 -1.7327  1.0981  0.5128
19176TIP3    H278944   6.025   4.832  12.746 -0.5057 -0.1169  0.8495
19177TIP3   OH278945   5.946   0.200   1.919 -1.2682  0.5117 -0.3091
19177TIP3    H178946   5.931   0.230   2.009 -0.6810  0.0922 -0.0636
19177TIP3    H278947   6.026   0.244   1.891 -1.3151  0.4532 -0.5415
19178TIP3   OH278948   1.039   5.472  15.564  0.3504  0.7747  0.3296
19178TIP3    H178949   1.010   5.383  15.584  2.1790  0.2250  0.7133
19178TIP3    H278950   0.970   5.508  15.508  0.7287 -1.7295 -1.9093
19179TIP3   OH278951   0.903   6.468   5.076  1.0139  0.3674 -0.5271
19179TIP3    H178952   0.821   6.455   5.030  1.1007  1.1823 -0.9286
19179TIP3    H278953   0.887   6.543   5.134  1.2116 -0.0170  0.0393
19180TIP3   OH278954   5.511   0.938   1.064 -0.4016  0.9333  0.0033
19180TIP3    H178955   5.460   0.901   0.992  0.0928  1.6899 -0.7551
19180TIP3    H278956   5.532   0.863   1.120 -0.4223  0.2671 -0.8691
19181TIP3   OH278957   3.241   4.533   2.600 -0.1673  0.1578 -0.1830
19181TIP3    H178958   3.251   4.627   2.610  0.2905  0.3157 -1.7927
19181TIP3    H278959   3.173   4.509   2.663 -2.2252  1.9993 -1.5462
19182TIP3   OH278960   3.018   3.237   0.971  0.0610 -0.0538 -0.0102
19182TIP3    H178961   3.038   3.202   0.885  0.2637 -1.9374  0.7493
19182TIP3    H278962   3.098   3.282   0.998 -0.0014  0.5369 -0.7829
19183TIP3   OH278963   4.616   2.735  11.997  0.2098 -0.9889  0.2867
19183TIP3    H178964   4.656   2.822  12.001 -1.2622 -0.3271  1.1545
19183TIP3    H278965   4.684   2.676  12.031  0.6480  0.0357  1.2478
19184TIP3   OH278966   5.160   1.774  11.133  0.3181  0.5133 -0.4583
19184TIP3    H178967   5.074   1.747  11.166  0.3489  0.7833 -0.1576
19184TIP3    H278968   5.141   1.818  11.050  0.3081 -0.8759 -1.2255
19185TIP3   OH278969   3.121   5.135  17.122  0.1135 -0.4849 -0.1231
19185TIP3    H178970   3.034   5.169  17.145  0.6277  1.0215 -0.2372
19185TIP3    H278971   3.169   5.213  17.092  1.8171 -1.0909  0.9034
19186TIP3   OH278972   5.192   1.564   3.920 -0.1693 -0.3862 -0.0458
19186TIP3    H178973   5.211   1.545   4.012 -0.5485 -1.2840 -0.1476
19186TIP3    H278974   5.191   1.660   3.916  0.0922 -0.3323  0.8316
19187TIP3   OH278975   2.473   1.611  15.668  0.0828  0.2496  0.3473
19187TIP3    H178976   2.460   1.705  15.682 -0.4096  0.1019  0.9038
19187TIP3    H278977   2.454   1.571  15.753 -2.1403 -0.5758 -0.4490
19188TIP3   OH278978   0.980   2.329   3.042 -0.5043  0.6675  0.1729
19188TIP3    H178979   1.016   2.378   3.116  1.7501 -1.0644  0.3336
19188TIP3    H278980   1.041   2.346   2.970  0.1328 -1.4668  0.1265
19189TIP3   OH278981   6.234   2.322  16.711  0.1193  0.3721 -0.4098
19189TIP3    H178982   6.153   2.304  16.759  0.6839 -1.6805 -0.1466
19189TIP3    H278983   6.204   2.355  16.626 -0.9774  0.0940 -0.1536
19190TIP3   OH278984   0.461   3.856   0.977  0.1084  0.1771  0.0670
19190TIP3    H178985   0.498   3.917   1.040  0.6737 -1.3831  1.3340
19190TIP3    H278986   0.535   3.804   0.947 -0.4302 -0.2508 -0.5528
19191TIP3   OH278987   6.098   5.642  15.671 -0.0699 -0.6662 -0.5528
19191TIP3    H178988   6.037   5.628  15.598  0.3520  1.0552 -1.2835
19191TIP3    H278989   6.180   5.603  15.639 -0.1134 -0.6957 -0.6302
19192TIP3   OH278990   3.016   0.378  11.554  0.8079  0.5058  0.0988
19192TIP3    H178991   3.087   0.315  11.564  0.5371  0.3245  0.9739
19192TIP3    H278992   2.995   0.377  11.460  1.3287 -0.1214 -0.0123
19193TIP3   OH278993   2.316   0.784  14.968  0.7901 -0.2338 -0.4560
19193TIP3    H178994   2.294   0.751  14.880 -0.1865  1.9046 -1.0922
19193TIP3    H278995   2.396   0.836  14.954  1.2294 -0.7489  0.1354
19194TIP3   OH278996   1.038   1.008   6.027  0.0048 -0.0503  1.2328
19194TIP3    H178997   0.986   1.087   6.037  0.9586  0.5802  1.3162
19194TIP3    H278998   1.127   1.034   6.050  0.4574 -0.9849  0.6302
19195TIP3   OH278999   2.336   4.056   2.136 -0.6499 -0.1467  1.0960
19195TIP3    H179000   2.412   4.111   2.115  0.8269 -2.6378 -0.5919
19195TIP3    H279001   2.269   4.118   2.163  0.3607  2.6814 -2.1979
19196TIP3   OH279002   4.777   5.908   3.081  0.0189 -0.0072 -0.0186
19196TIP3    H179003   4.781   5.961   3.001 -0.2196  0.4048  0.2369
19196TIP3    H279004   4.730   5.963   3.143  1.0423  0.0577  0.7147
19197TIP3   OH279005   6.421   1.098  14.055  0.6108 -0.1312 -0.2548
19197TIP3    H179006   6.332   1.131  14.038 -0.6593 -3.0534  0.1095
19197TIP3    H279007   6.454   1.155  14.124 -0.8733  1.1955 -0.5706
19198TIP3   OH279008   3.970   6.561  16.284  0.1818 -0.1323 -0.0891
19198TIP3    H179009   3.883   6.600  16.277 -0.3651 -0.8083  2.1424
19198TIP3    H279010   4.003   6.560  16.194 -0.5971  3.4398 -0.5457
19199TIP3   OH279011   3.321   6.296  11.665 -0.2956 -0.1716  0.5908
19199TIP3    H179012   3.382   6.233  11.706 -1.7517 -1.5742  0.6901
19199TIP3    H279013   3.234   6.266  11.692 -1.0909  1.2704 -0.2698
19200TIP3   OH279014   4.324   2.918   2.905 -0.1796  0.6359  0.2320
19200TIP3    H179015   4.274   2.914   2.824  0.4696 -0.3704 -0.1364
19200TIP3    H279016   4.310   2.833   2.946  1.1391  0.3558  0.1563
19201TIP3   OH279017   2.702   3.156  10.831  0.6580 -0.3607  0.4068
19201TIP3    H179018   2.665   3.092  10.770 -0.0238  0.1194  0.2996
19201TIP3    H279019   2.707   3.109  10.914  0.4736 -0.6567  0.2553
19202TIP3   OH279020   5.719   5.492   5.904 -0.5747  0.4612 -0.0132
19202TIP3    H179021   5.664   5.442   5.964  0.9914  0.1545  1.2636
19202TIP3    H279022   5.697   5.458   5.817 -0.0171 -2.0915  0.7376
19203TIP3   OH279023   3.929   2.504  12.515  0.5337  0.8476 -0.7491
19203TIP3    H179024   3.849   2.522  12.564  0.4670 -0.2971 -0.4067
19203TIP3    H279025   3.992   2.568  12.548  0.4777  0.1463  0.8236
19204TIP3   OH279026   2.901   1.329  14.756  0.0840  0.0189 -0.2608
19204TIP3    H179027   2.882   1.251  14.705  0.0970 -0.6224  0.6918
19204TIP3    H279028   2.859   1.400  14.708  0.6747 -0.4616 -1.5154
19205TIP3   OH279029   4.368   0.148  17.153 -0.5647 -0.9276 -0.5735
19205TIP3    H179030   4.446   0.116  17.107 -0.4921 -0.8086 -0.5334
19205TIP3    H279031   4.396   0.154  17.245 -0.4702 -0.4102 -0.6321
19206TIP3   OH279032   2.223   5.103  16.465 -0.2777 -0.4178 -0.0729
19206TIP3    H179033   2.159   5.139  16.526  0.1823  2.0414 -0.9186
19206TIP3    H279034   2.170   5.073  16.390 -0.4964  1.7669 -0.8472
19207TIP3   OH279035   6.776   3.691   2.214  0.1827  0.0873  0.3421
19207TIP3    H179036   6.845   3.757   2.227  0.5972 -0.3347  0.3253
19207TIP3    H279037   6.732   3.685   2.299  1.5206 -1.1362  1.0080
19208TIP3   OH279038   0.713   3.143   2.083  0.2331  0.2940 -0.0024
19208TIP3    H179039   0.648   3.192   2.134  0.4049 -0.9707  1.4962
19208TIP3    H279040   0.747   3.207   2.020 -2.6483  0.9197 -1.0697
19209TIP3   OH279041   3.499   5.109   2.389  0.1703  0.3323 -0.1098
19209TIP3    H179042   3.504   5.014   2.394 -0.4234  0.3196  0.4432
19209TIP3    H279043   3.414   5.130   2.429 -0.5950  0.9562 -1.9341
19210TIP3   OH279044   3.176   6.113   0.332  0.4804 -0.0021 -0.4728
19210TIP3    H179045   3.165   6.072   0.418  1.1156 -0.9821 -0.8358
19210TIP3    H279046   3.158   6.205   0.347  1.0227 -0.0804  0.8130
19211TIP3   OH279047   4.609   3.788  13.330  0.2062  0.2736  0.2055
19211TIP3    H179048   4.700   3.819  13.327  0.3761 -0.0773  1.3194
19211TIP3    H279049   4.614   3.696  13.302 -0.1997  0.9372 -2.3650
19212TIP3   OH279050   2.017   4.793  13.714  0.5163  0.1819  0.4368
19212TIP3    H179051   2.027   4.888  13.708 -0.2688  0.1879 -2.7800
19212TIP3    H279052   1.931   4.780  13.752  0.3305  0.7997  0.2383
19213TIP3   OH279053   3.370   2.670  12.287  0.0870  0.0396 -0.8040
19213TIP3    H179054   3.429   2.600  12.313 -0.0057  0.7419  1.4861
19213TIP3    H279055   3.283   2.638  12.312 -0.0413  0.6356 -0.4741
19214TIP3   OH279056   4.967   0.783  13.002 -0.3296 -0.2098 -0.3829
19214TIP3    H179057   4.917   0.747  12.929 -1.9896 -0.4091  0.7893
19214TIP3    H279058   4.982   0.708  13.060  1.2721 -0.1265 -0.6434
19215TIP3   OH279059   0.644   4.928  15.213 -0.1931  0.1499  0.4582
19215TIP3    H179060   0.627   4.834  15.226  2.0013 -0.5424 -1.1163
19215TIP3    H279061   0.611   4.969  15.293 -1.7263 -1.8646  0.9635
19216TIP3   OH279062   0.358   4.360  12.142  0.0696  0.0905  0.4709
19216TIP3    H179063   0.387   4.358  12.051 -1.2728 -0.9635  0.0240
19216TIP3    H279064   0.320   4.447  12.153 -1.2334 -0.3248 -0.5057
19217TIP3   OH279065   6.680   4.973  14.898  0.0584 -0.4289  0.1644
19217TIP3    H179066   6.585   4.972  14.911 -0.0251 -0.2268 -0.3755
19217TIP3    H279067   6.691   5.012  14.811  0.5519 -2.0125 -0.5218
19218TIP3   OH279068   6.529   2.808   1.667  0.2005 -0.1401  0.5891
19218TIP3    H179069   6.608   2.855   1.643 -0.4306  1.2393  1.1215
19218TIP3    H279070   6.477   2.871   1.717 -0.3317 -1.6320  2.0531
19219TIP3   OH279071   1.733   2.394  12.210  0.6378 -0.1894  0.7233
19219TIP3    H179072   1.802   2.355  12.264 -0.6520 -0.5252  2.1725
19219TIP3    H279073   1.675   2.438  12.272  0.2321  1.2168 -0.5859
19220TIP3   OH279074   1.811   5.528   5.512 -0.3139  0.1722  0.3898
19220TIP3    H179075   1.747   5.498   5.446 -0.4006 -1.1377  1.0249
19220TIP3    H279076   1.879   5.461   5.510  1.8255  2.2504 -1.2570
19221TIP3   OH279077   2.442   1.913  15.401 -0.0771 -0.8276  0.3097
19221TIP3    H179078   2.403   1.927  15.488 -0.7691 -1.7002  0.1624
19221TIP3    H279079   2.367   1.893  15.345  0.3587 -0.2109 -0.5076
19222TIP3   OH279080   3.784   1.763  14.265 -0.3121  0.4196  0.1226
19222TIP3    H179081   3.878   1.743  14.262 -0.1059 -0.1358  4.2005
19222TIP3    H279082   3.742   1.682  14.237  0.4829 -0.1267  0.4454
19223TIP3   OH279083   4.709   0.393  17.083  0.0353 -0.3180  0.3549
19223TIP3    H179084   4.725   0.349  17.000  1.4801  1.1622 -0.2103
19223TIP3    H279085   4.730   0.328  17.150 -1.5507 -1.6656 -0.3774
19224TIP3   OH279086   0.524   3.285  15.768 -0.0348  0.4189 -0.0965
19224TIP3    H179087   0.616   3.257  15.774  0.5952  2.2063 -0.9693
19224TIP3    H279088   0.475   3.202  15.765  1.2640 -0.6535  3.1748
19225TIP3   OH279089   1.505   0.448   3.816 -0.0396  0.4424 -0.2594
19225TIP3    H179090   1.594   0.482   3.804 -0.0951  0.3619 -0.9075
19225TIP3    H279091   1.516   0.354   3.830 -0.0413  0.3892 -0.6121
19226TIP3   OH279092   6.596   0.708   5.955  0.3953 -0.1651  0.3230
19226TIP3    H179093   6.568   0.693   5.864 -1.1459 -0.8757  0.8801
19226TIP3    H279094   6.570   0.799   5.973 -1.1289 -0.6321  0.6425
19227TIP3   OH279095   2.274   6.210   3.845 -0.1348  0.3298  0.8157
19227TIP3    H179096   2.270   6.163   3.761  2.7968 -2.1612  1.8991
19227TIP3    H279097   2.186   6.200   3.881 -0.5330 -1.4857 -0.4936
19228TIP3   OH279098   1.370   6.541  12.376 -0.0758 -0.0529  0.2830
19228TIP3    H179099   1.334   6.600  12.443 -1.8717  0.3018 -0.9241
19228TIP3    H279100   1.296   6.520  12.321  0.7001 -2.8607  0.1920
19229TIP3   OH279101   3.262   1.375  11.782 -0.2073  0.1783 -0.1007
19229TIP3    H179102   3.333   1.400  11.840 -0.4770 -0.7818  0.6715
19229TIP3    H279103   3.305   1.327  11.711 -0.0697 -0.4380  0.3870
19230TIP3   OH279104   5.531   0.044  10.747  0.6585  0.5323  0.0861
19230TIP3    H179105   5.578   0.061  10.829  1.1756  0.2899 -0.1531
19230TIP3    H279106   5.581  -0.027  10.706 -1.6517 -1.9247  1.2507
19231TIP3   OH279107   3.884   0.342   2.576 -0.3936 -0.4203  0.3035
19231TIP3    H179108   3.938   0.396   2.518 -0.8294 -0.5583 -0.2457
19231TIP3    H279109   3.796   0.345   2.537 -0.6364 -0.7302  0.8121
19232TIP3   OH279110   0.811   2.513  15.282 -0.3091  0.1450  0.2124
19232TIP3    H179111   0.792   2.582  15.346 -0.1630 -0.2855  0.7279
19232TIP3    H279112   0.821   2.433  15.335 -1.3843 -0.4531 -0.4449
19233TIP3   OH279113   3.756   5.832   5.228 -0.1271 -0.3798  0.6540
19233TIP3    H179114   3.739   5.827   5.322  2.3089  0.0138  1.1792
19233TIP3    H279115   3.851   5.837   5.221 -0.2585 -0.1188 -1.8388
19234TIP3   OH279116   6.300   1.167  16.525 -0.2757  0.1527 -0.7211
19234TIP3    H179117   6.243   1.203  16.592  1.8523  0.6239  0.9650
19234TIP3    H279118   6.335   1.086  16.563  0.3346 -0.0161 -1.5952
19235TIP3   OH279119   6.785   1.640  13.664 -0.0262  0.2782  0.1963
19235TIP3    H179120   6.837   1.697  13.721  1.1837 -0.0125 -0.5868
19235TIP3    H279121   6.823   1.652  13.577 -3.1108  2.3121 -1.0542
19236TIP3   OH279122   5.419   6.327   3.468 -0.3939  0.2133 -0.2317
19236TIP3    H179123   5.423   6.311   3.563 -2.0892 -0.6082 -0.2551
19236TIP3    H279124   5.369   6.408   3.459  1.0580  1.1152 -0.3981
19237TIP3   OH279125   5.960   0.024  11.015 -0.4381  0.1144 -0.0326
19237TIP3    H179126   6.028  -0.028  10.971  0.0218  1.7392 -1.3597
19237TIP3    H279127   5.977   0.013  11.108  2.3907  1.2972 -0.3086
19238TIP3   OH279128   2.507   3.874  14.053 -0.2371  0.2662 -0.3837
19238TIP3    H179129   2.565   3.851  13.980  0.7379  0.4657  0.2969
19238TIP3    H279130   2.475   3.962  14.031 -1.1283 -0.2638 -1.2686
19239TIP3   OH279131   6.558   4.912  12.148  0.3516  0.2462  0.1114
19239TIP3    H179132   6.630   4.973  12.128 -0.4716  0.6428 -1.8554
19239TIP3    H279133   6.479   4.958  12.119 -0.4337 -1.1781 -0.0693
19240TIP3   OH279134   1.179   6.546  10.917 -0.0770 -0.4371  0.3297
19240TIP3    H179135   1.186   6.557  10.822 -2.1739 -1.9368 -0.0464
19240TIP3    H279136   1.130   6.622  10.947 -1.3381 -1.0426 -0.1348
19241TIP3   OH279137   5.987   6.005   5.383  0.3645  0.4055 -0.0214
19241TIP3    H179138   5.928   5.937   5.417 -0.4903  1.3120  0.3530
19241TIP3    H279139   5.982   5.995   5.288 -1.8812  1.6310 -0.1099
19242TIP3   OH279140   1.693   1.835  16.776  0.5962 -0.2022 -0.3020
19242TIP3    H179141   1.742   1.805  16.700 -0.1721  0.0798 -0.9179
19242TIP3    H279142   1.603   1.809  16.758  0.8204 -3.0888  1.9841
19243TIP3   OH279143   1.839   4.691   0.920 -0.0925 -0.6794 -0.2969
19243TIP3    H179144   1.919   4.643   0.900  1.7892  1.2068  2.0159
19243TIP3    H279145   1.857   4.781   0.890 -0.0177  0.4755  2.8372
19244TIP3   OH279146   6.124   3.212  11.481  0.7374  0.1831  0.2212
19244TIP3    H179147   6.031   3.200  11.501  1.1554  2.0413  4.5283
19244TIP3    H279148   6.155   3.124  11.459 -1.9254 -0.5429 -1.0776
19245TIP3   OH279149   1.545   2.684   1.495  0.5949 -0.1469 -0.0546
19245TIP3    H179150   1.454   2.702   1.517  0.7345  1.9423 -0.9321
19245TIP3    H279151   1.550   2.695   1.400  1.5877 -1.2054 -0.1559
19246TIP3   OH279152   1.188   5.000   4.834 -0.2496 -0.3796  0.1129
19246TIP3    H179153   1.216   5.056   4.762 -3.0437 -0.2942 -1.0634
19246TIP3    H279154   1.269   4.971   4.876  1.3793  3.4631  0.0046
19247TIP3   OH279155   3.717   6.721  14.154 -0.3456  0.0955 -0.1821
19247TIP3    H179156   3.772   6.784  14.200 -0.0418 -0.7070  0.5790
19247TIP3    H279157   3.774   6.681  14.088 -0.4682  0.4144 -0.4876
19248TIP3   OH279158   3.038   6.255  15.209  0.4114  0.0129  0.4912
19248TIP3    H179159   3.114   6.262  15.267  1.3852 -1.2030 -0.5711
19248TIP3    H279160   2.963   6.260  15.267  1.3094  0.8250  1.6224
19249TIP3   OH279161   5.784   2.476   2.340 -0.0765 -0.1520  0.3142
19249TIP3    H179162   5.776   2.564   2.377 -0.7426 -0.1338  0.1449
19249TIP3    H279163   5.872   2.447   2.364  0.1157  0.5298  0.4377
19250TIP3   OH279164   5.565   5.314   5.049 -0.5412  0.0365 -0.5971
19250TIP3    H179165   5.627   5.363   4.995  2.2398 -1.0573  1.3840
19250TIP3    H279166   5.524   5.382   5.104 -0.7145  0.7243 -1.5546
19251TIP3   OH279167   1.604   1.934  13.294 -0.1088 -0.4693  0.3488
19251TIP3    H179168   1.672   1.922  13.360  0.1727 -0.0814  0.1289
19251TIP3    H279169   1.650   1.967  13.217 -0.8920  2.5465  1.0679
19252TIP3   OH279170   5.502   0.474  14.834  0.0917  0.0787 -0.2224
19252TIP3    H179171   5.449   0.455  14.756 -1.4719  2.0542  0.2559
19252TIP3    H279172   5.510   0.570  14.833  0.9286  0.0482  1.4825
19253TIP3   OH279173   3.810   6.574   2.722 -0.4530 -0.3976 -0.1394
19253TIP3    H179174   3.792   6.639   2.655 -0.3891 -0.5781 -0.3361
19253TIP3    H279175   3.849   6.501   2.673 -1.9028 -1.2014 -0.1519
19254TIP3   OH279176   3.272   3.429   2.834  0.1157  0.5652  0.3309
19254TIP3    H179177   3.331   3.503   2.845  0.1694  0.5315  0.2746
19254TIP3    H279178   3.320   3.369   2.776  0.5066  0.0149  1.2013
19255TIP3   OH279179   4.799   4.690   4.449 -0.1091 -0.0248 -0.3786
19255TIP3    H179180   4.747   4.629   4.397  0.7689  0.0065 -1.3086
19255TIP3    H279181   4.881   4.643   4.466 -0.0488  0.2980  0.2565
19256TIP3   OH279182   5.828   2.224   1.237  0.0008 -0.6977  0.5595
19256TIP3    H179183   5.792   2.308   1.207 -0.2922 -0.6175  1.1313
19256TIP3    H279184   5.784   2.159   1.183 -1.0012 -0.5986  1.2267
19257TIP3   OH279185   4.400   2.327   1.043 -0.0990  0.1541 -0.1132
19257TIP3    H179186   4.448   2.245   1.037  0.5543  0.5611 -0.6702
19257TIP3    H279187   4.419   2.360   1.131 -2.4103 -1.4859  1.0908
19258TIP3   OH279188   0.151   2.879  16.882  0.5940  0.4407  0.4967
19258TIP3    H179189   0.059   2.896  16.902  0.1030  0.0268 -1.2959
19258TIP3    H279190   0.153   2.787  16.854  1.1671  1.0350 -1.5270
19259TIP3   OH279191   4.145   3.699   3.271  0.0422 -0.4503 -0.2107
19259TIP3    H179192   4.105   3.620   3.234  1.0152 -1.2311  0.3777
19259TIP3    H279193   4.128   3.693   3.365 -0.0431  0.1581 -0.1792
19260TIP3   OH279194   4.555   0.942  14.894  0.4570 -0.1962 -0.2419
19260TIP3    H179195   4.623   1.009  14.882  0.6042 -0.3931 -0.5241
19260TIP3    H279196   4.591   0.864  14.853 -0.0977 -0.1992 -0.7488
19261TIP3   OH279197   2.948   6.572   5.587 -0.1087 -0.4338  0.0033
19261TIP3    H179198   2.985   6.605   5.505 -1.1630 -1.2718 -0.8331
19261TIP3    H279199   2.960   6.477   5.582 -2.8132 -0.8323 -0.5944
19262TIP3   OH279200   5.649   6.680  13.500  0.5742  0.3160 -0.1368
19262TIP3    H179201   5.597   6.721  13.431  0.4301  1.1951  0.4710
19262TIP3    H279202   5.713   6.625  13.454 -0.4905 -0.2981 -0.9068
19263TIP3   OH279203   3.641   6.059   2.457  0.0815 -0.1279 -0.4213
19263TIP3    H179204   3.723   6.033   2.414  0.2107  1.6099 -1.2955
19263TIP3    H279205   3.658   6.046   2.550  0.9561 -0.8453 -0.6603
19264TIP3   OH279206   2.918   0.203  15.424 -0.3243 -0.2297  0.2058
19264TIP3    H179207   2.973   0.236  15.495 -0.3726  0.8038 -0.2239
19264TIP3    H279208   2.955   0.241  15.344  1.3815 -3.4674 -0.7272
19265TIP3   OH279209   4.039   5.057  16.509 -0.0977  0.1436  0.9081
19265TIP3    H179210   3.954   5.102  16.504  0.6554  1.9392  2.7062
19265TIP3    H279211   4.103   5.128  16.508  1.2444 -0.9760  2.2710
19266TIP3   OH279212   3.423   4.886   3.055  0.0189  0.4521 -0.0838
19266TIP3    H179213   3.376   4.807   3.029  0.4354  0.1091  0.1916
19266TIP3    H279214   3.358   4.938   3.102 -0.2957  0.3384 -0.3857
19267TIP3   OH279215   5.704   1.930  12.216 -0.0269  0.0288  0.2830
19267TIP3    H179216   5.742   1.948  12.130 -0.8561 -1.2726 -0.3852
19267TIP3    H279217   5.647   1.855  12.202  1.0794 -1.2852  2.3166
19268TIP3   OH279218   6.571   3.456  12.409  0.1638  0.6131  0.2308
19268TIP3    H179219   6.588   3.437  12.501 -0.1071 -1.6245 -0.1166
19268TIP3    H279220   6.508   3.528  12.410  0.2908  0.7328  1.7782
19269TIP3   OH279221   4.980   0.919  17.004  0.1169 -0.0114  0.4578
19269TIP3    H179222   5.055   0.901  16.947 -1.3820  1.0697 -2.0526
19269TIP3    H279223   4.918   0.850  16.984  0.0805 -0.4212  1.8904
19270TIP3   OH279224   5.384   2.385   4.345  0.0315 -0.0362 -0.2941
19270TIP3    H179225   5.403   2.320   4.277  1.5901 -0.4893  0.5244
19270TIP3    H279226   5.339   2.455   4.299 -0.3946 -1.0526 -1.4768
19271TIP3   OH279227   2.188   3.935  17.022  0.5052 -0.2328  0.3777
19271TIP3    H179228   2.135   3.979  16.955  2.0870  1.1789 -0.0238
19271TIP3    H279229   2.142   3.852  17.038 -0.7370  0.0557 -1.3462
19272TIP3   OH279230   5.811   3.141  14.941  0.5070  0.3817 -0.0221
19272TIP3    H179231   5.783   3.082  15.011 -1.0718 -0.8816 -1.6353
19272TIP3    H279232   5.820   3.085  14.864 -0.9504  2.1634 -1.5995
19273TIP3   OH279233   3.716   5.708   4.214  0.4791  0.5710 -0.0763
19273TIP3    H179234   3.777   5.695   4.286  0.6402  0.5671 -0.2130
19273TIP3    H279235   3.637   5.742   4.256 -0.5851 -2.3493  0.5385
19274TIP3   OH279236   0.099   2.849   5.264 -0.6104 -0.0682 -0.3201
19274TIP3    H179237   0.096   2.940   5.232  1.8360 -0.0165 -0.5786
19274TIP3    H279238   0.131   2.857   5.354 -4.0974 -0.4817  1.1052
19275TIP3   OH279239   1.576   1.629  12.526  0.0460 -0.5006 -0.5681
19275TIP3    H179240   1.574   1.724  12.518  0.2748 -0.3308  1.0767
19275TIP3    H279241   1.486   1.604  12.547  0.2273 -0.4967  0.2586
19276TIP3   OH279242   4.825   3.509  11.574  0.3433 -0.2630  0.1638
19276TIP3    H179243   4.819   3.501  11.669  0.2327 -2.2636  0.0331
19276TIP3    H279244   4.888   3.443  11.548  0.1640  0.0563 -1.1870
19277TIP3   OH279245   4.816   4.118   2.966 -0.2835 -0.0965 -0.7395
19277TIP3    H179246   4.835   4.096   3.057 -0.6604 -0.6781 -0.7906
19277TIP3    H279247   4.770   4.202   2.970  0.5761  0.3734 -0.4761
19278TIP3   OH279248   3.864   2.917   4.846 -0.7177 -0.1314 -0.4490
19278TIP3    H179249   3.790   2.892   4.902 -0.0822  0.2929  0.6215
19278TIP3    H279250   3.849   3.010   4.828  0.1575  0.2857  0.7989
19279TIP3   OH279251   3.514   5.276  12.112  0.0109  0.1046  0.6762
19279TIP3    H179252   3.571   5.332  12.165 -1.5148  2.3740  0.0700
19279TIP3    H279253   3.572   5.237  12.047  0.8841  2.6780 -0.2082
19280TIP3   OH279254   6.314   3.259   5.403  0.1041 -0.0430 -0.5295
19280TIP3    H179255   6.271   3.240   5.487 -1.3811 -0.6659 -1.3801
19280TIP3    H279256   6.314   3.354   5.398  0.0855 -0.0016  0.1210
19281TIP3   OH279257   0.603   1.556   5.140  0.5273  0.5333  0.3558
19281TIP3    H179258   0.514   1.593   5.141 -0.1396 -0.7870  3.3918
19281TIP3    H279259   0.593   1.470   5.099  0.7419  1.0143 -0.7220
19282TIP3   OH279260   2.231   4.743  13.528  0.7294  0.1474 -0.2045
19282TIP3    H179261   2.169   4.754  13.601  0.3436  1.3269 -0.6749
19282TIP3    H279262   2.307   4.794  13.555  0.4860  0.7931 -0.7289
19283TIP3   OH279263   0.183   5.931   3.919  0.2371 -0.2014  0.0650
19283TIP3    H179264   0.117   5.969   3.976  1.1100  2.1860 -0.3665
19283TIP3    H279265   0.157   5.957   3.831  0.9289 -0.5448 -0.2527
19284TIP3   OH279266   0.363   4.202  13.517  0.3383  0.2825 -0.1285
19284TIP3    H179267   0.299   4.133  13.500  0.0473  0.0373  1.7457
19284TIP3    H279268   0.444   4.155  13.539  0.9179  0.5822 -1.5421
19285TIP3   OH279269   2.421   2.501  17.090  0.2517 -0.1342 -0.6078
19285TIP3    H179270   2.444   2.540  17.006  0.0028 -2.2933 -1.7644
19285TIP3    H279271   2.498   2.514  17.145  2.0813 -2.1663 -2.5168
19286TIP3   OH279272   3.411   4.831  14.781  0.1530  0.3872  0.3732
19286TIP3    H179273   3.445   4.741  14.783 -1.2431 -0.1520  1.9235
19286TIP3    H279274   3.439   4.869  14.865 -0.3112  0.9990  0.2523
19287TIP3   OH279275   3.998   4.504  13.132  0.1939 -0.2866  0.4097
19287TIP3    H179276   3.945   4.577  13.099 -2.2143 -1.6149  1.0858
19287TIP3    H279277   4.078   4.544  13.163 -1.2903  2.1621  1.3155
19288TIP3   OH279278   3.503   2.812   3.547  0.5872  0.2497 -0.1429
19288TIP3    H179279   3.518   2.906   3.538 -1.5132  0.7068  0.4988
19288TIP3    H279280   3.527   2.792   3.637 -0.1237  0.4397  0.0940
19289TIP3   OH279281   6.244   6.621  15.090  0.2173 -0.2584  0.1836
19289TIP3    H179282   6.245   6.549  15.153  0.8304  0.0243  0.5133
19289TIP3    H279283   6.328   6.665  15.104  0.4625 -0.3296 -0.9961
19290TIP3   OH279284   0.599   4.555   5.511 -0.5124  0.5083 -0.1004
19290TIP3    H179285   0.595   4.472   5.463 -1.0129  0.0436  0.7232
19290TIP3    H279286   0.512   4.593   5.500 -1.2456 -0.4683  1.9120
19291TIP3   OH279287   1.031   6.038  14.622  0.0567 -0.0202 -0.4294
19291TIP3    H179288   1.078   6.085  14.691 -0.8768  1.8027 -0.9585
19291TIP3    H279289   0.951   6.089  14.608 -0.4915 -1.1751 -1.8393
19292TIP3   OH279290   6.059   4.683  12.311  0.4414 -0.0456 -0.3607
19292TIP3    H179291   6.111   4.743  12.363  0.2149 -0.1305 -0.0366
19292TIP3    H279292   5.983   4.661  12.366 -0.2192  0.5012 -1.0299
19293TIP3   OH279293   4.682   5.136   1.047  0.5366  0.4704 -0.4833
19293TIP3    H179294   4.662   5.098   0.961  0.0508 -0.1763 -0.0968
19293TIP3    H279295   4.623   5.090   1.107  0.7200  1.0727  0.1623
19294TIP3   OH279296   3.900   0.564  11.398 -0.1448  0.4527 -0.1312
19294TIP3    H179297   3.821   0.514  11.420 -1.7240  2.0111 -1.9205
19294TIP3    H279298   3.917   0.618  11.476 -0.5123 -0.2948  0.4754
19295TIP3   OH279299   2.233   2.126   5.693 -0.4553  0.0136  0.2942
19295TIP3    H179300   2.172   2.194   5.668 -0.7190 -0.1448  0.4991
19295TIP3    H279301   2.184   2.070   5.753 -0.2945 -0.4454  0.0067
19296TIP3   OH279302   3.910   3.526  12.911  0.8467 -0.0420  0.0130
19296TIP3    H179303   3.981   3.464  12.925  2.3615  1.0891 -2.0995
19296TIP3    H279304   3.952   3.602  12.870 -1.1090  1.9245  1.4258
19297TIP3   OH279305   3.845   2.918  14.802  0.0557 -0.1510 -0.2496
19297TIP3    H179306   3.870   2.984  14.737 -0.2699  0.3086  0.0829
19297TIP3    H279307   3.752   2.900  14.784  0.0305 -0.2045 -0.0686
19298TIP3   OH279308   2.477   6.296   0.618 -0.1016 -0.8760  0.3552
19298TIP3    H179309   2.382   6.290   0.628 -0.6412  1.8506 -1.9400
19298TIP3    H279310   2.512   6.261   0.700 -3.1724  0.7327  2.5131
19299TIP3   OH279311   1.564   5.112  10.786 -0.1753 -0.2411  0.0185
19299TIP3    H179312   1.501   5.099  10.856  0.3768 -1.9847  0.2311
19299TIP3    H279313   1.580   5.024  10.751  0.6416  0.4124 -1.3468
19300TIP3   OH279314   1.052   5.614   1.303  0.0016  0.2901  0.6566
19300TIP3    H179315   1.108   5.559   1.358 -0.5898 -0.3755  0.5926
19300TIP3    H279316   1.044   5.696   1.352 -1.0840 -0.5336  1.9111
19301TIP3   OH279317   5.061   1.984  16.590  0.1229 -0.1525  0.4929
19301TIP3    H179318   5.116   1.910  16.563  0.5002 -0.1204  1.1742
19301TIP3    H279319   4.979   1.943  16.617 -0.2809 -0.1873 -0.7012
19302TIP3   OH279320   1.887   2.519  11.379 -0.3095  0.4645  0.0397
19302TIP3    H179321   1.914   2.468  11.303  1.5548 -0.0483  0.9866
19302TIP3    H279322   1.796   2.495  11.393 -0.3062 -0.3884 -1.2657
19303TIP3   OH279323   2.397   5.277  12.984 -0.0477 -0.2269 -0.0593
19303TIP3    H179324   2.313   5.259  13.026  0.2217  0.0891  0.6188
19303TIP3    H279325   2.459   5.219  13.028  0.0416 -0.6942 -0.7805
19304TIP3   OH279326   4.899   1.500   6.498  0.0989  0.1051  0.2608
19304TIP3    H179327   4.850   1.567   6.546  0.1664 -0.6716  1.4751
19304TIP3    H279328   4.940   1.447   6.567  0.9554 -0.5038 -0.6921
19305TIP3   OH279329   6.325   2.819  16.808  0.1078  0.2477 -0.6319
19305TIP3    H179330   6.344   2.905  16.846 -0.5156  0.4121 -0.6758
19305TIP3    H279331   6.398   2.802  16.749  1.6265 -0.4587  1.3359
19306TIP3   OH279332   3.740   1.045   2.826  0.4246  0.5716  0.1569
19306TIP3    H179333   3.776   1.000   2.750  1.3351  3.1560 -1.0947
19306TIP3    H279334   3.719   0.976   2.889  1.6837 -1.5032 -1.5881
19307TIP3   OH279335   3.225   5.525   2.603 -0.0559 -0.2797 -0.1400
19307TIP3    H179336   3.279   5.547   2.678  0.0293 -1.7038  0.2354
19307TIP3    H279337   3.167   5.601   2.591  0.1095  0.0667  1.1858
19308TIP3   OH279338   5.014   4.207   1.029  0.0766 -0.0911 -0.1118
19308TIP3    H179339   5.090   4.263   1.020 -0.3932  0.5409 -0.2125
19308TIP3    H279340   4.976   4.230   1.114  0.9765 -1.6467  0.7600
19309TIP3   OH279341   2.205   3.801  12.317  0.3680 -0.0995 -0.4084
19309TIP3    H179342   2.201   3.878  12.374 -0.6520  3.0495 -4.2417
19309TIP3    H279343   2.298   3.784  12.305  0.6384  1.1004 -0.1200
19310TIP3   OH279344   0.874   5.485   5.021 -0.1056  0.0376 -0.3234
19310TIP3    H179345   0.903   5.534   4.944 -0.1514 -1.4017 -1.3044
19310TIP3    H279346   0.794   5.441   4.993 -0.8728  0.5464  0.9894
19311TIP3   OH279347   0.226   5.174   4.405 -0.5465 -0.5788 -0.2602
19311TIP3    H179348   0.227   5.269   4.398  0.5261 -0.5711 -0.1842
19311TIP3    H279349   0.142   5.153   4.445 -0.3147  0.4224  0.7863
19312TIP3   OH279350   4.763   0.176  13.064 -0.6106  0.1302  0.1504
19312TIP3    H179351   4.744   0.253  13.117 -1.4914 -0.1676  0.2743
19312TIP3    H279352   4.746   0.203  12.974  0.1941  0.4208  0.0803
19313TIP3   OH279353   3.316   4.065  15.223  0.2314 -0.0007  0.7910
19313TIP3    H179354   3.405   4.048  15.254 -0.2506 -0.1947  2.1726
19313TIP3    H279355   3.325   4.077  15.129  1.8216  0.7623  1.0052
19314TIP3   OH279356   4.908   6.075   5.864  0.0552  0.1847  0.3213
19314TIP3    H179357   4.861   6.138   5.809  0.3611 -0.6704 -0.9530
19314TIP3    H279358   4.839   6.032   5.915 -0.5157 -0.5894 -1.0502
19315TIP3   OH279359   6.373   1.567  16.812 -0.6672 -0.2519 -0.2827
19315TIP3    H179360   6.411   1.651  16.838  2.1322 -1.4569 -0.1801
19315TIP3    H279361   6.421   1.542  16.733 -1.5302 -1.7099 -0.3862
19316TIP3   OH279362   0.316   0.167   0.674  0.0118  0.4056  0.3013
19316TIP3    H179363   0.229   0.202   0.653  0.1573  1.0797  0.7894
19316TIP3    H279364   0.365   0.174   0.593 -0.7194 -1.0419 -0.3058
19317TIP3   OH279365   0.812   2.680   4.450 -0.0686 -0.2945  0.0757
19317TIP3    H179366   0.745   2.726   4.501  1.7770  1.4707  1.0235
19317TIP3    H279367   0.820   2.595   4.493 -0.9279 -0.1086  0.6203
19318TIP3   OH279368   6.090   6.274   5.739 -0.4402  0.9120 -0.5443
19318TIP3    H179369   6.122   6.226   5.663 -1.5845 -0.5801 -0.1247
19318TIP3    H279370   6.121   6.225   5.814 -0.9732  1.2607 -0.0855
19319TIP3   OH279371   6.051   1.706  15.359 -0.2580  0.4761  0.2162
19319TIP3    H179372   6.094   1.718  15.274  2.1745  3.0108  1.6383
19319TIP3    H279373   5.968   1.753  15.351  0.5213  1.7891 -0.4091
19320TIP3   OH279374   0.944   4.648  13.540 -0.3235  0.1632  0.4422
19320TIP3    H179375   0.898   4.587  13.597  0.1204 -0.2983  0.3065
19320TIP3    H279376   0.960   4.725  13.594 -0.7071  0.0867  0.6694
19321TIP3   OH279377   6.711   3.180   1.352  0.0568 -0.7207 -0.6273
19321TIP3    H179378   6.799   3.144   1.356  0.6012  0.4302 -1.7663
19321TIP3    H279379   6.663   3.133   1.421  1.5305 -1.3908 -0.0157
19322TIP3   OH279380   4.544   4.882  13.876  0.6571 -0.1851  0.3957
19322TIP3    H179381   4.515   4.899  13.966  1.3977  0.1736  0.5804
19322TIP3    H279382   4.605   4.808  13.884  0.6302 -0.2304  0.1765
19323TIP3   OH279383   2.641   4.686  11.441  0.3624 -0.1936  0.0433
19323TIP3    H179384   2.701   4.694  11.367  0.0896 -1.6133 -0.3619
19323TIP3    H279385   2.592   4.606  11.424 -0.5202  0.0758  1.1857
19324TIP3   OH279386   5.571   1.429  13.961  0.1713  0.4676  0.0267
19324TIP3    H179387   5.480   1.401  13.965  0.9561 -2.6823 -0.8472
19324TIP3    H279388   5.568   1.516  13.921 -2.3559 -0.3821 -1.9152
19325TIP3   OH279389   0.668   2.803  13.205 -0.2296  0.5135 -0.2571
19325TIP3    H179390   0.661   2.785  13.299 -0.9081 -0.8797 -0.5538
19325TIP3    H279391   0.586   2.772  13.169 -0.4419  2.0754 -1.1786
19326TIP3   OH279392   4.845   1.178   2.449  0.4033  0.3513  0.3270
19326TIP3    H179393   4.877   1.230   2.375 -0.9383  1.5055  0.5239
19326TIP3    H279394   4.770   1.130   2.414  0.1828  0.3776  0.7639
19327TIP3   OH279395   6.403   2.593  16.393 -0.1364 -0.3081  0.2222
19327TIP3    H179396   6.432   2.503  16.408  0.8161  0.2788  2.2490
19327TIP3    H279397   6.309   2.591  16.408 -0.4011 -1.2616 -1.3994
19328TIP3   OH279398   6.107   1.983  11.086 -0.2564 -0.8836 -0.5090
19328TIP3    H179399   6.072   2.045  11.021 -0.9402 -0.0104  0.6518
19328TIP3    H279400   6.057   1.903  11.071 -0.4038 -0.6960 -1.0622
19329TIP3   OH279401   5.003   0.774  13.756 -0.2118 -0.0459  0.0527
19329TIP3    H179402   4.954   0.711  13.810 -0.2382 -0.4095 -0.3890
19329TIP3    H279403   4.973   0.860  13.786 -0.1903 -0.2418  0.6510
19330TIP3   OH279404   0.641   2.173   1.279  0.6443  0.2399  0.6303
19330TIP3    H179405   0.663   2.083   1.304 -1.0727 -0.1227  0.9719
19330TIP3    H279406   0.592   2.207   1.354  1.7011  1.6508  0.7129
19331TIP3   OH279407   4.165   3.445  11.598 -0.0408  0.4029 -0.3091
19331TIP3    H179408   4.108   3.407  11.531 -1.4373 -0.8562  1.4830
19331TIP3    H279409   4.180   3.535  11.569 -0.4228 -0.1422 -2.3723
19332TIP3   OH279410   0.789   5.136  12.726  0.2335  0.1857  0.2148
19332TIP3    H179411   0.773   5.080  12.650 -1.1758  0.0715  0.5709
19332TIP3    H279412   0.790   5.075  12.800  2.4102  0.1886  0.2447
19333TIP3   OH279413   3.759   0.531  13.599 -0.3555 -0.1280 -0.2833
19333TIP3    H179414   3.767   0.449  13.648 -2.1125  0.0117  0.2977
19333TIP3    H279415   3.786   0.508  13.510  1.3485 -0.7655  0.3651
19334TIP3   OH279416   3.074   3.980  11.435  0.2151 -0.2948 -0.3956
19334TIP3    H179417   3.108   4.060  11.476 -0.9877 -0.5370  1.1823
19334TIP3    H279418   3.079   3.914  11.504 -1.5157 -0.8371 -0.7477
19335TIP3   OH279419   2.042   4.784   4.876  0.4981  0.3238 -0.0213
19335TIP3    H179420   2.086   4.806   4.958 -0.0705 -2.3996  1.1151
19335TIP3    H279421   2.017   4.869   4.838  2.1376  1.7144  1.8150
19336TIP3   OH279422   1.768   3.566  13.923  0.0795  0.3625 -0.1519
19336TIP3    H179423   1.711   3.489  13.922  0.6783 -0.0863 -0.8048
19336TIP3    H279424   1.817   3.560  13.841 -0.5351  1.9556 -0.6583
19337TIP3   OH279425   0.682   0.433   0.799  0.3391 -0.2817 -0.0430
19337TIP3    H179426   0.651   0.447   0.888 -1.1057  1.6502 -0.7889
19337TIP3    H279427   0.636   0.498   0.746  1.5317 -1.0238 -2.1418
19338TIP3   OH279428   0.307   1.764   3.018  0.7778  0.2949  0.0179
19338TIP3    H179429   0.375   1.696   3.023  0.0403 -0.4266  0.5421
19338TIP3    H279430   0.295   1.793   3.108  1.0536  1.1033 -0.1978
19339TIP3   OH279431   3.954   0.731  12.343  0.0271  0.3708 -0.4662
19339TIP3    H179432   3.910   0.780  12.274 -1.3657 -1.4567 -0.9705
19339TIP3    H279433   3.927   0.772  12.424 -0.5708  0.8498 -0.8993
19340TIP3   OH279434   4.933   3.397  12.933 -0.7812  0.2876  0.4754
19340TIP3    H179435   4.916   3.459  13.003 -1.0353 -0.6448  1.2533
19340TIP3    H279436   4.871   3.326  12.947 -0.9407  0.1416 -0.7827
19341TIP3   OH279437   6.018   6.331  11.316  0.0516 -0.6983  0.2334
19341TIP3    H179438   5.947   6.273  11.290  0.9462 -1.9193  0.3958
19341TIP3    H279439   6.055   6.290  11.395  0.5043  0.2631  0.5354
19342TIP3   OH279440   0.689   5.673   2.091  0.2195 -0.4282  0.3042
19342TIP3    H179441   0.730   5.713   2.168 -0.7627  0.9417  0.1473
19342TIP3    H279442   0.762   5.660   2.030  0.4741  2.2133 -0.0769
19343TIP3   OH279443   2.010   6.240  16.248  0.0235  0.1591  0.2179
19343TIP3    H179444   2.066   6.219  16.174 -1.3898  2.5724 -1.6898
19343TIP3    H279445   1.950   6.165  16.255  0.7085 -0.4688 -0.5323
19344TIP3   OH279446   5.555   0.809  14.873 -0.1445  0.3372 -0.0431
19344TIP3    H179447   5.523   0.840  14.788  1.1878  1.0728 -0.2996
19344TIP3    H279448   5.612   0.879  14.904  0.1338 -0.3441  1.0230
19345TIP3   OH279449   2.237   0.752  10.838 -0.2541 -0.8730 -0.5486
19345TIP3    H179450   2.289   0.672  10.827 -1.7705 -1.9790 -0.0594
19345TIP3    H279451   2.204   0.747  10.928 -0.0393  0.5428 -0.3608
19346TIP3   OH279452   1.084   2.361   0.311  0.2519 -0.0996 -0.1700
19346TIP3    H179453   1.140   2.296   0.355  0.0520  0.1107  0.4033
19346TIP3    H279454   1.104   2.443   0.355 -1.7403 -0.3051  1.2123
19347TIP3   OH279455   0.658   2.537   5.562 -0.6146 -0.3924  0.7806
19347TIP3    H179456   0.666   2.459   5.616  2.4432 -1.0312 -0.4091
19347TIP3    H279457   0.729   2.594   5.592 -1.6584  1.2048  0.3888
19348TIP3   OH279458   5.790   2.084   2.420 -0.2462  0.1254  0.5689
19348TIP3    H179459   5.715   2.143   2.414 -2.1009 -2.1516 -0.3022
19348TIP3    H279460   5.797   2.064   2.513 -0.2656  0.8940  0.7407
19349TIP3   OH279461   2.760   5.922   3.142  0.4061 -0.0101 -0.0488
19349TIP3    H179462   2.783   5.888   3.055 -1.2993 -0.1365 -0.4828
19349TIP3    H279463   2.678   5.969   3.128  0.3453  0.3577  1.4187
19350TIP3   OH279464   1.414   0.827   4.449  0.0548 -0.5083  0.6528
19350TIP3    H179465   1.345   0.761   4.456 -0.6191  0.1319  0.2148
19350TIP3    H279466   1.385   0.884   4.377  1.1951 -0.4080  0.2531
19351TIP3   OH279467   5.283   2.564   1.617  0.0401  0.1046 -0.4631
19351TIP3    H179468   5.359   2.563   1.674 -1.5975 -0.9756  1.8364
19351TIP3    H279469   5.289   2.482   1.567  0.1034 -0.2382  0.1037
19352TIP3   OH279470   0.777   5.447   4.249 -0.5385  0.3854 -0.2825
19352TIP3    H179471   0.766   5.472   4.158 -3.0528 -0.9212 -0.4310
19352TIP3    H279472   0.811   5.525   4.292 -1.0428  1.6023 -2.0120
19353TIP3   OH279473   3.476   4.562  12.241 -0.2465 -0.9786  0.5424
19353TIP3    H179474   3.411   4.552  12.311 -1.1978  2.0960  0.2388
19353TIP3    H279475   3.432   4.617  12.175  1.7642 -1.0368 -0.9408
19354TIP3   OH279476   0.248   5.960   4.869  0.2529 -0.3413  0.0400
19354TIP3    H179477   0.334   5.918   4.868  0.5847  0.3197 -0.4958
19354TIP3    H279478   0.236   5.987   4.960  0.7278 -0.2361  0.0765
19355TIP3   OH279479   3.210   4.871   1.782 -0.2911  0.3994 -0.3513
19355TIP3    H179480   3.160   4.948   1.809 -1.1858 -0.2237 -0.1405
19355TIP3    H279481   3.157   4.797   1.814  1.3187 -0.2907  0.8504
19356TIP3   OH279482   6.130   2.781   4.611 -0.1397  0.4023 -0.2204
19356TIP3    H179483   6.101   2.747   4.526 -1.7304  0.7898  0.1535
19356TIP3    H279484   6.143   2.703   4.664  0.6327  0.1694 -0.7283
19357TIP3   OH279485   2.958   2.377   4.593  0.0320  0.0723  0.4341
19357TIP3    H179486   2.919   2.298   4.557  0.4104 -0.3553  0.9430
19357TIP3    H279487   2.884   2.425   4.631 -0.3796  0.5549 -0.9077
19358TIP3   OH279488   1.585   1.712   2.755  0.5574 -0.5128  0.4427
19358TIP3    H179489   1.577   1.719   2.660 -2.5297  0.4886  0.6766
19358TIP3    H279490   1.564   1.621   2.774 -3.0723  0.1881  0.3554
19359TIP3   OH279491   2.223   3.245   1.980 -0.1922  0.3762  0.2742
19359TIP3    H179492   2.181   3.324   1.945 -0.2283  0.0166 -0.5051
19359TIP3    H279493   2.150   3.192   2.013 -0.1552  0.7279  0.9404
19360TIP3   OH279494   4.391   4.411  13.299 -0.2291 -0.2698 -0.2358
19360TIP3    H179495   4.326   4.360  13.348  0.0785  0.9149  1.4620
19360TIP3    H279496   4.396   4.495  13.345  1.2973  0.2812 -1.3335
19361TIP3   OH279497   5.075   0.598  14.163 -0.8228  0.0750  0.1436
19361TIP3    H179498   4.989   0.634  14.144 -1.3641 -1.4344 -0.3680
19361TIP3    H279499   5.118   0.591  14.077  0.2513  1.8359  0.4989
19362TIP3   OH279500   2.834   5.943  14.374 -0.4430  0.1234 -0.2493
19362TIP3    H179501   2.882   6.025  14.386  0.9616 -0.8114  1.0761
19362TIP3    H279502   2.834   5.928  14.280 -0.7594  1.6368 -0.5179
19363TIP3   OH279503   1.417   5.376  16.818  0.0612  0.5143  0.7118
19363TIP3    H179504   1.366   5.451  16.847  0.0023 -0.0457  2.1489
19363TIP3    H279505   1.430   5.324  16.897  0.2525 -0.8977 -0.2121
19364TIP3   OH279506   2.531   4.399   6.019  0.1623  0.1215 -0.9444
19364TIP3    H179507   2.505   4.309   5.998 -2.1189  0.8484 -1.5810
19364TIP3    H279508   2.533   4.402   6.114  0.6484 -0.6953 -0.9210
19365TIP3   OH279509   5.633   1.965   0.488  0.0787  0.5286 -0.4936
19365TIP3    H179510   5.644   1.882   0.441 -3.3701 -0.0382 -0.6005
19365TIP3    H279511   5.613   1.939   0.578 -2.9495  0.9673 -0.9115
19366TIP3   OH279512   3.287   3.541  16.111 -0.5718 -0.3093  0.2178
19366TIP3    H179513   3.208   3.527  16.164 -0.9207 -2.6434 -0.7756
19366TIP3    H279514   3.352   3.481  16.150  0.8857  1.8177  1.2378
19367TIP3   OH279515   6.278   1.556   4.048  0.3868 -0.4088  0.3241
19367TIP3    H179516   6.332   1.632   4.065 -1.4701  1.2122 -0.6409
19367TIP3    H279517   6.194   1.577   4.088 -0.5218 -1.4235 -0.9681
19368TIP3   OH279518   4.002   4.039   3.771  0.1448  0.2065  0.0718
19368TIP3    H179519   4.075   3.986   3.738  0.4994  0.3801  0.5601
19368TIP3    H279520   4.003   4.024   3.865  0.0668  0.8550  0.1766
19369TIP3   OH279521   3.404   2.555  11.543  0.2937 -0.2765 -0.0117
19369TIP3    H179522   3.435   2.634  11.587 -0.3865  0.2488 -0.4545
19369TIP3    H279523   3.315   2.542  11.576  0.6612 -1.2972  0.6278
19370TIP3   OH279524   5.758   2.300   1.715  0.5103 -0.3771 -0.2635
19370TIP3    H179525   5.825   2.282   1.649  2.6531  3.3296  0.6526
19370TIP3    H279526   5.702   2.366   1.674 -0.1522 -0.4639  0.4809
19371TIP3   OH279527   3.113   6.096   1.614  0.3268  0.3555  0.0912
19371TIP3    H179528   3.184   6.154   1.585  0.1850  1.2764  1.4844
19371TIP3    H279529   3.156   6.011   1.628  0.5787  0.1508 -1.7678
19372TIP3   OH279530   5.529   6.030  16.078  0.1063 -0.1040 -0.1000
19372TIP3    H179531   5.452   6.040  16.134  0.2530 -1.6976  0.4233
19372TIP3    H279532   5.595   5.989  16.134  0.4661 -1.1561 -1.2448
19373TIP3   OH279533   2.070   1.659  15.224  0.3938 -0.5669  0.0732
19373TIP3    H179534   2.095   1.701  15.142  0.7391 -0.3846  0.2678
19373TIP3    H279535   2.000   1.600  15.200  0.4723 -0.4930 -0.3508
19374TIP3   OH279536   2.305   1.731  11.700  0.4062 -0.2029 -0.3367
19374TIP3    H179537   2.210   1.727  11.715  0.5941 -1.4886  0.6763
19374TIP3    H279538   2.314   1.778  11.616 -1.0875  0.3429 -0.2270
19375TIP3   OH279539   6.245   2.828  11.959 -0.2745  0.0676 -0.8031
19375TIP3    H179540   6.275   2.918  11.969 -0.0532 -0.0506 -0.3851
19375TIP3    H279541   6.255   2.810  11.865  1.3097 -0.0833 -0.6298
19376TIP3   OH279542   2.773   0.921   2.552  0.0667 -0.1333  0.7807
19376TIP3    H179543   2.678   0.930   2.563  0.2842  0.9146  1.9893
19376TIP3    H279544   2.783   0.839   2.503 -1.4443 -0.3631  0.7846
19377TIP3   OH279545   0.951   6.552   6.716 -0.1031  0.1834 -0.1582
19377TIP3    H179546   0.953   6.500   6.797 -0.8188  1.3656  0.6446
19377TIP3    H279547   0.877   6.515   6.667  0.2543 -0.4573 -0.2275
19378TIP3   OH279548   4.576   0.245   3.954  0.0970  0.7291 -0.2832
19378TIP3    H179549   4.532   0.311   3.900  1.2434  1.4723 -0.3290
19378TIP3    H279550   4.581   0.284   4.041  1.1104  0.8701 -0.3953
19379TIP3   OH279551   2.194   6.248   0.001 -0.1698 -0.0683  0.1812
19379TIP3    H179552   2.283   6.223   0.027  0.4863  0.2866 -1.5432
19379TIP3    H279553   2.189   6.223  -0.091 -1.8451  0.0047  0.2347
19380TIP3   OH279554   2.730   1.654   0.285 -0.2315  0.1871 -0.1081
19380TIP3    H179555   2.790   1.662   0.359  0.6458 -1.4932 -0.5813
19380TIP3    H279556   2.668   1.587   0.311 -2.1392  2.0831  0.4724
19381TIP3   OH279557   4.029   4.105  14.899 -0.3312  0.0947  0.0210
19381TIP3    H179558   4.038   4.189  14.945  1.8185  0.1060 -0.3025
19381TIP3    H279559   4.055   4.124  14.809 -0.7028 -0.7365 -0.2749
19382TIP3   OH279560   2.578   6.569  13.005 -0.0328  0.0014 -0.0040
19382TIP3    H179561   2.642   6.498  13.005 -0.3655 -0.3196 -1.3331
19382TIP3    H279562   2.628   6.647  12.981 -0.2536 -0.4011 -1.9255
19383TIP3   OH279563   2.747   3.498   3.028 -0.0053 -0.1201 -0.3704
19383TIP3    H179564   2.666   3.538   3.060  0.3222  0.5164 -0.3368
19383TIP3    H279565   2.796   3.570   2.988  0.1670 -0.6657 -1.1648
19384TIP3   OH279566   0.473   2.899   3.169  0.2445 -0.8258  0.2109
19384TIP3    H179567   0.485   2.991   3.190  0.5215 -0.7602 -0.2069
19384TIP3    H279568   0.557   2.858   3.189 -0.6693 -1.5369  3.0390
19385TIP3   OH279569   5.431   3.962  16.856  0.1958  0.3220 -0.2221
19385TIP3    H179570   5.485   3.996  16.785 -2.7549  0.9646 -2.3644
19385TIP3    H279571   5.379   4.037  16.885 -0.2895 -0.4661  1.0486
19386TIP3   OH279572   6.570   1.381  12.733  0.2029 -0.2952  0.1983
19386TIP3    H179573   6.509   1.319  12.694  0.7870 -1.0499  0.4496
19386TIP3    H279574   6.584   1.447  12.665  0.6194 -1.1824 -0.6051
19387TIP3   OH279575   6.142   6.133  14.193 -0.7182  0.9459 -0.5052
19387TIP3    H179576   6.088   6.062  14.159  1.4000 -2.7224  2.9212
19387TIP3    H279577   6.219   6.133  14.135  0.2464 -1.2687  0.6229
19388TIP3   OH279578   0.555   6.243  11.702  0.0822 -0.2735  0.1751
19388TIP3    H179579   0.508   6.325  11.717  0.0826 -0.6210  2.4699
19388TIP3    H279580   0.608   6.260  11.624  1.5932  2.6153  1.6598
19389TIP3   OH279581   5.758   6.549  15.351  0.1681 -0.6952  0.5050
19389TIP3    H179582   5.821   6.567  15.281  0.7038 -1.5942  0.7410
19389TIP3    H279583   5.673   6.546  15.306  0.3373  0.0933  0.1144
19390TIP3   OH279584   3.958   4.661   2.506 -0.2539  0.2265 -0.1655
19390TIP3    H179585   4.037   4.617   2.537  0.4755  2.0256  0.6259
19390TIP3    H279586   3.889   4.629   2.564 -0.5467 -2.6664 -1.9078
19391TIP3   OH279587   2.571   1.345   3.738  0.2980  0.5728 -0.3175
19391TIP3    H179588   2.570   1.402   3.661 -2.4519  0.2148 -0.6459
19391TIP3    H279589   2.643   1.284   3.722 -0.5530  0.1476 -2.8974
19392TIP3   OH279590   0.707   3.168  12.485  0.1738  0.0950  0.8163
19392TIP3    H179591   0.694   3.263  12.479  2.2199  0.3862  0.1855
19392TIP3    H279592   0.641   3.139  12.548 -0.8815  1.8334  0.5958
19393TIP3   OH279593   4.534   1.871   2.032  0.2505 -0.1290 -0.0707
19393TIP3    H179594   4.578   1.942   2.079  0.0396  0.1570 -0.2945
19393TIP3    H279595   4.487   1.916   1.961  0.8557 -0.5875 -0.7741
19394TIP3   OH279596   1.461   1.653  11.235 -0.0898 -0.0931 -0.0059
19394TIP3    H179597   1.418   1.572  11.263  0.0355 -0.4607 -0.8538
19394TIP3    H279598   1.412   1.723  11.279 -1.1889 -0.5441 -0.4952
19395TIP3   OH279599   5.098   2.509   5.414 -0.6996 -0.5781 -0.4104
19395TIP3    H179600   5.047   2.528   5.493  0.1461 -1.6761  0.4196
19395TIP3    H279601   5.165   2.448   5.443 -0.2113 -0.7926 -1.9368
19396TIP3   OH279602   6.397   3.388  10.962  0.3060 -0.3679 -0.1490
19396TIP3    H179603   6.359   3.411  10.877  2.6652  1.1964 -0.8804
19396TIP3    H279604   6.363   3.454  11.022  1.0265  0.4047 -0.5749
19397TIP3   OH279605   2.298   2.045  15.068 -0.2617 -0.5693 -0.2309
19397TIP3    H179606   2.258   2.030  15.154  2.1067 -2.7135  0.6340
19397TIP3    H279607   2.332   2.135  15.074 -0.4850 -0.5377  0.9408
19398TIP3   OH279608   4.966   1.063   5.466 -0.5094 -0.1917  0.4131
19398TIP3    H179609   4.914   0.988   5.494 -1.3077  0.2505  0.1404
19398TIP3    H279610   4.957   1.064   5.371  1.1990 -0.9706  0.1992
19399TIP3   OH279611   2.816   4.698   4.365  0.1178 -0.0327  0.5650
19399TIP3    H179612   2.780   4.737   4.444 -0.2641 -0.6197  0.6823
19399TIP3    H279613   2.769   4.616   4.354  0.7205 -0.3361  0.1630
19400TIP3   OH279614   1.151   3.207   5.496 -0.1761 -0.0795  0.1571
19400TIP3    H179615   1.142   3.112   5.489 -0.2137 -0.1149  0.6560
19400TIP3    H279616   1.234   3.219   5.542  0.7825  0.1730 -1.5353
19401TIP3   OH279617   1.091   0.764   4.583 -0.1704  0.0299 -0.3814
19401TIP3    H179618   1.037   0.791   4.657 -0.1436  0.6082 -0.5716
19401TIP3    H279619   1.079   0.832   4.517 -0.4177 -0.6265 -1.0303
19402TIP3   OH279620   6.343   3.061  11.648  0.2634  0.1370  0.4688
19402TIP3    H179621   6.306   3.078  11.735 -0.9833  0.4994 -0.1185
19402TIP3    H279622   6.341   3.145  11.604  1.3269  0.0549  0.2184
19403TIP3   OH279623   3.796   5.909   0.501 -0.0570  0.2695 -0.4314
19403TIP3    H179624   3.766   5.861   0.578 -0.4904 -0.0124 -0.7737
19403TIP3    H279625   3.717   5.923   0.448  0.2893  0.1582 -0.9905
19404TIP3   OH279626   4.457   2.702   4.604  0.4972  0.0587  0.5028
19404TIP3    H179627   4.519   2.757   4.651  0.7434  0.3096 -0.1053
19404TIP3    H279628   4.512   2.636   4.561  0.3470  0.2730 -0.0271
19405TIP3   OH279629   0.765   3.832  11.964 -0.1145 -0.1704 -0.0518
19405TIP3    H179630   0.688   3.831  12.021  0.3522  1.4743  0.6969
19405TIP3    H279631   0.824   3.768  12.002  0.2480  1.0080  1.4720
19406TIP3   OH279632   5.482   3.382  13.821  0.2269  0.0952  0.5866
19406TIP3    H179633   5.510   3.319  13.755 -1.9304 -0.0449 -0.2959
19406TIP3    H279634   5.393   3.406  13.795  1.6101  5.2737 -0.4983
19407TIP3   OH279635   5.498   6.129  11.737 -0.2599 -0.5380  0.1650
19407TIP3    H179636   5.411   6.158  11.764  0.2381  2.6133 -1.1612
19407TIP3    H279637   5.495   6.128  11.641  1.2858  0.1311  0.0767
19408TIP3   OH279638   0.035   3.912   3.379  0.3842  0.7362  0.2063
19408TIP3    H179639   0.043   3.833   3.327  0.9136  0.5158  0.6124
19408TIP3    H279640  -0.058   3.917   3.403  0.1942  0.6935 -0.5174
19409TIP3   OH279641   3.485   3.858   0.167  0.6231  0.1222 -0.4149
19409TIP3    H179642   3.553   3.796   0.141  2.5671  1.7389  0.5532
19409TIP3    H279643   3.530   3.942   0.173 -1.3825  1.1959  0.6940
19410TIP3   OH279644   3.990   5.565  15.644  0.5426  0.4004 -0.8681
19410TIP3    H179645   3.911   5.513  15.657  0.6753  0.1257 -1.1692
19410TIP3    H279646   3.983   5.597  15.554  0.8082  0.3262 -0.9130
19411TIP3   OH279647   3.800   2.279  14.138 -0.7079 -0.2435 -0.2172
19411TIP3    H179648   3.712   2.283  14.175 -0.0664  0.7961  1.3385
19411TIP3    H279649   3.816   2.367  14.105  0.3574  0.1290  1.1614
19412TIP3   OH279650   3.970   3.497  15.512  0.2282 -0.1747 -0.2177
19412TIP3    H179651   3.887   3.468  15.549  1.5059 -1.4638  1.8307
19412TIP3    H279652   3.969   3.592  15.522 -0.9415 -0.1824 -0.1394
19413TIP3   OH279653   5.707   0.035  14.238 -0.2491  0.5031  0.2728
19413TIP3    H179654   5.649   0.090  14.290 -1.4061 -0.8245  0.4480
19413TIP3    H279655   5.714  -0.046  14.288  0.2430 -0.0510 -0.6746
19414TIP3   OH279656   4.087   1.580   3.424  0.3372 -0.3751 -0.0468
19414TIP3    H179657   4.131   1.547   3.345 -1.0931 -1.4047 -0.4421
19414TIP3    H279658   4.006   1.530   3.430 -1.4903  2.3595 -0.0845
19415TIP3   OH279659   6.257   5.449   0.040 -0.6137 -0.0908  0.3737
19415TIP3    H179660   6.298   5.425  -0.043  2.4159  0.1262  1.6706
19415TIP3    H279661   6.263   5.544   0.043 -2.5088  0.0810  0.0619
19416TIP3   OH279662   2.330   6.515  15.186 -0.2735 -0.3939 -0.8177
19416TIP3    H179663   2.346   6.588  15.245 -2.9777 -0.4375  0.0715
19416TIP3    H279664   2.407   6.514  15.128  1.9219  0.3747  1.8804
19417TIP3   OH279665   0.564   5.322  13.721  0.1944  0.2404  0.2593
19417TIP3    H179666   0.616   5.390  13.764  0.6471 -0.8448  1.4917
19417TIP3    H279667   0.558   5.252  13.786 -2.8652  0.3220  0.2316
19418TIP3   OH279668   5.697   6.773   4.110 -0.1588 -0.7119  0.7105
19418TIP3    H179669   5.636   6.810   4.046 -0.2074  0.0034  1.1558
19418TIP3    H279670   5.665   6.806   4.194  0.8591 -0.3008  0.9479
19419TIP3   OH279671   6.210   6.531  15.560 -0.0570  0.7292  0.0386
19419TIP3    H179672   6.201   6.623  15.587  2.3797  0.7810  0.9163
19419TIP3    H279673   6.129   6.489  15.590 -0.3265  2.1753  1.4837
19420TIP3   OH279674   4.543   1.493  11.817 -0.4079  0.1901  0.1106
19420TIP3    H179675   4.578   1.522  11.733  1.1519 -0.8470  0.3684
19420TIP3    H279676   4.496   1.569  11.851 -1.8257  0.3658 -2.0686
19421TIP3   OH279677   0.042   6.303  11.348 -0.3601 -0.0898 -0.2926
19421TIP3    H179678  -0.017   6.330  11.418  0.3094 -0.5497  0.4824
19421TIP3    H279679   0.048   6.208  11.357  0.7013 -0.0320 -0.1545
19422TIP3   OH279680   3.371   4.729   5.740  0.1018  0.0106  0.3433
19422TIP3    H179681   3.396   4.821   5.738  0.4113 -0.0637  0.7490
19422TIP3    H279682   3.351   4.711   5.831  0.3360 -0.4031  0.3163
19423TIP3   OH279683   0.637   0.009  12.519 -0.4883 -0.3405  0.3466
19423TIP3    H179684   0.649  -0.049  12.444 -0.8687 -0.3891  0.3209
19423TIP3    H279685   0.633  -0.049  12.595  2.0774 -0.1666  0.6821
19424TIP3   OH279686   1.912   3.001   4.419 -0.3740 -0.2681 -0.6130
19424TIP3    H179687   1.889   2.911   4.396  0.1510 -0.7994  0.8053
19424TIP3    H279688   1.978   3.027   4.354  2.4247 -2.3540  1.1534
19425TIP3   OH279689   5.300   4.084   1.204  0.0591 -0.5762 -0.1443
19425TIP3    H179690   5.367   4.053   1.143  1.9012  0.2656  1.3401
19425TIP3    H279691   5.294   4.179   1.188 -1.8098 -0.8239 -1.1741
19426TIP3   OH279692   0.953   5.028   6.520 -0.1733 -0.2523  0.1251
19426TIP3    H179693   1.019   5.088   6.556  0.0023 -0.4758  0.1750
19426TIP3    H279694   0.917   5.075   6.444 -1.8668  1.0287  1.6257
19427TIP3   OH279695   0.544   3.041   1.566  0.1046  0.0460  0.4482
19427TIP3    H179696   0.632   3.064   1.536  0.6252  1.0299  2.5633
19427TIP3    H279697   0.554   2.959   1.613 -0.0675  0.2525  0.8509
19428TIP3   OH279698   2.485   0.918   0.437 -0.0757 -0.4447  0.0345
19428TIP3    H179699   2.522   0.878   0.516  0.4556 -0.3294 -0.1509
19428TIP3    H279700   2.408   0.966   0.468  1.1699  1.1448  0.8125
19429TIP3   OH279701   4.931   6.266   0.719  0.2816  0.2502 -0.5494
19429TIP3    H179702   4.991   6.289   0.789  0.6905 -0.4128 -0.6676
19429TIP3    H279703   4.976   6.196   0.671 -0.3983  0.0417 -0.8974
19430TIP3   OH279704   0.949   2.395  10.867 -0.5419  0.3217 -0.0120
19430TIP3    H179705   0.994   2.399  10.783 -0.1858 -0.4687  0.1395
19430TIP3    H279706   0.972   2.477  10.910  1.3079 -0.3451  0.3445
19431TIP3   OH279707   5.745   3.226   0.918 -0.4502 -0.2711 -0.1612
19431TIP3    H179708   5.700   3.306   0.945  1.5353  1.3600 -1.4203
19431TIP3    H279709   5.701   3.199   0.838 -0.7145 -0.0759 -0.0824
19432TIP3   OH279710   2.173   6.771   5.441 -0.4973 -0.0341 -0.3572
19432TIP3    H179711   2.230   6.845   5.463  0.7003 -1.0736  0.1870
19432TIP3    H279712   2.104   6.772   5.507 -0.0708  0.1674  0.0892
19433TIP3   OH279713   4.804   0.929   4.961 -0.6068 -0.1555 -0.2988
19433TIP3    H179714   4.795   1.023   4.944 -1.2854 -0.1443  0.1023
19433TIP3    H279715   4.898   0.913   4.954 -0.1916  0.9911  1.8117
19434TIP3   OH279716   2.553   4.139   2.637 -0.9573 -0.7689  0.0296
19434TIP3    H179717   2.530   4.091   2.558 -0.8588 -0.9046  0.0824
19434TIP3    H279718   2.620   4.085   2.679  0.9095  0.5369 -1.0998
19435TIP3   OH279719   5.370   5.130  12.988  0.3586  0.2001  0.2499
19435TIP3    H179720   5.337   5.069  13.055  2.1678  0.9098  1.8583
19435TIP3    H279721   5.386   5.211  13.035  1.2173  0.8965 -1.1800
19436TIP3   OH279722   4.364   3.989   2.956 -0.6824  0.0021 -0.1233
19436TIP3    H179723   4.410   3.936   2.891  0.1823 -0.6307  0.9525
19436TIP3    H279724   4.434   4.033   3.005 -1.3359  0.9962 -0.0409
19437TIP3   OH279725   3.271   6.204  14.023 -0.0346 -0.4420  0.3859
19437TIP3    H179726   3.205   6.233  13.959 -0.9603 -1.3619  0.9031
19437TIP3    H279727   3.243   6.116  14.048  1.8646 -1.2058 -0.0045
19438TIP3   OH279728   1.836   6.772  11.912  1.3099  0.2899  0.0207
19438TIP3    H179729   1.917   6.727  11.887  0.4918 -0.8844 -0.5721
19438TIP3    H279730   1.838   6.854  11.863  1.2453 -0.5782 -1.4867
19439TIP3   OH279731   3.990   1.580  16.311  0.1377 -0.1349 -0.7135
19439TIP3    H179732   4.019   1.552  16.397 -0.5642 -0.5865 -0.6125
19439TIP3    H279733   4.052   1.540  16.250  0.4550 -0.0672 -0.4344
19440TIP3   OH279734   1.599   6.365  16.002 -0.0619 -0.5360  0.3561
19440TIP3    H179735   1.587   6.460  16.000  0.9538 -0.3485  1.5462
19440TIP3    H279736   1.519   6.331  16.042  1.0454  0.2177  3.5103
19441TIP3   OH279737   5.191   1.520   1.572 -0.3522  0.1414 -0.1902
19441TIP3    H179738   5.190   1.539   1.478 -0.5126  1.3250  0.0428
19441TIP3    H279739   5.106   1.479   1.589  0.9007 -3.2634 -1.1433
19442TIP3   OH279740   0.698   3.869  12.999 -0.0886  0.1034  0.4157
19442TIP3    H179741   0.745   3.896  12.920  0.0407 -0.2935  0.3532
19442TIP3    H279742   0.765   3.828  13.054 -0.3663 -0.4740  0.3219
19443TIP3   OH279743   5.544   4.092  13.828 -0.0989  0.5643  0.4152
19443TIP3    H179744   5.497   4.118  13.907  0.3046  1.0934  0.4954
19443TIP3    H279745   5.499   4.138  13.757 -0.6889 -0.2025  0.2842
19444TIP3   OH279746   4.051   4.405  16.155  0.2974 -0.5657 -0.3187
19444TIP3    H179747   3.968   4.410  16.202 -0.0974 -0.1123 -1.0341
19444TIP3    H279748   4.056   4.315  16.124 -0.3033 -0.4035 -0.9164
19445TIP3   OH279749   3.965   5.173   4.495  0.6700  0.2579 -0.1272
19445TIP3    H179750   3.870   5.160   4.494  0.8873 -1.9068  1.1770
19445TIP3    H279751   3.976   5.259   4.534 -0.7507  0.1191  0.6758
19446TIP3   OH279752   0.968   6.656   4.622  0.2673  0.3349 -0.1941
19446TIP3    H179753   0.874   6.647   4.638  0.4227  0.0021  0.5490
19446TIP3    H279754   1.005   6.571   4.643  0.8089  0.6274  0.0665
19447TIP3   OH279755   6.017   3.043  13.661  0.3421 -0.3084  0.2095
19447TIP3    H179756   6.005   2.956  13.624  0.3742 -0.4785  0.5960
19447TIP3    H279757   6.103   3.072  13.630 -0.0822 -0.0065 -0.7287
19448TIP3   OH279758   4.459   2.925   2.592  0.3128  0.3285 -0.4074
19448TIP3    H179759   4.467   2.910   2.686 -0.2749 -1.0021 -0.5529
19448TIP3    H279760   4.409   3.007   2.585  0.1250  0.2930  0.4336
19449TIP3   OH279761   5.078   2.930  12.939  0.0294  0.0882 -0.5070
19449TIP3    H179762   5.169   2.900  12.947 -0.0807 -0.4122 -1.0427
19449TIP3    H279763   5.057   2.918  12.847 -0.3666  0.8582 -0.5231
19450TIP3   OH279764   4.053   1.033   0.910  0.0208  0.4114 -0.0273
19450TIP3    H179765   4.054   1.095   0.983  0.8706 -0.3008  0.5959
19450TIP3    H279766   4.063   1.087   0.832  1.6132  1.0190  0.5583
19451TIP3   OH279767   1.122   2.084  15.018  0.7514  0.0120 -0.4924
19451TIP3    H179768   1.192   2.148  15.005  1.4205 -0.7117 -0.4836
19451TIP3    H279769   1.122   2.031  14.939  0.4484 -0.2219 -0.3387
19452TIP3   OH279770   4.954   4.326  11.910 -0.0176  0.1982 -0.7809
19452TIP3    H179771   4.917   4.415  11.904  1.4830  0.8518 -0.7171
19452TIP3    H279772   5.028   4.336  11.969 -0.6197 -1.3965  0.3043
19453TIP3   OH279773   4.186   0.774  16.680  0.2113  0.2036  0.1458
19453TIP3    H179774   4.097   0.761  16.647  1.4885 -0.5255 -3.3526
19453TIP3    H279775   4.194   0.713  16.753 -2.2693  0.6975  0.9328
19454TIP3   OH279776   3.450   6.018  11.718  0.4449  0.3628 -0.5061
19454TIP3    H179777   3.397   5.942  11.694  0.1634  0.3363  0.1938
19454TIP3    H279778   3.398   6.064  11.783  0.7517  0.9934 -0.7015
19455TIP3   OH279779   3.018   0.334   4.964  0.3571  0.1183 -0.9287
19455TIP3    H179780   3.057   0.347   5.051 -0.2550 -0.5132 -0.5446
19455TIP3    H279781   2.989   0.421   4.937 -0.7333  0.1189  0.1400
19456TIP3   OH279782   1.898   0.172   2.244 -0.4979  0.5365  0.4603
19456TIP3    H179783   1.939   0.085   2.248  0.3454  0.7699 -1.9334
19456TIP3    H279784   1.848   0.171   2.163 -0.9937  2.0987  0.7232
19457TIP3   OH279785   3.146   4.342  11.883  0.0461 -0.0173 -0.2260
19457TIP3    H179786   3.219   4.369  11.938 -0.8274 -2.2320  2.1930
19457TIP3    H279787   3.080   4.410  11.898  0.2846  0.0711  0.4920
19458TIP3   OH279788   4.982   3.812   6.957  0.5074 -0.1198 -0.3091
19458TIP3    H179789   5.058   3.836   7.011  0.2071 -2.1585  1.1094
19458TIP3    H279790   5.009   3.733   6.911 -1.2835 -1.9125  1.5642
19459TIP3   OH279791   4.837   3.946  13.046 -0.2040  0.1626 -0.0097
19459TIP3    H179792   4.752   3.908  13.024 -1.4729  2.7779  0.0006
19459TIP3    H279793   4.833   3.961  13.141  0.4250 -0.0293  0.0511
19460TIP3   OH279794   6.431   0.291   6.109  0.0801  0.0520 -0.6500
19460TIP3    H179795   6.478   0.210   6.132  0.1200  0.7123  1.8895
19460TIP3    H279796   6.499   0.359   6.113 -0.5494  0.6379  0.4451
19461TIP3   OH279797   0.821   0.098  12.176  0.3502 -0.0917 -0.2256
19461TIP3    H179798   0.846   0.007  12.159 -1.6200 -0.7738  0.2581
19461TIP3    H279799   0.858   0.117  12.262  1.6558 -0.0653 -0.7741
19462TIP3   OH279800   5.687   2.908   1.000 -0.0658  0.4175 -0.4253
19462TIP3    H179801   5.600   2.940   0.973  0.4215  1.0814 -1.2579
19462TIP3    H279802   5.719   2.859   0.925 -0.9170 -2.4244  0.9298
19463TIP3   OH279803   5.731   2.743   1.693  0.0549  0.1647  0.1618
19463TIP3    H179804   5.782   2.821   1.670 -1.0110  1.2134  1.1742
19463TIP3    H279805   5.779   2.704   1.766  1.5163 -1.1494 -1.4324
19464TIP3   OH279806   5.986   2.000   3.707 -0.3204 -0.2681 -0.1763
19464TIP3    H179807   6.039   2.080   3.708  1.0335 -1.0981 -1.7293
19464TIP3    H279808   6.044   1.933   3.671 -2.8161 -0.9187 -3.4286
19465TIP3   OH279809   2.511   1.875  12.611 -0.3616 -0.7073  0.0969
19465TIP3    H179810   2.437   1.931  12.589 -0.9290 -1.6676 -0.5111
19465TIP3    H279811   2.558   1.864  12.528  0.6585  0.1658  0.5454
19466TIP3   OH279812   6.145   2.974   2.130  0.4703 -0.1879  0.0340
19466TIP3    H179813   6.235   2.976   2.099  0.2273 -0.9721 -0.7489
19466TIP3    H279814   6.102   3.047   2.085  0.0991 -1.3649 -1.5893
19467TIP3   OH279815   4.745   1.269  11.062 -0.1985  0.3401  0.2205
19467TIP3    H179816   4.729   1.362  11.043  0.5862  1.0546  2.7168
19467TIP3    H279817   4.702   1.223  10.989  0.0566  2.6417 -1.5298
19468TIP3   OH279818   5.026   4.058   4.448 -0.4668  0.0335 -0.0587
19468TIP3    H179819   4.993   4.148   4.454 -0.1476  0.1059  0.7648
19468TIP3    H279820   5.061   4.051   4.359  0.0663  0.9291  0.0691
19469TIP3   OH279821   1.056   2.877   1.634  0.5128 -0.0227  0.0053
19469TIP3    H179822   1.049   2.972   1.625  0.1803  0.1360  1.6364
19469TIP3    H279823   0.974   2.843   1.597 -0.9678  0.6031  2.4612
19470TIP3   OH279824   0.903   4.175  11.347 -0.2364  0.2899  0.4143
19470TIP3    H179825   0.934   4.150  11.434  0.1536 -0.7343 -0.0096
19470TIP3    H279826   0.979   4.164  11.291 -0.2456  1.7460  0.0612
19471TIP3   OH279827   4.705   1.730   4.679 -0.7156  0.1878  0.0768
19471TIP3    H179828   4.795   1.713   4.651 -1.3352 -1.1281 -1.2862
19471TIP3    H279829   4.665   1.644   4.686 -2.4955  0.7900 -1.6192
19472TIP3   OH279830   3.673   0.325  16.624 -0.1683 -0.1663  0.2366
19472TIP3    H179831   3.743   0.373  16.580 -0.0113 -0.0196  0.6433
19472TIP3    H279832   3.712   0.239  16.645 -0.1701 -0.1535  0.2922
19473TIP3   OH279833   1.083   5.749  11.101  0.1589  0.0584  0.1379
19473TIP3    H179834   1.038   5.780  11.023  0.0284  0.3492  0.3300
19473TIP3    H279835   1.175   5.769  11.085 -0.0456  1.6630  0.7752
19474TIP3   OH279836   3.877   5.855   2.396 -0.1453  0.4046 -0.1997
19474TIP3    H179837   3.954   5.814   2.435  0.3885  4.0049  3.1381
19474TIP3    H279838   3.810   5.786   2.399  2.2086 -2.1065 -1.0453
19475TIP3   OH279839   0.582   1.057   1.865 -0.2285 -0.6328  0.8095
19475TIP3    H179840   0.626   1.050   1.780  1.5616 -0.4814  1.6861
19475TIP3    H279841   0.610   0.978   1.913  1.7666  0.9999  2.5416
19476TIP3   OH279842   3.695   4.864   6.856 -0.2928  0.3525 -0.0210
19476TIP3    H179843   3.764   4.798   6.849 -1.5038 -1.0417  0.5455
19476TIP3    H279844   3.741   4.946   6.868  1.3644 -0.0149 -2.8681
19477TIP3   OH279845   3.512   3.275   2.783 -0.5386 -0.6649 -1.0219
19477TIP3    H179846   3.586   3.335   2.791 -1.6941  0.6938 -0.0788
19477TIP3    H279847   3.522   3.216   2.858 -1.2954  0.5814  0.1072
19478TIP3   OH279848   1.913   3.770   0.393 -0.1306  0.1347  0.3807
19478TIP3    H179849   1.937   3.806   0.308  0.3851 -0.1919  0.3775
19478TIP3    H279850   1.957   3.685   0.396 -0.7962 -0.2032  0.6484
19479TIP3   OH279851   5.618   3.884  17.076  0.1184 -0.6788  0.5908
19479TIP3    H179852   5.680   3.952  17.050  0.8310 -0.9637  1.4992
19479TIP3    H279853   5.532   3.923  17.061  0.5155  0.2986  0.7839
19480TIP3   OH279854   1.581   6.132  11.808 -0.0900 -0.1279  0.1075
19480TIP3    H179855   1.642   6.177  11.750  0.3701 -0.5693  0.2396
19480TIP3    H279856   1.496   6.140  11.765 -0.2063  1.7027  0.5915
19481TIP3   OH279857   3.431   1.931   1.410 -0.1871 -0.5034 -0.2089
19481TIP3    H179858   3.439   2.026   1.415  0.0983 -0.5515  0.2902
19481TIP3    H279859   3.492   1.906   1.340 -0.2449 -0.3274 -0.3247
19482TIP3   OH279860   6.095   5.065  16.227  0.0785 -0.2176  0.3373
19482TIP3    H179861   6.113   5.159  16.227 -0.7203 -0.0570  1.0628
19482TIP3    H279862   6.067   5.046  16.137  1.8894 -0.1160 -0.2920
19483TIP3   OH279863   2.106   1.973   2.240  0.0377 -0.3427  0.1579
19483TIP3    H179864   2.168   2.042   2.217 -0.2867 -0.2454 -0.4257
19483TIP3    H279865   2.111   1.910   2.168 -1.3277  0.2000 -0.4492
19484TIP3   OH279866   2.535   5.996  13.152  0.1264  0.2468  0.1108
19484TIP3    H179867   2.577   6.081  13.138  1.6071 -0.4439  0.2281
19484TIP3    H279868   2.595   5.948  13.209 -0.6716 -0.9006  0.0308
19485TIP3   OH279869   6.078   6.526   5.636 -0.2984 -0.4758  0.0410
19485TIP3    H179870   6.053   6.582   5.709 -0.2203  0.3185 -0.5289
19485TIP3    H279871   6.073   6.437   5.671 -0.7830 -0.1383  0.8521
19486TIP3   OH279872   2.708   4.875   1.566  0.8863  0.3630  0.0375
19486TIP3    H179873   2.627   4.829   1.587 -0.4188  2.2750 -0.5157
19486TIP3    H279874   2.744   4.901   1.651  0.4733  0.2177  0.2567
19487TIP3   OH279875   3.992   4.989  16.874  0.1077 -0.2997  0.1765
19487TIP3    H179876   3.948   4.935  16.940  0.9799  0.2576  1.2474
19487TIP3    H279877   3.982   5.079  16.906  1.2441 -0.0967 -0.0211
19488TIP3   OH279878   6.086   2.894  16.302 -0.1847 -0.4346 -0.1190
19488TIP3    H179879   6.140   2.851  16.368 -0.2357 -0.4898 -0.1131
19488TIP3    H279880   6.146   2.916  16.231 -0.0050  0.2189  0.2286
19489TIP3   OH279881   1.264   0.951   4.200  0.5242 -0.2936 -0.2589
19489TIP3    H179882   1.235   0.898   4.126  0.1237 -0.0708 -0.2606
19489TIP3    H279883   1.184   0.973   4.248  0.8390 -1.0632  0.6710
19490TIP3   OH279884   4.008   1.511   5.077  0.0099  0.1739 -0.6513
19490TIP3    H179885   4.074   1.450   5.110 -0.2723  0.0275 -0.3489
19490TIP3    H279886   3.935   1.455   5.050 -0.1616  0.3624 -0.5813
19491TIP3   OH279887   3.175   6.702   3.879 -0.3590 -0.0480 -0.3154
19491TIP3    H179888   3.234   6.774   3.860 -1.0846  0.4590 -0.6607
19491TIP3    H279889   3.180   6.692   3.974 -2.9773  2.8897  0.2848
19492TIP3   OH279890   1.631   0.575  11.946 -1.0804  0.0088 -0.4321
19492TIP3    H179891   1.704   0.629  11.973 -1.6908  0.6051  0.0676
19492TIP3    H279892   1.664   0.525  11.871  0.1944 -0.6092  0.5079
19493TIP3   OH279893   6.432   2.995  15.800  0.0626 -0.4614  0.5058
19493TIP3    H179894   6.524   3.006  15.777 -0.0885 -0.8381 -0.3167
19493TIP3    H279895   6.432   2.920  15.860  0.0481 -2.2500 -1.5752
19494TIP3   OH279896   4.302   2.571  12.369  0.1272  0.0656 -0.2380
19494TIP3    H179897   4.230   2.508  12.379  0.3175 -0.6379 -2.6708
19494TIP3    H279898   4.263   2.655  12.390 -0.8352 -0.5546  0.5573
19495TIP3   OH279899   4.719   1.837  12.611  0.5658  0.3801  0.1838
19495TIP3    H179900   4.651   1.838  12.679 -0.2561  0.4991 -0.6146
19495TIP3    H279901   4.698   1.759  12.559 -0.2383  1.5439 -1.3099
19496TIP3   OH279902   1.463   6.637  15.422 -0.1698 -0.0080 -0.3563
19496TIP3    H179903   1.502   6.606  15.504 -0.1365 -0.4571 -0.5418
19496TIP3    H279904   1.376   6.597  15.420  0.1569 -0.7053 -0.9585
19497TIP3   OH279905   4.707   2.625  16.804  0.0727  0.4321  0.4727
19497TIP3    H179906   4.731   2.538  16.835 -0.5392 -0.5464 -1.6529
19497TIP3    H279907   4.785   2.656  16.757  0.2868  1.0579  1.2149
19498TIP3   OH279908   4.192   5.029   1.656 -0.4429 -0.3944 -0.1007
19498TIP3    H179909   4.120   5.063   1.603 -1.4265 -1.9816  0.1495
19498TIP3    H279910   4.163   4.942   1.684  0.7019 -0.2458  1.7460
19499TIP3   OH279911   1.857   3.358   4.926 -0.9490 -0.6036  0.0679
19499TIP3    H179912   1.882   3.399   4.844 -0.6841 -0.3902  0.2507
19499TIP3    H279913   1.941   3.343   4.971 -1.1807  1.3540  1.2802
19500TIP3   OH279914   1.095   1.672   1.721 -0.0118 -0.1009 -0.3642
19500TIP3    H179915   1.119   1.614   1.648  2.4171  0.8378 -0.4013
19500TIP3    H279916   1.113   1.760   1.689  2.3010  0.2878  1.6977
19501TIP3   OH279917   1.501   6.375  12.569  0.0004  0.3182 -0.8395
19501TIP3    H179918   1.468   6.445  12.512 -2.7536 -1.0630 -1.0844
19501TIP3    H279919   1.450   6.383  12.649 -0.8539 -1.7907 -1.1205
19502TIP3   OH279920   0.472   1.441  11.452 -0.0726  0.0149  0.4871
19502TIP3    H179921   0.549   1.460  11.398  0.9883 -1.4800  1.4237
19502TIP3    H279922   0.413   1.515  11.435  1.0757  0.6277 -1.1176
19503TIP3   OH279923   4.076   4.594   0.477 -0.0497  0.5546 -0.0086
19503TIP3    H179924   4.076   4.575   0.383  0.1621  0.0990  0.0790
19503TIP3    H279925   4.036   4.680   0.484 -3.4529 -0.8608 -0.2306
19504TIP3   OH279926   5.917   5.188   1.478  0.0641 -0.0267  0.5218
19504TIP3    H179927   5.895   5.165   1.568 -1.0426 -0.4501  0.1692
19504TIP3    H279928   5.834   5.179   1.430  0.8148 -0.7023 -0.7142
19505TIP3   OH279929   0.755   1.979   5.024 -0.0034  0.3879 -0.0303
19505TIP3    H179930   0.760   2.066   5.065 -2.4617  0.5720  0.0638
19505TIP3    H279931   0.696   1.930   5.081 -0.3455 -0.6440 -1.2432
19506TIP3   OH279932   0.910   0.550  14.212  0.2160  0.0458  0.4617
19506TIP3    H179933   0.877   0.526  14.125 -0.8969 -1.9911  1.3658
19506TIP3    H279934   0.834   0.539  14.270  1.1671  0.4539  1.8318
19507TIP3   OH279935   3.995   5.999  14.270  0.4031  0.2504 -0.1105
19507TIP3    H179936   4.032   5.996  14.182 -0.6104 -0.1418 -0.5269
19507TIP3    H279937   3.907   6.034  14.259 -0.1396 -0.8514  0.5973
19508TIP3   OH279938   4.659   1.951   1.646 -0.4161  0.3500 -0.4564
19508TIP3    H179939   4.691   2.020   1.704 -0.0497  1.0005 -1.4100
19508TIP3    H279940   4.635   1.996   1.566  1.1465 -0.7705 -1.6282
19509TIP3   OH279941   2.687   5.335  11.645  0.1457 -0.0680 -0.4223
19509TIP3    H179942   2.698   5.430  11.648 -0.2058 -0.0412  0.4453
19509TIP3    H279943   2.618   5.321  11.580  1.3766  0.1310 -1.8210
19510TIP3   OH279944   6.298   0.880   4.850  0.0923 -0.7491  0.5122
19510TIP3    H179945   6.315   0.969   4.822  0.9963 -0.7802  0.9310
19510TIP3    H279946   6.384   0.843   4.867 -0.2483 -1.8065  0.0336
19511TIP3   OH279947   4.715   3.097   4.076  0.1036 -0.6955 -0.3145
19511TIP3    H179948   4.801   3.065   4.051  0.2606 -1.0747  0.6764
19511TIP3    H279949   4.658   3.071   4.003  0.4629 -2.1766 -0.0971
19512TIP3   OH279950   4.166   5.773   2.194 -0.4705 -0.4721 -0.5084
19512TIP3    H179951   4.085   5.741   2.233 -0.5226  0.0811 -0.1518
19512TIP3    H279952   4.147   5.777   2.100 -0.2560 -2.0724 -0.6574
19513TIP3   OH279953   3.375   6.691   2.369  0.2846 -0.7051 -0.6594
19513TIP3    H179954   3.295   6.715   2.416 -0.0506 -0.0261 -1.5310
19513TIP3    H279955   3.440   6.678   2.437  0.2494  1.8556 -0.0438
19514TIP3   OH279956   3.018   5.807   5.267 -0.0493 -0.2026  0.0234
19514TIP3    H179957   3.049   5.878   5.323  0.4950 -1.2253  1.0464
19514TIP3    H279958   3.088   5.742   5.270 -0.5341 -0.7891 -0.9122
19515TIP3   OH279959   3.529   0.153   6.037 -0.2722  0.2442 -0.0980
19515TIP3    H179960   3.508   0.244   6.055 -0.9373 -0.0301  0.5913
19515TIP3    H279961   3.614   0.140   6.079 -0.3859  0.4334  0.1990
19516TIP3   OH279962   0.717   6.178   5.781 -0.0933  0.3844 -0.0557
19516TIP3    H179963   0.744   6.242   5.848 -0.1959 -2.0304  2.4716
19516TIP3    H279964   0.693   6.100   5.831 -1.1629 -1.2585 -2.9180
19517TIP3   OH279965   4.493   4.774  15.408 -0.2843  0.0542  0.4789
19517TIP3    H179966   4.480   4.868  15.416 -0.8517  0.1640 -1.2533
19517TIP3    H279967   4.580   4.765  15.369  0.0795 -0.1774  1.3344
19518TIP3   OH279968   1.116   0.029   2.689 -0.3318  0.8650 -0.2284
19518TIP3    H179969   1.031   0.002   2.655  0.0165 -0.6195 -0.0123
19518TIP3    H279970   1.101   0.044   2.783 -0.4571  1.0744 -0.2821
19519TIP3   OH279971   2.546   1.943  15.035 -0.4889 -0.0967  0.7098
19519TIP3    H179972   2.459   1.982  15.037 -1.0822 -1.3904  0.9643
19519TIP3    H279973   2.545   1.877  15.104  0.7957  0.0673  0.9079
19520TIP3   OH279974   5.083   4.585   5.742  0.2159 -0.3041 -0.3119
19520TIP3    H179975   5.120   4.606   5.828 -0.9734  0.1209  0.1035
19520TIP3    H279976   5.088   4.489   5.737  4.2560 -0.2131 -1.5928
19521TIP3   OH279977   2.714   4.501   4.852  0.0440 -0.5631  0.1600
19521TIP3    H179978   2.655   4.481   4.924 -0.8598 -0.0224 -0.4180
19521TIP3    H279979   2.769   4.572   4.886 -0.4950 -0.1881  0.2475
19522TIP3   OH279980   2.633   1.359   1.957 -0.2240 -0.5252 -0.6926
19522TIP3    H179981   2.670   1.322   1.876  1.7245  1.2873 -0.7105
19522TIP3    H279982   2.582   1.434   1.928  0.4467  0.1077 -0.2672
19523TIP3   OH279983   6.169   3.986   3.927 -0.1397 -0.1052 -0.1267
19523TIP3    H179984   6.168   4.075   3.961  0.8135  0.3572 -1.2114
19523TIP3    H279985   6.104   3.939   3.979 -0.8727  1.2913  0.2757
19524TIP3   OH279986   5.400   6.257   2.095  0.2664 -0.1079  0.2493
19524TIP3    H179987   5.343   6.229   2.166  0.1134  0.9993  0.5851
19524TIP3    H279988   5.341   6.289   2.028  0.4459  2.2456  1.1079
19525TIP3   OH279989   6.772   6.643  16.675  0.1240 -0.2354  0.2010
19525TIP3    H179990   6.820   6.725  16.681 -2.1189  1.2835 -1.1119
19525TIP3    H279991   6.681   6.668  16.688 -0.5371 -2.7093  0.8328
19526TIP3   OH279992   1.749   0.628   3.175  0.2043 -0.2356 -0.3703
19526TIP3    H179993   1.739   0.684   3.252 -0.2463  0.0949 -0.6637
19526TIP3    H279994   1.818   0.670   3.123  0.9699 -0.8128  0.1553
19527TIP3   OH279995   0.816   3.031   0.583  0.1506 -0.1337  0.1600
19527TIP3    H179996   0.748   2.982   0.538  1.4389 -1.2041 -0.6981
19527TIP3    H279997   0.859   3.082   0.514  0.7863 -0.1658  0.5171
19528TIP3   OH279998   6.765   4.653  11.438 -0.7286  0.7561 -0.1525
19528TIP3    H179999   6.776   4.574  11.491 -2.7999  1.8560  2.0970
19528TIP3    H280000   6.844   4.657  11.384  0.9983 -1.0561  2.0601
19529TIP3   OH280001   0.577   3.903   5.605 -0.2192  0.2683 -0.2205
19529TIP3    H180002   0.560   3.834   5.541  0.9022 -0.1033 -0.1388
19529TIP3    H280003   0.673   3.907   5.611 -0.3079  0.1482  1.6089
19530TIP3   OH280004   0.220   6.499   6.208 -0.5779  0.2007  0.1422
19530TIP3    H180005   0.184   6.415   6.237  4.7361 -2.1345  1.1179
19530TIP3    H280006   0.210   6.557   6.284 -2.2079 -0.1982  0.2815
19531TIP3   OH280007   2.044   3.265  14.075  0.1674 -0.6183 -0.3068
19531TIP3    H180008   1.956   3.233  14.055  0.1617 -0.4728 -0.5145
19531TIP3    H280009   2.103   3.209  14.023  0.2463 -1.1690  0.3562
19532TIP3   OH280010   1.622   2.785   2.253  0.4167  0.3563 -0.1621
19532TIP3    H180011   1.690   2.842   2.216  2.1192 -1.6338 -0.3069
19532TIP3    H280012   1.604   2.721   2.183 -1.6903  0.8632 -0.1423
19533TIP3   OH280013   0.477   0.590   2.328  0.0503  0.2602  0.5282
19533TIP3    H180014   0.400   0.538   2.352  1.0166 -1.7443 -0.5583
19533TIP3    H280015   0.545   0.562   2.389  0.6596  0.0197 -0.2535
19534TIP3   OH280016   2.429   6.014   4.139 -0.4435  0.1496 -0.1516
19534TIP3    H180017   2.418   5.924   4.170 -0.3544  0.2415  0.1502
19534TIP3    H280018   2.477   6.005   4.057  0.7341 -0.0027  0.5251
19535TIP3   OH280019   0.334   3.570   2.177  0.4195  0.1744  0.3770
19535TIP3    H180020   0.312   3.550   2.268  0.3667  1.0623  0.5697
19535TIP3    H280021   0.333   3.485   2.133 -0.6664 -0.1424  0.9669
19536TIP3   OH280022   1.700   2.684   2.615 -0.3795 -0.1196  0.1370
19536TIP3    H180023   1.705   2.756   2.677  1.0427 -0.7968  0.8655
19536TIP3    H280024   1.676   2.608   2.667 -2.7487 -0.0656 -0.7637
19537TIP3   OH280025   1.785   1.762  13.921  0.2373  0.0357 -0.1857
19537TIP3    H180026   1.767   1.711  14.000 -0.6648  0.9542  0.2201
19537TIP3    H280027   1.701   1.801  13.898  0.1132 -1.3911 -2.4839
19538TIP3   OH280028   1.386   0.604  11.428 -0.1673  0.7819 -0.3594
19538TIP3    H180029   1.476   0.577  11.445  0.5319  0.0914 -4.2407
19538TIP3    H280030   1.391   0.698  11.415  0.0308  0.7433 -0.5795
19539TIP3   OH280031   2.739   6.756  11.593 -0.0948 -0.1296 -0.2756
19539TIP3    H180032   2.772   6.692  11.530 -0.1053 -0.1434 -0.2666
19539TIP3    H280033   2.645   6.760  11.576 -0.0457  0.1312 -0.5068
19540TIP3   OH280034   2.471   4.378  15.556 -0.2267 -0.0271  0.5618
19540TIP3    H180035   2.381   4.408  15.572 -0.9573 -1.2773 -0.8895
19540TIP3    H280036   2.462   4.283  15.543  0.3907  0.3222 -4.6416
19541TIP3   OH280037   2.344   4.435   4.365  0.5719  0.1212 -0.2431
19541TIP3    H180038   2.256   4.403   4.343  1.0691  0.1548 -2.5034
19541TIP3    H280039   2.334   4.474   4.451 -1.8335  0.8819 -0.7885
19542TIP3   OH280040   0.910   2.878   3.151 -1.0771  0.5234 -0.4553
19542TIP3    H180041   0.825   2.835   3.160  0.4819 -3.0486 -1.0054
19542TIP3    H280042   0.944   2.883   3.240 -1.2379  0.5189 -0.3940
19543TIP3   OH280043   1.559   4.392  13.057 -0.4817 -0.3156 -0.4190
19543TIP3    H180044   1.562   4.474  13.007  0.4443  0.0128  0.1567
19543TIP3    H280045   1.488   4.405  13.120 -0.7115 -0.1768 -0.7028
19544TIP3   OH280046   1.718   1.352  11.622  0.7250 -0.6472 -0.0443
19544TIP3    H180047   1.661   1.425  11.598 -1.7974 -2.1111  1.0971
19544TIP3    H280048   1.758   1.378  11.705  1.3662  0.1749 -0.5935
19545TIP3   OH280049   0.542   2.761   0.698 -0.2286  0.8642  0.1220
19545TIP3    H180050   0.521   2.813   0.776 -1.0545 -0.2484  0.6771
19545TIP3    H280051   0.467   2.774   0.640 -1.4761 -1.2248  1.1103
19546TIP3   OH280052   1.154   3.112   3.487  0.2019  0.0479 -0.1876
19546TIP3    H180053   1.108   3.197   3.484  1.1886  0.5894 -0.2566
19546TIP3    H280054   1.214   3.115   3.413  2.4810  0.5983  1.5913
19547TIP3   OH280055   2.643   3.767   1.924 -0.4154 -0.0642  0.5112
19547TIP3    H180056   2.606   3.758   2.012 -0.5064 -1.5590  0.3427
19547TIP3    H280057   2.737   3.763   1.937 -0.2959  2.2511  0.7773
19548TIP3   OH280058   1.682   4.354   5.825 -0.4893  0.3120  0.0461
19548TIP3    H180059   1.754   4.306   5.864  0.2543  1.3211 -0.0482
19548TIP3    H280060   1.613   4.353   5.891 -0.5783 -1.0389 -0.0380
19549TIP3   OH280061   3.539   1.265   0.829 -0.4003 -0.1535  0.1828
19549TIP3    H180062   3.455   1.306   0.811 -0.0762  0.1158 -0.7898
19549TIP3    H280063   3.539   1.250   0.924 -1.2321  0.5062  0.2954
19550TIP3   OH280064   2.272   0.703   2.029  0.2951 -0.6744  0.5714
19550TIP3    H180065   2.316   0.686   1.945 -0.6024 -0.1844 -0.0186
19550TIP3    H280066   2.222   0.783   2.013 -0.2987 -0.8664  1.4286
19551TIP3   OH280067   1.985   0.095  13.385 -0.0368  0.2795 -0.3358
19551TIP3    H180068   1.952   0.006  13.394  0.0880  0.3370  0.8550
19551TIP3    H280069   2.010   0.120  13.474  1.5812  0.8617 -0.9168
19552TIP3   OH280070   4.202   0.008   5.327  0.1965  0.5764 -0.9588
19552TIP3    H180071   4.133  -0.058   5.319  0.6396 -0.0670  0.1951
19552TIP3    H280072   4.180   0.057   5.406  2.6311 -1.7119  1.3862
19553TIP3   OH280073   1.656   6.573   3.447  0.6358  0.1636  0.0245
19553TIP3    H180074   1.736   6.621   3.466  0.5993  0.6494 -0.9609
19553TIP3    H280075   1.651   6.573   3.351  1.7373 -3.6129 -0.1785
19554TIP3   OH280076   6.623   3.137   0.094  0.5254  0.0182  0.2887
19554TIP3    H180077   6.534   3.104   0.086 -0.0545  1.5104  0.2251
19554TIP3    H280078   6.613   3.232   0.098  2.1897  0.2688 -0.7130
19555TIP3   OH280079   6.175   0.853  11.249 -0.3748 -0.3282 -0.0780
19555TIP3    H180080   6.132   0.787  11.303 -0.3443 -0.3416 -0.0698
19555TIP3    H280081   6.251   0.807  11.212  1.1608  0.4011  1.9675
19556TIP3   OH280082   4.345   5.870  11.546 -0.2238 -0.2791 -0.1675
19556TIP3    H180083   4.431   5.856  11.507  1.2336 -0.3197  2.7434
19556TIP3    H280084   4.300   5.786  11.536  1.6842 -1.6257  1.7243
19557TIP3   OH280085   2.960   5.100   3.184  0.1359  0.5592  0.1193
19557TIP3    H180086   2.905   5.074   3.258  1.3699 -1.3786  0.4319
19557TIP3    H280087   3.028   5.154   3.222  0.2613  0.3038  0.2582
19558TIP3   OH280088   3.282   4.825  15.866 -0.3141 -0.6878  0.1355
19558TIP3    H180089   3.246   4.913  15.873 -0.0825 -0.3718 -1.8931
19558TIP3    H280090   3.346   4.819  15.937 -0.7781  0.5345  0.6910
19559TIP3   OH280091   5.930   3.411   0.002  0.5173 -0.8511  0.3344
19559TIP3    H180092   5.926   3.421   0.098 -1.0241  1.1969  0.1342
19559TIP3    H280093   5.997   3.474  -0.025 -0.8825  0.4978 -0.0940
19560TIP3   OH280094   6.200   5.445   2.426  0.0427 -0.0570 -0.2060
19560TIP3    H180095   6.234   5.460   2.514  0.3582  0.2107 -0.3712
19560TIP3    H280096   6.278   5.428   2.373 -0.1547 -0.3162 -0.4125
19561TIP3   OH280097   3.950   1.065  13.346  0.4004 -0.3280  0.1339
19561TIP3    H180098   3.882   1.131  13.361  0.4076  0.0809 -1.4996
19561TIP3    H280099   4.031   1.115  13.335  1.0033 -0.8089  1.9570
19562TIP3   OH280100   4.253   4.710   2.727 -1.1009  0.0385 -0.1889
19562TIP3    H180101   4.241   4.768   2.652 -1.6550 -0.2451 -0.3301
19562TIP3    H280102   4.221   4.625   2.697  3.5768 -1.5617 -1.4667
19563TIP3   OH280103   4.496   6.502   1.518  0.5153 -0.0024  0.5605
19563TIP3    H180104   4.501   6.582   1.571 -0.8692  0.0230  0.6981
19563TIP3    H280105   4.402   6.483   1.513  0.8745 -2.4299  1.7122
19564TIP3   OH280106   4.254   2.658  12.013 -0.7730 -0.0779  0.9025
19564TIP3    H180107   4.175   2.687  12.059 -1.1911  0.2687 -0.0174
19564TIP3    H280108   4.229   2.655  11.921  0.5273  0.8862  0.4846
19565TIP3   OH280109   0.391   3.018   2.849 -0.5616 -0.4072 -0.1765
19565TIP3    H180110   0.463   3.069   2.884  0.5270 -1.1654 -1.2094
19565TIP3    H280111   0.318   3.080   2.842 -0.0759  0.3268  1.0515
19566TIP3   OH280112   2.329   5.998   1.482 -0.1783 -0.6205  0.9303
19566TIP3    H180113   2.365   5.966   1.564  0.2707 -1.3127  0.4746
19566TIP3    H280114   2.399   5.983   1.418 -1.7010 -3.2211 -0.2541
19567TIP3   OH280115   3.780   4.416   3.821  0.5459 -0.2853 -0.2181
19567TIP3    H180116   3.704   4.473   3.834 -0.1412 -1.6713  2.5372
19567TIP3    H280117   3.855   4.471   3.845  0.0481  0.0209  0.7045
19568TIP3   OH280118   2.628   6.325  16.052 -0.0215 -0.2473  0.2864
19568TIP3    H180119   2.547   6.327  16.103 -0.7717  1.4644 -0.8757
19568TIP3    H280120   2.628   6.408  16.004  1.3740 -1.1353 -1.3506
19569TIP3   OH280121   1.249   3.760  14.727  0.0555 -0.4190 -0.4693
19569TIP3    H180122   1.344   3.752  14.734  0.1864  0.7083 -0.8589
19569TIP3    H280123   1.216   3.694  14.788  1.1019  0.8004  1.5279
19570TIP3   OH280124   5.103   2.208   4.323 -0.1700 -0.8277 -0.2741
19570TIP3    H180125   5.184   2.215   4.272  0.7846 -1.0573  1.1736
19570TIP3    H280126   5.127   2.157   4.400 -1.3061  0.4073  0.9477
19571TIP3   OH280127   4.312   5.524   2.874  0.0691 -0.2106  0.4836
19571TIP3    H180128   4.253   5.481   2.936  0.1869  1.1297  1.5769
19571TIP3    H280129   4.299   5.618   2.890  1.4434  0.1312 -0.2506
19572TIP3   OH280130   0.450   0.613   5.766 -1.0069  0.0911 -0.0907
19572TIP3    H180131   0.500   0.571   5.836  0.1108 -0.2131 -1.0387
19572TIP3    H280132   0.389   0.672   5.811 -1.2951 -1.1292  1.1836
19573TIP3   OH280133   4.135   0.094   4.358 -0.2304  0.2805 -0.2134
19573TIP3    H180134   4.197   0.071   4.289  0.8760 -0.9251  1.1163
19573TIP3    H280135   4.123   0.189   4.348  1.6570  0.5291 -0.6651
19574TIP3   OH280136   5.938   5.671   1.075  0.4889 -0.4084 -0.1505
19574TIP3    H180137   6.011   5.659   1.135 -0.0832  0.3602  0.7234
19574TIP3    H280138   5.968   5.633   0.992  1.9614  0.1075  0.1289
19575TIP3   OH280139   2.172   5.093  11.819  0.2769  0.1741  0.0226
19575TIP3    H180140   2.134   5.017  11.775  0.8876 -0.7450  1.0246
19575TIP3    H280141   2.156   5.077  11.912  2.1259  0.2844  0.3992
19576TIP3   OH280142   5.500   4.037   1.954 -0.1044  0.3121 -0.2655
19576TIP3    H180143   5.431   4.101   1.937 -0.1194 -0.0518 -1.6932
19576TIP3    H280144   5.457   3.952   1.946 -0.4180  0.0346  3.0001
19577TIP3   OH280145   6.076   4.923   5.009 -0.0210  0.2036  0.5263
19577TIP3    H180146   6.168   4.896   5.004 -0.6813 -2.6163  1.5902
19577TIP3    H280147   6.062   4.945   5.102 -0.9042 -1.6469  0.8790
19578TIP3   OH280148   4.854   5.917   5.264  0.0054 -0.1845 -0.2102
19578TIP3    H180149   4.759   5.922   5.256 -0.0227  1.1190  0.6017
19578TIP3    H280150   4.869   5.849   5.330 -0.5804  2.0000  2.3645
19579TIP3   OH280151   6.299   4.746   3.978  0.2182  0.1139 -0.2959
19579TIP3    H180152   6.375   4.770   3.924  1.7701 -1.1505  1.2084
19579TIP3    H280153   6.263   4.669   3.935  1.5518 -0.9933  0.4653
19580TIP3   OH280154   3.066   1.840  11.463 -0.4195  0.2248 -0.7257
19580TIP3    H180155   3.035   1.846  11.554  0.3078 -1.1058 -0.3669
19580TIP3    H280156   2.986   1.852  11.410 -0.9306  0.5338  0.0954
19581TIP3   OH280157   6.119   5.543   5.857  0.5699 -0.5769 -0.4202
19581TIP3    H180158   6.051   5.607   5.838  0.0098 -0.6161  1.2939
19581TIP3    H280159   6.185   5.591   5.907  0.2686 -1.2276  0.6503
19582TIP3   OH280160   1.344   2.235   5.510  0.0808 -0.0035  0.2035
19582TIP3    H180161   1.354   2.141   5.520  0.0540 -0.2348 -1.5943
19582TIP3    H280162   1.286   2.261   5.582  0.6191 -1.2286  1.1112
19583TIP3   OH280163   3.845   6.547  13.911 -0.5036 -0.4983 -0.0205
19583TIP3    H180164   3.750   6.535  13.906 -0.9912  1.5786  2.3079
19583TIP3    H280165   3.859   6.640  13.897  1.2797 -0.8180 -0.7156
19584TIP3   OH280166   3.778   0.902   0.130  0.2123  0.0820  0.3586
19584TIP3    H180167   3.741   0.814   0.118  0.0845  0.2640 -0.6828
19584TIP3    H280168   3.793   0.909   0.224 -0.7145 -0.6847  0.5846
19585TIP3   OH280169   3.026   4.852   4.148 -0.1403  0.3158 -0.3830
19585TIP3    H180170   3.013   4.804   4.230 -0.7994  1.3643  0.1543
19585TIP3    H280171   3.119   4.844   4.130  0.1751  0.7435  0.9199
19586TIP3   OH280172   0.527   5.099  11.984 -0.7830  0.7039  0.9192
19586TIP3    H180173   0.621   5.095  11.967 -0.9041  2.3868 -0.4781
19586TIP3    H280174   0.508   5.193  11.989 -2.7710  0.4919 -1.3014
19587TIP3   OH280175   2.062   4.639   2.000  0.2435 -0.3084  0.5019
19587TIP3    H180176   1.967   4.638   1.992  0.1725 -0.6000  1.2792
19587TIP3    H280177   2.094   4.633   1.910 -0.4654  0.8457  0.1476
19588TIP3   OH280178   3.292   3.116  14.386 -0.0359 -0.1715 -0.8453
19588TIP3    H180179   3.250   3.159  14.313  0.5170  0.8223 -0.5892
19588TIP3    H280180   3.282   3.022  14.368 -0.8927  0.0599 -1.6052
19589TIP3   OH280181   4.352   4.385   2.666 -0.9375  0.2369  0.6931
19589TIP3    H180182   4.428   4.336   2.635 -1.8844  0.0166 -1.4644
19589TIP3    H280183   4.388   4.445   2.732  1.4481  1.3640 -1.4533
19590TIP3   OH280184   0.276   4.088   1.192  0.3384  0.2989  0.5321
19590TIP3    H180185   0.283   3.994   1.212 -0.5277  0.1162  0.0115
19590TIP3    H280186   0.251   4.091   1.100  0.1900  1.0404  0.5939
19591TIP3   OH280187   4.392   3.700  15.418  0.1169  0.0445 -0.6421
19591TIP3    H180188   4.411   3.755  15.342  0.2082  0.7410 -0.1225
19591TIP3    H280189   4.313   3.651  15.392 -3.5780  4.5004  0.8098
19592TIP3   OH280190   2.945   2.887   0.841 -0.0952 -0.2536  0.4160
19592TIP3    H180191   2.918   2.973   0.809  0.9641 -0.5048 -1.2242
19592TIP3    H280192   3.035   2.899   0.871 -0.5238 -0.4126  1.8380
19593TIP3   OH280193   0.194   4.518   4.570  0.0652 -0.0773 -0.3972
19593TIP3    H180194   0.287   4.535   4.555  0.4209 -1.5599 -0.0489
19593TIP3    H280195   0.181   4.536   4.663 -0.3369  1.4173 -0.7032
19594TIP3   OH280196   1.397   6.243   2.788 -0.2217 -0.3029  0.3463
19594TIP3    H180197   1.368   6.152   2.777  2.5343 -1.2067 -0.1848
19594TIP3    H280198   1.332   6.294   2.741 -1.7028 -2.0069  0.4142
19595TIP3   OH280199   0.599   6.769   1.518  0.0992  0.2379 -0.0731
19595TIP3    H180200   0.641   6.839   1.466  0.0901  0.9920  0.9026
19595TIP3    H280201   0.542   6.724   1.456  0.4596  0.8039 -0.8330
19596TIP3   OH280202   3.750   2.382  17.178 -0.0738  0.1385 -0.2762
19596TIP3    H180203   3.826   2.441  17.176 -1.1230  1.5232 -0.9523
19596TIP3    H280204   3.752   2.338  17.093  2.0209 -2.6536  1.0483
19597TIP3   OH280205   5.355   2.339   2.599  0.0277 -0.3891  0.5457
19597TIP3    H180206   5.355   2.250   2.564 -0.9947 -0.1042 -0.2555
19597TIP3    H280207   5.312   2.391   2.531  1.8041  0.9769  0.3888
19598TIP3   OH280208   2.766   2.815   5.080 -0.3438  0.1321 -0.2979
19598TIP3    H180209   2.731   2.891   5.127 -1.5164 -0.9912  0.7440
19598TIP3    H280210   2.722   2.816   4.995  0.1845  0.9956 -0.5739
19599TIP3   OH280211   4.533   5.667  16.455 -0.0541  0.3785  0.0647
19599TIP3    H180212   4.589   5.685  16.531 -1.0497  1.3010  0.6151
19599TIP3    H280213   4.490   5.750  16.437 -1.0362 -0.2311 -0.5084
19600TIP3   OH280214   1.328   6.614   1.747 -0.0631 -0.2846  0.2273
19600TIP3    H180215   1.371   6.698   1.731 -2.9509  1.1286 -0.7116
19600TIP3    H280216   1.343   6.564   1.667  0.7908 -0.3149  0.3873
19601TIP3   OH280217   5.097   4.226   2.880 -0.0656 -0.4005  0.5834
19601TIP3    H180218   5.134   4.226   2.968 -0.9722 -0.2756  0.9735
19601TIP3    H280219   5.173   4.223   2.822  0.5833  0.5811  1.3453
19602TIP3   OH280220   1.559   5.527  11.063  0.1867 -0.7045  0.2029
19602TIP3    H180221   1.537   5.476  11.141 -3.0156 -1.5980 -1.1592
19602TIP3    H280222   1.556   5.618  11.092 -4.6218 -0.7398  0.5822
19603TIP3   OH280223   4.730   2.210  13.499  0.4382  0.6271 -0.0927
19603TIP3    H180224   4.745   2.246  13.411 -1.2148  0.4969 -0.4691
19603TIP3    H280225   4.648   2.162  13.491  0.0521  0.9370  1.6253
19604TIP3   OH280226   3.144   2.414  14.658  0.4143 -0.1903 -0.2490
19604TIP3    H180227   3.086   2.415  14.582 -1.8790  0.2684  1.4118
19604TIP3    H280228   3.232   2.419  14.621 -0.6492  1.5915 -2.8235
19605TIP3   OH280229   5.233   2.613   0.014 -0.8078 -0.4171 -0.5376
19605TIP3    H180230   5.221   2.704   0.041 -1.2490 -0.6721  0.1621
19605TIP3    H280231   5.193   2.562   0.085 -2.0119 -1.1149 -1.6625
19606TIP3   OH280232   2.616   0.159  14.803 -0.0983  0.3639  0.1845
19606TIP3    H180233   2.573   0.075  14.789  0.7256 -0.1610  0.7196
19606TIP3    H280234   2.680   0.165  14.733  0.4620  0.1186  0.6640
19607TIP3   OH280235   0.969   5.834   2.188 -0.2533 -0.4135 -0.0032
19607TIP3    H180236   1.001   5.842   2.278  1.0823 -2.0764 -0.2794
19607TIP3    H280237   0.881   5.870   2.191 -0.0845 -0.0454  1.8801
19608TIP3   OH280238   2.641   4.362   4.624 -0.0359 -0.1623  0.0940
19608TIP3    H180239   2.685   4.421   4.685  1.1701 -2.1183  1.2366
19608TIP3    H280240   2.554   4.349   4.662  0.5104 -0.9201  1.1298
19609TIP3   OH280241   1.565   6.349   3.000 -0.3357 -0.2081  0.0308
19609TIP3    H180242   1.487   6.310   2.961 -0.2460  0.0827 -0.4551
19609TIP3    H280243   1.631   6.280   2.994 -0.4421 -0.3115  0.0534
19610TIP3   OH280244   1.851   5.899  16.429  0.2232  0.4871  0.4743
19610TIP3    H180245   1.938   5.863  16.443  0.4761  1.0075  0.2988
19610TIP3    H280246   1.840   5.965  16.498 -1.4279 -1.9266  2.6944
19611TIP3   OH280247   5.482   5.762  10.900 -0.5102 -0.0301 -0.1036
19611TIP3    H180248   5.525   5.689  10.855 -1.8618 -0.9921  0.1144
19611TIP3    H280249   5.475   5.733  10.991 -0.3019  0.7381  0.1624
19612TIP3   OH280250   4.569   3.627   5.964  0.1937 -0.7729  0.4778
19612TIP3    H180251   4.608   3.621   5.877 -0.6288  1.7734 -0.1596
19612TIP3    H280252   4.475   3.611   5.948  0.0999 -0.7001  0.9659
19613TIP3   OH280253   4.900   6.275  12.970 -0.2152 -0.5094 -0.1915
19613TIP3    H180254   4.956   6.268  13.048  0.3874  1.6780 -0.3528
19613TIP3    H280255   4.888   6.185  12.941  1.3171 -1.2197  1.1988
19614TIP3   OH280256   2.031   4.455  13.516 -0.1122 -0.1872 -0.1697
19614TIP3    H180257   2.009   4.370  13.480 -0.8423 -0.5709  1.1256
19614TIP3    H280258   2.126   4.451  13.530  0.0163 -0.4063 -1.0224
19615TIP3   OH280259   1.477   2.510   2.792 -0.2682  0.1479 -0.2099
19615TIP3    H180260   1.467   2.497   2.698  0.0330  0.2100 -0.2515
19615TIP3    H280261   1.566   2.480   2.811  0.3843  1.9180 -0.2710
19616TIP3   OH280262   4.521   4.791  11.890  0.0083 -0.1608  0.4180
19616TIP3    H180263   4.611   4.819  11.912 -0.9657  2.4176  1.5816
19616TIP3    H280264   4.501   4.723  11.955  0.7562 -0.0042  0.8352
19617TIP3   OH280265   2.546   4.496   1.323  0.2014 -0.2782 -0.0179
19617TIP3    H180266   2.630   4.516   1.364 -0.2368  0.1364  0.6970
19617TIP3    H280267   2.502   4.437   1.384 -0.1748 -0.2124 -0.2172
19618TIP3   OH280268   5.649   1.717   0.341 -0.3733 -0.2548 -1.1016
19618TIP3    H180269   5.720   1.752   0.288  2.9070 -2.1866  1.6216
19618TIP3    H280270   5.669   1.624   0.350 -1.1519 -0.2222  2.6873
19619TIP3   OH280271   0.846   6.104   0.723 -0.1195  0.2456  0.7630
19619TIP3    H180272   0.873   6.129   0.811 -0.9485 -1.8073  1.6611
19619TIP3    H280273   0.769   6.049   0.736  1.3078 -2.4254 -0.9547
19620TIP3   OH280274   1.715   4.727   2.737  0.1271 -0.1077 -0.7934
19620TIP3    H180275   1.784   4.776   2.692  0.1178 -0.0668 -0.7628
19620TIP3    H280276   1.681   4.667   2.670  0.2025 -0.1386 -0.8043
19621TIP3   OH280277   5.688   2.989  11.076  0.0868 -0.1505 -0.3764
19621TIP3    H180278   5.600   3.021  11.098  0.6168  1.4872 -0.4712
19621TIP3    H280279   5.733   3.066  11.041  1.4230 -1.0725 -0.7583
19622TIP3   OH280280   1.577   6.391   0.971 -0.5823 -0.0628 -0.2877
19622TIP3    H180281   1.519   6.317   0.987 -1.2938  1.0705  3.3615
19622TIP3    H280282   1.519   6.467   0.968  0.3846  0.6900 -0.7774
19623TIP3   OH280283   5.127   5.003   6.222 -0.5154 -1.1705  0.0264
19623TIP3    H180284   5.210   4.972   6.186 -0.0621 -0.1458  0.1512
19623TIP3    H280285   5.061   4.948   6.180  0.0661 -0.5960 -1.7229
19624TIP3   OH280286   5.573   3.646  15.026  0.3026  0.0295 -0.1405
19624TIP3    H180287   5.614   3.561  15.007 -0.3602 -0.9647  2.4991
19624TIP3    H280288   5.479   3.626  15.032  0.1987  0.7990  1.0922
19625TIP3   OH280289   2.708   2.495   1.380 -0.3360  0.0576  0.3101
19625TIP3    H180290   2.730   2.465   1.469  0.8813  1.0949  0.3775
19625TIP3    H280291   2.689   2.588   1.391  0.3144  0.3039 -0.5922
19626TIP3   OH280292   2.312   2.645  11.384 -0.7958  0.1174  0.1167
19626TIP3    H180293   2.375   2.668  11.317  0.3059 -0.4959  0.9021
19626TIP3    H280294   2.227   2.666  11.346 -0.1228  1.0277 -0.9376
19627TIP3   OH280295   0.013   3.970  13.218 -0.0541  0.3570  0.5801
19627TIP3    H180296   0.017   3.893  13.274  0.8441 -0.0730 -0.0740
19627TIP3    H280297  -0.075   3.968  13.181  0.5699 -1.4404 -0.9449
19628TIP3   OH280298   0.631   2.155  12.932  0.3491 -0.4267  0.2981
19628TIP3    H180299   0.616   2.224  12.868 -1.3818  0.3591  1.4553
19628TIP3    H280300   0.545   2.113  12.942  1.0268 -1.7725  0.7248
19629TIP3   OH280301   6.662   5.545  11.553  0.0098  0.2617  0.0507
19629TIP3    H180302   6.680   5.617  11.493  1.2547  1.0250  1.2808
19629TIP3    H280303   6.570   5.557  11.578 -0.5399 -0.1109 -1.7065
19630TIP3   OH280304   5.556   5.465  12.452  0.1195  0.1171 -0.0402
19630TIP3    H180305   5.583   5.553  12.426  1.0473 -0.3137 -0.6162
19630TIP3    H280306   5.542   5.419  12.370 -2.6372  0.3331  0.2202
19631TIP3   OH280307   4.963   2.263  11.090  0.3465  0.1638  0.3273
19631TIP3    H180308   4.913   2.344  11.100  0.7038  0.2180  1.9567
19631TIP3    H280309   4.909   2.196  11.132 -1.2744 -1.1151 -3.3100
19632TIP3   OH280310   0.648   2.687   4.214  0.1649 -0.5843  0.3579
19632TIP3    H180311   0.640   2.782   4.208 -0.6379 -0.7016 -0.8562
19632TIP3    H280312   0.701   2.672   4.293 -0.6122  0.8149  1.1854
19633TIP3   OH280313   4.985   3.751   5.759 -0.5670 -0.0657  0.3260
19633TIP3    H180314   5.037   3.675   5.785 -0.4438 -0.5490 -1.2578
19633TIP3    H280315   5.035   3.826   5.790  0.7841 -0.5410 -0.6144
19634TIP3   OH280316   2.308   6.276   1.698  0.2613  0.6987 -0.3604
19634TIP3    H180317   2.239   6.338   1.723  0.5381  0.8098  0.1438
19634TIP3    H280318   2.268   6.222   1.629 -0.8242 -0.1507  0.8715
19635TIP3   OH280319   2.281   3.807  10.530 -0.3775 -0.1130  0.5991
19635TIP3    H180320   2.346   3.737  10.522 -3.1159 -2.7680 -0.1160
19635TIP3    H280321   2.317   3.879  10.478  2.4872 -0.9744  1.2186
19636TIP3   OH280322   1.170   6.445  11.881 -0.3510 -0.2848  0.2301
19636TIP3    H180323   1.097   6.420  11.938 -1.1319 -1.7043 -1.3213
19636TIP3    H280324   1.151   6.403  11.797  0.8204  1.6331 -1.0772
19637TIP3   OH280325   1.506   2.471  17.178 -0.6297  0.1009  0.2725
19637TIP3    H180326   1.546   2.540  17.125 -1.6106 -0.1139 -0.7939
19637TIP3    H280327   1.415   2.466  17.146 -0.7544 -1.2340  0.7730
19638TIP3   OH280328   4.183   6.005   3.046 -0.0534  0.2337 -0.0318
19638TIP3    H180329   4.210   6.031   3.134 -0.5372 -0.6561  0.3868
19638TIP3    H280330   4.089   5.991   3.052 -0.0665  0.0030 -0.6539
19639TIP3   OH280331   3.301   3.685   0.087  0.2216  0.1523 -0.0898
19639TIP3    H180332   3.223   3.722   0.044  0.0115  0.4598  0.5300
19639TIP3    H280333   3.343   3.761   0.128  0.9664  0.0191 -0.5824
19640TIP3   OH280334   3.289   1.881   2.262  0.0253  0.2767 -0.6299
19640TIP3    H180335   3.240   1.947   2.312  1.0509  2.0070 -1.8087
19640TIP3    H280336   3.224   1.840   2.206 -0.6664  0.1748  0.2349
19641TIP3   OH280337   5.827   2.074  16.958  0.2378 -0.2658 -0.0140
19641TIP3    H180338   5.746   2.044  16.917 -0.9698  2.6099 -0.0041
19641TIP3    H280339   5.804   2.084  17.051  0.8660 -0.2662  0.1435
19642TIP3   OH280340   2.691   2.810   3.344 -0.0486  0.2338 -0.2453
19642TIP3    H180341   2.724   2.723   3.368 -1.0419 -0.0175  0.3026
19642TIP3    H280342   2.764   2.869   3.361  0.4096 -0.4070  0.0608
19643TIP3   OH280343   2.606   1.391  14.178 -0.1294  0.1438  0.6080
19643TIP3    H180344   2.569   1.468  14.135  0.9472 -0.2409 -1.0854
19643TIP3    H280345   2.698   1.413  14.190  0.0650 -0.6697  0.6215
19644TIP3   OH280346   0.506   4.744  16.693 -0.6412  0.7659  0.4006
19644TIP3    H180347   0.498   4.763  16.786 -2.0400  1.5569  0.1553
19644TIP3    H280348   0.523   4.650  16.688 -0.8011  0.6764  1.4340
19645TIP3   OH280349   6.070   0.668   0.076 -0.5138 -0.3046  0.3756
19645TIP3    H180350   6.099   0.638   0.161  1.2182  0.1941 -0.0061
19645TIP3    H280351   6.143   0.718   0.041 -0.6187 -1.6357 -1.9899
19646TIP3   OH280352   0.754   4.835   1.667  0.5173 -0.0153 -0.5566
19646TIP3    H180353   0.679   4.895   1.669 -1.0886 -1.9311 -0.4961
19646TIP3    H280354   0.824   4.883   1.712 -0.2568  2.2962 -1.6085
19647TIP3   OH280355   2.572   4.503   0.502  0.0264 -0.5120 -0.2679
19647TIP3    H180356   2.596   4.443   0.432 -1.0841  1.3567 -2.3991
19647TIP3    H280357   2.615   4.585   0.478  0.8403 -0.1758  2.0983
19648TIP3   OH280358   5.161   2.533  12.748 -0.2316 -0.0597 -0.1200
19648TIP3    H180359   5.104   2.494  12.681  0.6172 -1.0160 -0.3150
19648TIP3    H280360   5.222   2.463  12.771 -0.5945  0.1926  1.7756
19649TIP3   OH280361   3.059   6.113  11.498  0.2059  0.2832  0.0441
19649TIP3    H180362   3.023   6.122  11.410  1.9852 -0.8510 -0.8682
19649TIP3    H280363   3.151   6.090  11.484  0.5424  0.0896  2.2094
19650TIP3   OH280364   1.868   1.382   2.314  0.1871  0.1347  0.2568
19650TIP3    H180365   1.954   1.422   2.318 -0.3062  1.1611  1.0581
19650TIP3    H280366   1.886   1.288   2.309  1.3438  0.3294  0.4678
19651TIP3   OH280367   2.814   3.386   4.506  0.3769  0.1038  0.0367
19651TIP3    H180368   2.751   3.361   4.574  0.5962  0.7447  0.4894
19651TIP3    H280369   2.891   3.415   4.554  0.1551  1.5753 -0.4371
19652TIP3   OH280370   1.435   6.310   1.411 -0.2596 -0.4294  0.2975
19652TIP3    H180371   1.385   6.235   1.379  1.2258 -2.5059  2.5499
19652TIP3    H280372   1.387   6.341   1.488 -0.8501  0.9921 -0.5967
19653TIP3   OH280373   6.627   6.061   4.922 -0.3887 -0.7374 -0.7109
19653TIP3    H180374   6.683   6.079   4.998  0.3999  2.8863 -1.9596
19653TIP3    H280375   6.671   5.988   4.877  2.6516  0.9927 -0.8467
19654TIP3   OH280376   2.484   2.375   5.012  0.1295 -0.2345  0.1478
19654TIP3    H180377   2.391   2.383   4.991  0.1538  1.0530  0.4522
19654TIP3    H280378   2.496   2.429   5.090  1.4248  0.9444 -0.8220
19655TIP3   OH280379   6.584   5.672   2.426 -0.4480 -0.1724  0.1603
19655TIP3    H180380   6.597   5.674   2.521  0.2025  0.4791  0.0690
19655TIP3    H280381   6.559   5.761   2.403 -1.7458 -0.5970 -0.1439
19656TIP3   OH280382   4.730   0.416   1.017  0.6008 -0.0620  0.5103
19656TIP3    H180383   4.701   0.374   1.099 -1.2884 -0.5683 -0.3621
19656TIP3    H280384   4.742   0.344   0.956  1.9105  0.3252  0.2711
19657TIP3   OH280385   1.062   4.739   1.537  0.2266 -0.3184 -0.5260
19657TIP3    H180386   1.152   4.726   1.510  0.2178 -1.5789 -0.0230
19657TIP3    H280387   1.065   4.815   1.597  0.5236  1.2416 -2.4255
19658TIP3   OH280388   3.273   2.782  11.808  0.5528  0.6733 -0.0077
19658TIP3    H180389   3.190   2.831  11.801  0.2952  0.2173 -0.1749
19658TIP3    H280390   3.295   2.787  11.901 -1.6599 -2.4089  0.8465
19659TIP3   OH280391   3.596   1.855   2.796  0.9927  0.0416  0.7150
19659TIP3    H180392   3.525   1.875   2.857 -0.0353 -0.0847 -0.4080
19659TIP3    H280393   3.647   1.787   2.841 -0.7313 -1.2960  0.7636
19660TIP3   OH280394   5.608   2.327   3.751 -0.4703 -0.3270  0.1384
19660TIP3    H180395   5.614   2.409   3.702  3.1362  0.8723  2.2009
19660TIP3    H280396   5.654   2.264   3.696  1.7597  0.5276  0.8895
19661TIP3   OH280397   4.502   2.767   5.135 -0.2067  0.7610  0.1903
19661TIP3    H180398   4.573   2.764   5.199 -0.4007  0.2671  0.3845
19661TIP3    H280399   4.434   2.819   5.177  0.4921  2.2783 -0.4707
19662TIP3   OH280400   5.413   2.407  12.796  0.6085 -0.5533 -0.3956
19662TIP3    H180401   5.437   2.403  12.703 -1.1463 -0.0370 -0.8989
19662TIP3    H280402   5.445   2.324  12.832  0.4326 -1.2166 -1.6878
19663TIP3   OH280403   5.689   0.485   3.663 -0.1382 -0.0410 -0.2033
19663TIP3    H180404   5.603   0.488   3.622  1.1836  0.3797 -3.2080
19663TIP3    H280405   5.735   0.414   3.618  2.1996  1.9880 -1.2291
19664TIP3   OH280406   5.265   4.626  11.370 -0.4606  0.0693 -0.4336
19664TIP3    H180407   5.258   4.629  11.465 -1.3561 -1.5028 -0.4069
19664TIP3    H280408   5.260   4.533  11.349  0.0465  0.3649 -2.0072
19665TIP3   OH280409   6.245   6.707  15.829 -0.0544 -0.4065 -0.1513
19665TIP3    H180410   6.327   6.669  15.859  0.1102  0.2153  0.2158
19665TIP3    H280411   6.254   6.801  15.847 -1.1251 -0.4180  0.6058
19666TIP3   OH280412   1.430   4.719   2.382 -0.9648 -0.1338 -0.4843
19666TIP3    H180413   1.340   4.744   2.363 -1.4846  0.9063  2.7448
19666TIP3    H280414   1.481   4.799   2.365 -1.1290  0.1927  0.5211
19667TIP3   OH280415   1.688   3.798   3.359  0.0569  0.2393 -0.1803
19667TIP3    H180416   1.640   3.765   3.435 -0.2323  0.2982 -0.3373
19667TIP3    H280417   1.640   3.876   3.333 -1.0523 -0.8870 -1.6731
19668TIP3   OH280418   6.233   4.172  11.761  0.5043 -0.0209 -0.4444
19668TIP3    H180419   6.186   4.128  11.691  0.6381  0.7768 -1.0559
19668TIP3    H280420   6.187   4.146  11.841 -0.8691  0.5902 -1.0024
19669TIP3   OH280421   4.578   6.585  14.818  0.1342  0.1091  0.5131
19669TIP3    H180422   4.531   6.514  14.774 -0.8543  0.7651  0.4801
19669TIP3    H280423   4.574   6.658  14.755  0.2280  0.5091  0.9718
19670TIP3   OH280424   0.583   2.816  16.487  0.4161  0.7888  0.1417
19670TIP3    H180425   0.505   2.851  16.529  0.7539  3.6269 -1.3814
19670TIP3    H280426   0.550   2.761  16.416 -0.1171 -0.4466  1.2848
19671TIP3   OH280427   4.291   5.085  13.744  0.1957  0.8593  0.3686
19671TIP3    H180428   4.222   5.029  13.778 -0.3358  1.2331 -0.0771
19671TIP3    H280429   4.306   5.053  13.655 -0.3746  1.6516 -0.0246
19672TIP3   OH280430   4.275   5.037   3.017 -0.2807 -0.2109  0.1509
19672TIP3    H180431   4.348   5.083   3.059 -0.5484  2.2303 -1.8225
19672TIP3    H280432   4.315   4.989   2.944 -0.2899 -1.4979  0.9567
19673TIP3   OH280433   6.175   4.717   0.954 -0.0931 -0.2708 -0.0109
19673TIP3    H180434   6.100   4.758   0.910  1.4784  0.8787 -1.8095
19673TIP3    H280435   6.208   4.654   0.890  1.4544  0.4616  0.0318
19674TIP3   OH280436   1.935   4.563  16.078  0.7586  0.9364  0.2514
19674TIP3    H180437   1.851   4.567  16.033  0.9251 -0.8851 -0.2807
19674TIP3    H280438   1.953   4.470  16.089  1.3024  1.2700  3.0573
19675TIP3   OH280439   4.917   0.018   4.243  0.5754 -0.1241  0.1076
19675TIP3    H180440   4.922  -0.017   4.332 -0.5500  1.1644  0.7198
19675TIP3    H280441   4.999   0.065   4.230  1.0960 -1.0083  0.1411
19676TIP3   OH280442   2.242   2.460  16.684 -0.1745  0.1743 -0.2795
19676TIP3    H180443   2.222   2.550  16.662 -0.2769  0.1698 -0.2028
19676TIP3    H280444   2.219   2.410  16.606  0.6370  0.3117 -0.6146
19677TIP3   OH280445   3.524   0.183   0.081 -0.4006  0.3013 -0.3423
19677TIP3    H180446   3.593   0.175   0.147 -0.1633 -0.0594 -0.6268
19677TIP3    H280447   3.479   0.264   0.103 -0.0660  0.3925  0.0223
19678TIP3   OH280448   1.834   4.877   0.569 -0.4529 -0.6107  0.1782
19678TIP3    H180449   1.926   4.865   0.593  0.5711  0.7567 -2.6573
19678TIP3    H280450   1.831   4.963   0.528 -3.2993 -0.0915  1.2528
19679TIP3   OH280451   0.282   4.393  15.277  0.4947 -0.7425  0.4301
19679TIP3    H180452   0.190   4.372  15.259 -0.0573  0.0971  2.1122
19679TIP3    H280453   0.298   4.473  15.227  0.9844 -2.0104 -1.5631
19680TIP3   OH280454   6.792   6.507   1.551  0.2758 -0.0433 -0.0579
19680TIP3    H180455   6.753   6.421   1.564  0.6721  0.0663  2.3115
19680TIP3    H280456   6.885   6.495   1.570  0.3884  0.8360  0.0027
19681TIP3   OH280457   3.312   0.666  14.252 -0.0040 -0.2226 -0.0845
19681TIP3    H180458   3.368   0.727  14.203 -0.3400 -0.4824 -0.8110
19681TIP3    H280459   3.370   0.630  14.319  0.2202  0.8354  0.3157
19682TIP3   OH280460   6.075   4.684   2.908  0.0457 -0.4467  0.3693
19682TIP3    H180461   6.068   4.719   2.997  0.4695 -0.3856  0.3814
19682TIP3    H280462   6.169   4.669   2.896 -0.0113 -0.4489 -0.0702
19683TIP3   OH280463   3.688   0.099   5.654  0.8246 -0.3552 -0.3816
19683TIP3    H180464   3.680   0.076   5.561 -0.0333  0.0439 -0.4204
19683TIP3    H280465   3.668   0.193   5.657  1.3763 -0.2485  0.1418
19684TIP3   OH280466   3.245   0.164  15.112  0.1166  0.1273 -0.9848
19684TIP3    H180467   3.271   0.251  15.140 -0.6894  0.3252 -0.8166
19684TIP3    H280468   3.306   0.105  15.155 -1.1099  0.4123  1.2957
19685TIP3   OH280469   6.294   2.135   4.376  0.2660  0.2277  0.2569
19685TIP3    H180470   6.306   2.191   4.299  1.4768  0.6257  0.7209
19685TIP3    H280471   6.380   2.131   4.417 -0.3886  0.1534  1.6846
19686TIP3   OH280472   3.432   4.848   0.192 -0.1992 -0.7861  0.7004
19686TIP3    H180473   3.499   4.909   0.162 -0.0601 -1.1197  0.3298
19686TIP3    H280474   3.406   4.800   0.113  1.1002 -2.6023  1.3045
19687TIP3   OH280475   0.094   5.200   3.916  0.4880  0.1963  0.2133
19687TIP3    H180476   0.038   5.269   3.950 -1.3894 -1.1760  0.0396
19687TIP3    H280477   0.109   5.142   3.991  4.4953  2.1447  1.1940
19688TIP3   OH280478   0.845   3.506  15.486 -0.1896  0.1629 -0.0603
19688TIP3    H180479   0.885   3.473  15.406  1.5553  1.1202  0.3705
19688TIP3    H280480   0.796   3.583  15.459 -0.5710 -0.1810 -0.3668
19689TIP3   OH280481   1.470   1.292  10.974 -0.1772  0.0868  0.1755
19689TIP3    H180482   1.407   1.361  10.951  0.5665  0.3235 -1.2689
19689TIP3    H280483   1.476   1.238  10.896 -0.6863 -1.6107  1.2733
19690TIP3   OH280484   1.122   0.246   1.011 -0.0144  0.1163  0.4729
19690TIP3    H180485   1.057   0.299   0.964  0.4583 -0.6881 -1.1279
19690TIP3    H280486   1.125   0.286   1.098 -1.4012  1.2354  0.0598
19691TIP3   OH280487   3.595   5.047  15.410  0.3025 -0.1407  0.2643
19691TIP3    H180488   3.675   5.099  15.401  0.3860 -0.4128 -0.7438
19691TIP3    H280489   3.551   5.084  15.487  1.6977 -0.4076  1.2332
19692TIP3   OH280490   3.345   3.782   4.362  0.3651  0.6075  0.3240
19692TIP3    H180491   3.332   3.854   4.300 -0.2261  2.7610  2.7473
19692TIP3    H280492   3.279   3.717   4.337  0.7182  0.9747 -1.7785
19693TIP3   OH280493   2.964   6.693   4.613 -0.0998 -0.3627 -0.2159
19693TIP3    H180494   2.875   6.727   4.602 -0.0875  0.3954  1.6846
19693TIP3    H280495   3.020   6.770   4.608  0.2673 -0.5753  0.5370
19694TIP3   OH280496   3.338   1.455  13.198 -0.4173  0.0765  0.4544
19694TIP3    H180497   3.405   1.490  13.138 -1.0267 -0.5616 -0.6277
19694TIP3    H280498   3.386   1.438  13.279  0.4145  1.0542  0.2040
19695TIP3   OH280499   6.362   4.115  15.949 -0.4662 -0.3953  0.0755
19695TIP3    H180500   6.267   4.116  15.959 -0.7435  0.2498 -2.1183
19695TIP3    H280501   6.385   4.023  15.937 -0.8366 -0.5305  0.4123
19696TIP3   OH280502   6.307   0.763   2.811  0.4458 -0.8270 -0.1137
19696TIP3    H180503   6.377   0.774   2.875  0.8749 -2.0422 -0.3547
19696TIP3    H280504   6.293   0.669   2.807 -0.7011 -0.6530 -0.6174
19697TIP3   OH280505   4.548   0.948   4.038  0.0395  0.5399  0.8735
19697TIP3    H180506   4.618   0.892   4.005 -0.0362  0.8205  0.2364
19697TIP3    H280507   4.467   0.899   4.021  0.0279  0.5297  0.9587
19698TIP3   OH280508   6.533   5.838  11.172 -0.0463  0.0138  0.1752
19698TIP3    H180509   6.441   5.820  11.153  0.6527 -3.7463 -0.4425
19698TIP3    H280510   6.574   5.853  11.087  0.1706  0.0738  0.2881
19699TIP3   OH280511   0.499   2.512   3.333  0.1615 -0.1248  0.0473
19699TIP3    H180512   0.461   2.441   3.385 -0.4172 -0.0273 -0.2338
19699TIP3    H280513   0.438   2.585   3.343 -0.7032 -0.5343 -1.8701
19700TIP3   OH280514   6.737   0.459   5.601 -0.4303 -0.2615 -0.1108
19700TIP3    H180515   6.725   0.500   5.515  3.2548  0.2710 -0.5422
19700TIP3    H280516   6.774   0.529   5.655 -2.5800 -0.6134  2.0061
19701TIP3   OH280517   5.934   0.657   6.170  0.4037 -0.0634  0.2389
19701TIP3    H180518   5.886   0.675   6.252 -0.1800 -0.3214 -0.0435
19701TIP3    H280519   6.000   0.593   6.195 -0.7222 -1.2723  0.2199
19702TIP3   OH280520   3.459   5.372   0.515 -0.7422 -0.3310 -0.9157
19702TIP3    H180521   3.466   5.467   0.512  0.7340 -0.4173 -1.2345
19702TIP3    H280522   3.365   5.354   0.510 -1.1323  1.1358  0.3755
19703TIP3   OH280523   3.744   3.648   3.949  0.2989  0.1935  0.2452
19703TIP3    H180524   3.655   3.670   3.919  1.2106  2.5638 -1.0073
19703TIP3    H280525   3.752   3.694   4.033  0.9190  1.5182 -0.5189
19704TIP3   OH280526   2.803   0.863   3.586  0.4159 -0.4296  0.3751
19704TIP3    H180527   2.877   0.866   3.525 -1.0804  0.3254 -1.5143
19704TIP3    H280528   2.823   0.930   3.651 -0.6521  3.3076 -2.7730
19705TIP3   OH280529   5.440   6.275  12.432 -0.3710  0.2740  0.5148
19705TIP3    H180530   5.374   6.229  12.380  1.5772 -0.3708 -1.5370
19705TIP3    H280531   5.394   6.300  12.512 -4.2086  3.0993 -2.1704
19706TIP3   OH280532   5.187   5.434  15.112  0.4625  0.3241 -0.1207
19706TIP3    H180533   5.093   5.426  15.129  0.5651  0.3809  0.5047
19706TIP3    H280534   5.205   5.527  15.125  0.2603  0.6837 -2.1134
19707TIP3   OH280535   5.797   4.053  12.538  0.3956 -0.0441  0.1236
19707TIP3    H180536   5.739   3.989  12.579  0.3866 -0.8067 -1.0323
19707TIP3    H280537   5.743   4.097  12.472  0.0826  1.9852  1.6106
19708TIP3   OH280538   6.036   0.861  16.926  0.1173 -0.3109  0.0314
19708TIP3    H180539   6.069   0.796  16.863  0.9058 -0.6535  0.7877
19708TIP3    H280540   5.968   0.908  16.877  1.8743  0.5891 -1.6582
19709TIP3   OH280541   3.683   0.136   0.314 -0.2233  0.2177  0.6409
19709TIP3    H180542   3.612   0.193   0.343 -0.7417 -0.0211 -0.1190
19709TIP3    H280543   3.700   0.078   0.388  0.0542  1.1067  1.2876
19710TIP3   OH280544   6.101   3.933  11.035 -0.2974  0.3543 -0.3237
19710TIP3    H180545   6.186   3.909  11.071 -0.3423  0.7063  0.0256
19710TIP3    H280546   6.083   3.866  10.969  0.9666  1.1242 -1.5018
19711TIP3   OH280547   3.545   3.527   0.813  0.5594 -0.5336 -0.1664
19711TIP3    H180548   3.518   3.564   0.897 -0.8239 -0.1595 -0.7514
19711TIP3    H280549   3.638   3.506   0.825 -0.2650 -3.5023  2.5421
19712TIP3   OH280550   3.600   1.280  14.554 -0.0731 -0.2178  0.2067
19712TIP3    H180551   3.543   1.353  14.575  0.3412  0.3326 -0.5161
19712TIP3    H280552   3.688   1.311  14.576  0.3280  0.2179 -1.7686
19713TIP3   OH280553   2.345   2.023   4.679 -0.1329 -0.6653 -0.3394
19713TIP3    H180554   2.307   1.937   4.698 -0.6165 -0.2690  0.5001
19713TIP3    H280555   2.272   2.075   4.646 -0.4261  0.1715  1.5064
19714TIP3   OH280556   3.883   6.458   2.978 -0.1756  0.0842  0.4591
19714TIP3    H180557   3.843   6.462   2.891  0.2678  3.4793  0.2887
19714TIP3    H280558   3.977   6.456   2.961 -0.0994 -1.4111  0.9040
19715TIP3   OH280559   5.920   6.550  13.287  0.1209  0.5958  0.2869
19715TIP3    H180560   5.957   6.627  13.331  2.5266 -0.0147 -0.5054
19715TIP3    H280561   5.859   6.586  13.223 -0.8307  1.6713  1.7456
19716TIP3   OH280562   5.125   0.023   5.988 -0.5743 -0.2230  0.0941
19716TIP3    H180563   5.146   0.043   5.897 -0.4047  1.0269  0.3811
19716TIP3    H280564   5.073   0.098   6.017  0.2780 -0.0826  1.3303
19717TIP3   OH280565   0.542   0.549  15.740  0.4181 -0.5617  0.1546
19717TIP3    H180566   0.509   0.550  15.650  0.3903 -0.4827  0.1652
19717TIP3    H280567   0.562   0.457  15.757 -0.5602 -0.7390  0.4261
19718TIP3   OH280568   2.894   0.552   4.841 -0.1722 -0.3853  0.3100
19718TIP3    H180569   2.927   0.607   4.770 -0.8193 -0.2369  0.1188
19718TIP3    H280570   2.812   0.516   4.808 -0.6980  0.0169  1.1335
19719TIP3   OH280571   0.768   0.680   4.583  0.3907  0.1475  0.3871
19719TIP3    H180572   0.804   0.594   4.562  0.4539 -0.3543  2.3501
19719TIP3    H280573   0.780   0.688   4.678  0.7798  2.5140  0.1799
19720TIP3   OH280574   3.958   3.142   3.952  0.0533  0.2711 -0.6200
19720TIP3    H180575   3.893   3.072   3.961  0.7002 -0.1656  0.9921
19720TIP3    H280576   3.905   3.221   3.942 -0.7563 -0.0715  0.6615
19721TIP3   OH280577   0.708   0.627  17.154  0.2441  0.4998 -0.1534
19721TIP3    H180578   0.621   0.635  17.192  0.2886  0.8886 -0.1301
19721TIP3    H280579   0.727   0.714  17.119  0.5311  0.3578 -0.3552
19722TIP3   OH280580   1.030   6.438  13.808 -0.4059  0.0761  0.5006
19722TIP3    H180581   1.053   6.353  13.770  0.7705  0.1238  1.0756
19722TIP3    H280582   1.092   6.499  13.770  0.2159  0.2752  1.7991
19723TIP3   OH280583   5.211   5.895   0.892  0.0713 -0.6043 -0.0559
19723TIP3    H180584   5.177   5.806   0.885  1.2543 -1.1134  0.5005
19723TIP3    H280585   5.275   5.891   0.963  3.2541 -0.3354 -2.6574
19724TIP3   OH280586   1.020   1.103   2.291 -0.7490  0.1519  0.3549
19724TIP3    H180587   0.926   1.098   2.275 -0.9011 -0.2339  1.2970
19724TIP3    H280588   1.037   1.197   2.302 -1.3909  0.0933  2.1361
19725TIP3   OH280589   5.759   5.275  15.315 -0.2924  0.5717 -0.0722
19725TIP3    H180590   5.823   5.208  15.340  0.7178  2.3871  2.7081
19725TIP3    H280591   5.800   5.320  15.241  0.4725  0.0836  0.0391
19726TIP3   OH280592   0.098   1.823   2.846 -0.1257 -0.1465 -0.2719
19726TIP3    H180593   0.177   1.794   2.891  0.4412 -0.5164 -1.4534
19726TIP3    H280594   0.111   1.795   2.755 -1.6398 -0.2562 -0.4759
19727TIP3   OH280595   5.479   4.262   2.978 -0.0040 -0.3152 -0.1710
19727TIP3    H180596   5.427   4.253   3.058  0.8511  2.1156  0.7585
19727TIP3    H280597   5.542   4.191   2.982 -0.6715 -0.8734  0.7525
19728TIP3   OH280598   4.659   2.877  15.110  0.3429 -0.3543 -0.0510
19728TIP3    H180599   4.580   2.851  15.062  0.9689 -1.3785 -0.5619
19728TIP3    H280600   4.691   2.954  15.064 -1.0020  0.8280  0.8895
19729TIP3   OH280601   0.100   6.134  16.898  0.2804  0.4013  0.3740
19729TIP3    H180602   0.158   6.192  16.946 -1.1660  2.6658 -0.4253
19729TIP3    H280603   0.042   6.097  16.965 -1.6244  3.4061  0.5656
19730TIP3   OH280604   4.001   5.882   5.105 -0.6332  0.3535  0.6769
19730TIP3    H180605   4.047   5.843   5.031 -0.0122  0.3723  1.0475
19730TIP3    H280606   3.966   5.964   5.071  1.4967  1.4425  0.9423
19731TIP3   OH280607   2.011   5.033  10.709  0.4252 -0.2655  0.3583
19731TIP3    H180608   1.947   5.104  10.705  0.3896 -0.3095 -3.1694
19731TIP3    H280609   2.017   5.011  10.802 -3.3161  0.9426  1.0531
19732TIP3   OH280610   1.414   5.936  14.653 -0.2543 -0.4105 -0.6546
19732TIP3    H180611   1.412   5.999  14.581  1.1335  0.4619  0.0415
19732TIP3    H280612   1.364   5.861  14.620 -0.0425  0.1541 -2.3491
19733TIP3   OH280613   3.000   3.382  15.820  0.2982 -0.1853  0.0022
19733TIP3    H180614   3.043   3.297  15.820  1.6693  0.4643  1.5748
19733TIP3    H280615   2.924   3.370  15.877 -0.9273 -0.9660 -1.7109
19734TIP3   OH280616   1.314   2.829   4.068  0.5229  0.0099 -0.0918
19734TIP3    H180617   1.302   2.773   3.992 -0.3578  0.7986 -0.5518
19734TIP3    H280618   1.377   2.895   4.040 -0.3762  0.7562 -0.4159
19735TIP3   OH280619   4.105   4.557  16.657  0.0652 -0.5219 -0.8553
19735TIP3    H180620   4.196   4.542  16.683  0.6834  0.3004 -2.4404
19735TIP3    H280621   4.085   4.644  16.692 -0.1810 -0.7603 -0.3843
19736TIP3   OH280622   1.354   0.574   2.766 -0.4921  0.2099  0.1462
19736TIP3    H180623   1.372   0.564   2.859 -3.0862  0.3895  0.7274
19736TIP3    H280624   1.280   0.634   2.761 -0.7504 -0.1825 -2.0092
19737TIP3   OH280625   3.606   5.925  13.930  0.6561  0.2910 -0.1639
19737TIP3    H180626   3.595   6.019  13.925 -0.4981  0.4625  3.0240
19737TIP3    H280627   3.520   5.889  13.909  0.3439  0.1604  1.2395
19738TIP3   OH280628   5.939   3.084  13.231  0.0470  0.1158  0.1421
19738TIP3    H180629   6.015   3.032  13.204 -0.5974 -1.0301  0.4822
19738TIP3    H280630   5.886   3.024  13.284 -1.7015  0.4921 -1.0803
19739TIP3   OH280631   4.522   2.623  16.590  0.5394  0.0571  0.2731
19739TIP3    H180632   4.594   2.609  16.651  0.2770 -0.8106  0.4007
19739TIP3    H280633   4.444   2.597  16.639 -0.2331  3.4086  1.0608
19740TIP3   OH280634   3.251   0.375  14.183  0.2313 -0.5719 -0.1712
19740TIP3    H180635   3.341   0.358  14.212  0.5731  0.5663 -0.4905
19740TIP3    H280636   3.261   0.438  14.111 -0.8926  0.8647  0.8665
19741TIP3   OH280637   2.185   0.820  12.640 -0.0476 -0.1198  0.1888
19741TIP3    H180638   2.106   0.796  12.689 -0.3376 -1.9278 -1.0796
19741TIP3    H280639   2.256   0.772  12.684  0.0100 -0.1840  0.0242
19742TIP3   OH280640   4.766   1.492  15.874 -0.6229 -0.4464  0.1487
19742TIP3    H180641   4.764   1.404  15.912 -1.5916 -0.4052  0.2361
19742TIP3    H280642   4.853   1.526  15.894 -0.9427 -0.6050  1.9576
19743TIP3   OH280643   0.496   5.634  12.730 -0.0585  0.1320 -0.6157
19743TIP3    H180644   0.458   5.553  12.694 -0.4009 -0.4379  0.9213
19743TIP3    H280645   0.471   5.632  12.823 -0.0153  1.9885 -0.5436
19744TIP3   OH280646   2.088   2.944  13.474 -0.2368 -0.1007  0.1430
19744TIP3    H180647   2.022   2.890  13.431 -0.6780 -0.2227  0.9423
19744TIP3    H280648   2.167   2.889  13.476 -1.1349 -1.4914  2.4922
19745TIP3   OH280649   0.247   2.731  14.561 -1.4047  0.0557 -0.0501
19745TIP3    H180650   0.326   2.695  14.520 -1.8141 -0.2205 -0.5969
19745TIP3    H280651   0.241   2.820  14.527 -3.5964 -1.1757 -3.3503
19746TIP3   OH280652   2.969   2.482  14.381 -0.3726 -0.2123 -0.0015
19746TIP3    H180653   3.024   2.553  14.413  1.0179 -0.5570 -1.4757
19746TIP3    H280654   2.959   2.500  14.287 -0.0321 -1.9128 -0.3982
19747TIP3   OH280655   0.508   0.003  11.133 -0.1897 -0.4600  0.1063
19747TIP3    H180656   0.565  -0.003  11.056 -1.2761 -1.5420 -0.6550
19747TIP3    H280657   0.445   0.071  11.110  0.2363  0.1038  0.5780
19748TIP3   OH280658   3.020   2.929  13.804 -0.0185 -0.7967 -0.0215
19748TIP3    H180659   3.109   2.893  13.803 -0.0830 -0.9660 -1.4232
19748TIP3    H280660   2.968   2.866  13.755 -0.4775  0.3158 -1.0393
19749TIP3   OH280661   0.029   2.778   1.127 -0.1452  0.2092  0.2865
19749TIP3    H180662   0.071   2.861   1.106 -0.5025  0.3046 -0.0649
19749TIP3    H280663   0.058   2.758   1.216  1.8412 -0.4833 -0.4688
19750TIP3   OH280664   2.251   0.962   0.597 -0.6949  0.1482  0.0320
19750TIP3    H180665   2.299   0.915   0.665  0.6134  0.2960 -0.7536
19750TIP3    H280666   2.230   1.046   0.637 -0.0309  0.1933  0.3047
19751TIP3   OH280667   5.543   5.051  14.624 -0.0208  0.0188  0.1469
19751TIP3    H180668   5.635   5.076  14.625 -0.5928  2.4675  0.8098
19751TIP3    H280669   5.513   5.070  14.713 -1.4476  0.6471 -0.4352
19752TIP3   OH280670   4.707   5.383  17.198  0.0697  0.3266  0.2328
19752TIP3    H180671   4.683   5.348  17.284 -0.3290 -1.0454 -0.4056
19752TIP3    H280672   4.642   5.347  17.138  0.4782  1.0773 -0.6885
19753TIP3   OH280673   0.399   5.947   5.826  0.0483 -0.1874  0.2072
19753TIP3    H180674   0.483   5.972   5.866 -0.2825 -3.0627  3.1224
19753TIP3    H280675   0.410   5.855   5.804 -1.4923  0.1004 -2.0425
19754TIP3   OH280676   4.211   1.860   3.949 -0.0292  0.5772  0.0684
19754TIP3    H180677   4.291   1.813   3.924 -0.0152 -0.0815  1.2935
19754TIP3    H280678   4.140   1.799   3.930  0.0244 -0.2226  2.1644
19755TIP3   OH280679   0.152   0.314   1.778  0.6792 -0.2024 -0.1217
19755TIP3    H180680   0.214   0.241   1.776 -0.1375 -0.8982 -1.1790
19755TIP3    H280681   0.207   0.392   1.783  1.6998 -0.7688 -1.7586
19756TIP3   OH280682   0.995   6.368   0.964 -0.4281  0.3654  0.3167
19756TIP3    H180683   0.990   6.461   0.986  0.1990  1.1855 -2.6023
19756TIP3    H280684   0.942   6.325   1.032 -2.3124  3.0172  0.7121
19757TIP3   OH280685   0.834   2.827   2.803 -0.0542  0.0107 -0.4180
19757TIP3    H180686   0.758   2.816   2.747 -1.6248 -1.3780  1.8468
19757TIP3    H280687   0.832   2.752   2.862  1.0698  1.7354  1.9648
19758TIP3   OH280688   0.753   3.077  16.017  0.1864  0.2706 -0.2966
19758TIP3    H180689   0.697   3.026  16.076  1.0744 -0.1503  0.2077
19758TIP3    H280690   0.797   3.011  15.964  0.2982  0.5963 -0.6125
19759TIP3   OH280691   4.685   4.914  13.095  0.2615 -0.3006 -0.1281
19759TIP3    H180692   4.690   4.822  13.122  0.5495  0.1265  1.3840
19759TIP3    H280693   4.680   4.962  13.177 -2.7698  0.9221 -0.9014
19760TIP3   OH280694   4.653   2.207  16.032  0.3609  0.2120  0.2039
19760TIP3    H180695   4.660   2.114  16.010 -0.6279 -0.1813  1.4126
19760TIP3    H280696   4.576   2.237  15.983  1.5410  0.8040 -1.3712
19761TIP3   OH280697   2.092   6.440   0.170 -0.1682  0.1282  0.1972
19761TIP3    H180698   2.108   6.357   0.125  0.0809  0.6237 -0.6390
19761TIP3    H280699   2.176   6.486   0.167 -0.9506  1.5619 -1.7838
19762TIP3   OH280700   1.513   0.977   5.251 -0.3479 -0.2801 -0.8927
19762TIP3    H180701   1.425   0.951   5.279  0.1736 -2.0505 -0.7373
19762TIP3    H280702   1.499   1.035   5.176 -1.6578  0.6323  0.0107
19763TIP3   OH280703   3.080   5.597  14.554 -0.2932 -0.1110  0.8482
19763TIP3    H180704   3.097   5.624  14.464  0.5983 -0.4928  0.8916
19763TIP3    H280705   3.163   5.612  14.600 -0.2733 -1.3313  1.2531
19764TIP3   OH280706   1.561   1.093   4.519  0.2121 -0.3536 -0.4555
19764TIP3    H180707   1.576   1.040   4.441  0.9976  2.0425 -2.0742
19764TIP3    H280708   1.603   1.177   4.499 -3.1484  1.8701  0.7316
19765TIP3   OH280709   0.011   5.073  14.645 -0.2242  0.0012 -0.2903
19765TIP3    H180710   0.102   5.052  14.625 -0.5144  1.4237 -4.0264
19765TIP3    H280711  -0.038   4.994  14.624 -0.1505  0.3832 -2.0139
19766TIP3   OH280712   3.796   4.834  12.843  0.1769  0.1402 -0.0482
19766TIP3    H180713   3.839   4.792  12.768  0.0561  0.6579 -0.4133
19766TIP3    H280714   3.736   4.897  12.804 -2.1314 -1.6711  0.4106
19767TIP3   OH280715   6.552   0.170   2.279 -0.1510  0.3681  0.0085
19767TIP3    H180716   6.495   0.242   2.252 -0.7607 -0.2823 -0.4630
19767TIP3    H280717   6.562   0.182   2.374 -0.1731  1.1112 -0.0737
19768TIP3   OH280718   3.648   4.480  12.880 -0.3509  0.1951 -0.1711
19768TIP3    H180719   3.676   4.420  12.811  1.1310  1.9956 -1.2371
19768TIP3    H280720   3.730   4.514  12.916 -1.1375  1.9417  0.0503
19769TIP3   OH280721   4.020   2.383  14.547  0.1503  0.2374 -0.2662
19769TIP3    H180722   4.009   2.332  14.467  2.6608 -0.1123 -0.4851
19769TIP3    H280723   3.997   2.472  14.522 -0.8843 -0.1734 -0.8472
19770TIP3   OH280724   4.538   1.671  16.216 -0.5299 -0.2491  0.0952
19770TIP3    H180725   4.621   1.658  16.261 -0.6903 -1.4736  0.0807
19770TIP3    H280726   4.489   1.732  16.272 -0.3520 -0.9948  1.0934
19771TIP3   OH280727   3.674   5.691   1.544  0.6282  0.2837  0.1964
19771TIP3    H180728   3.673   5.597   1.565 -0.6961 -0.1750 -1.6440
19771TIP3    H280729   3.590   5.723   1.575  0.8375  0.7322  0.3005
19772TIP3   OH280730   4.158   6.277  16.848  0.3148  0.7667  0.1841
19772TIP3    H180731   4.105   6.197  16.840 -2.2212  2.4811 -1.8958
19772TIP3    H280732   4.243   6.254  16.811  0.2088 -1.3609  1.1153
19773TIP3   OH280733   0.608   1.270   3.478 -0.2374  0.3610  0.2254
19773TIP3    H180734   0.571   1.199   3.530 -1.2917  0.9488  0.2987
19773TIP3    H280735   0.633   1.337   3.542  0.9757 -0.0124  0.1790
19774TIP3   OH280736   2.903   0.460  11.024 -0.1515 -0.1572 -0.1451
19774TIP3    H180737   2.927   0.423  11.109 -0.7386  0.4713  0.3001
19774TIP3    H280738   2.815   0.495  11.036  0.1805  0.9148 -0.6966
19775TIP3   OH280739   1.428   0.120   0.422  0.5901  0.7333 -0.7363
19775TIP3    H180740   1.498   0.134   0.486  0.1105 -0.5873  0.1402
19775TIP3    H280741   1.377   0.200   0.424 -0.0139  0.3669  1.3613
19776TIP3   OH280742   6.267   1.380   3.020 -0.0425 -1.1635 -0.1329
19776TIP3    H180743   6.174   1.357   3.025 -0.3739 -0.1174 -1.0545
19776TIP3    H280744   6.288   1.380   2.927  0.7818 -1.0014  0.0379
19777TIP3   OH280745   1.790   4.798   3.650  0.3735 -0.1916 -0.5402
19777TIP3    H180746   1.846   4.788   3.727  0.1607 -0.2660 -0.3953
19777TIP3    H280747   1.837   4.860   3.594 -0.0399  0.7774  0.1780
19778TIP3   OH280748   3.693   1.558  15.901 -0.3822  0.1337 -0.2181
19778TIP3    H180749   3.785   1.538  15.886 -0.5456 -0.4221 -0.5207
19778TIP3    H280750   3.674   1.630  15.840  0.1307  1.0448  0.6632
19779TIP3   OH280751   1.838   0.862  12.501 -0.3917  0.4949 -0.0893
19779TIP3    H180752   1.887   0.825  12.574  0.1648  2.4817  0.6234
19779TIP3    H280753   1.812   0.787  12.448  1.4870 -0.7948  0.7235
19780TIP3   OH280754   6.593   3.387   1.135 -0.2274 -0.2682  0.3033
19780TIP3    H180755   6.565   3.449   1.202 -1.4199 -0.0684 -0.3384
19780TIP3    H280756   6.647   3.323   1.181 -0.6575  0.1154  1.3564
19781TIP3   OH280757   5.766   4.334  11.348 -0.5122  0.0685  0.5558
19781TIP3    H180758   5.808   4.273  11.408  0.4156 -2.5845 -2.4868
19781TIP3    H280759   5.837   4.387  11.313 -0.7435  0.3101  0.4453
19782TIP3   OH280760   1.475   0.470  14.380  0.0701 -0.1767 -0.1570
19782TIP3    H180761   1.538   0.535  14.350  0.1462 -0.2182 -0.0868
19782TIP3    H280762   1.474   0.402  14.313 -0.0945 -0.0465 -0.2868
19783TIP3   OH280763   0.786   1.837  16.731  0.3119  0.1033 -0.1972
19783TIP3    H180764   0.777   1.931  16.718 -1.1146 -0.2188 -1.7661
19783TIP3    H280765   0.723   1.816  16.800 -0.8972  0.0132 -1.2964
19784TIP3   OH280766   1.924   4.702   5.589 -0.7114  0.7877  0.0467
19784TIP3    H180767   1.931   4.726   5.682  0.3418 -2.4373  0.9132
19784TIP3    H280768   1.834   4.672   5.579 -0.3392 -0.5376  0.5199
19785TIP3   OH280769   0.272   3.174   4.690 -0.4578  0.4760  0.5414
19785TIP3    H180770   0.285   3.233   4.764 -0.5593 -0.6209  1.4626
19785TIP3    H280771   0.187   3.133   4.706  0.9169 -2.2419  1.6608
19786TIP3   OH280772   5.259   2.712  11.722 -0.0939  0.4068 -0.3653
19786TIP3    H180773   5.183   2.720  11.779 -0.5513  1.4494 -1.0989
19786TIP3    H280774   5.333   2.700  11.781 -0.7038  0.3248  0.3899
19787TIP3   OH280775   5.373   0.104   3.629 -0.3040 -0.0320  0.3957
19787TIP3    H180776   5.418   0.118   3.546 -0.4913 -0.6888  0.1769
19787TIP3    H280777   5.358   0.192   3.663 -1.8714  0.3705 -1.1615
19788TIP3   OH280778   5.459   5.805   1.538 -0.0925  0.4831 -0.1747
19788TIP3    H180779   5.441   5.733   1.477  0.4420 -0.1569  0.4044
19788TIP3    H280780   5.384   5.863   1.529 -2.0660 -1.5968  1.4617
19789TIP3   OH280781   0.983   2.508  15.069 -0.5598 -0.1397 -0.1216
19789TIP3    H180782   0.911   2.506  15.133 -0.1612  3.0088  0.5785
19789TIP3    H280783   1.001   2.416  15.052 -4.0338 -1.0887  0.4545
19790TIP3   OH280784   0.732   3.768  15.792 -0.1131  0.0333 -1.0330
19790TIP3    H180785   0.672   3.764  15.718 -1.6189  1.5944  0.0290
19790TIP3    H280786   0.676   3.755  15.869  0.5595  3.0517  0.1025
19791TIP3   OH280787   1.390   3.796  11.714 -0.0215  0.0434 -0.1664
19791TIP3    H180788   1.444   3.873  11.733 -0.2898 -0.0238  0.9146
19791TIP3    H280789   1.431   3.725  11.764 -2.1106  0.3770  2.1983
19792TIP3   OH280790   6.647   1.224   0.372 -0.0498 -0.4958 -0.1141
19792TIP3    H180791   6.711   1.162   0.406  0.5756  0.1398 -0.1012
19792TIP3    H280792   6.622   1.189   0.287 -0.8704 -1.5704  0.5533
19793TIP3   OH280793   1.784   5.220   4.610  0.7451 -0.0604 -0.6107
19793TIP3    H180794   1.814   5.267   4.532  1.4274  0.6530  0.0654
19793TIP3    H280795   1.800   5.281   4.682 -0.4596 -0.4525  0.0275
19794TIP3   OH280796   5.591   3.653  12.143 -0.2156  0.1382  0.2920
19794TIP3    H180797   5.681   3.683  12.151  1.2370 -3.4483 -0.5259
19794TIP3    H280798   5.562   3.686  12.058  1.1701 -0.4321 -0.4447
19795TIP3   OH280799   0.371   5.921  11.327 -0.1440 -0.1689  0.1554
19795TIP3    H180800   0.301   5.946  11.267 -0.2030  0.1742  0.3648
19795TIP3    H280801   0.421   6.002  11.341  1.0238 -0.6690 -0.9347
19796TIP3   OH280802   4.788   2.866  14.528  0.4106 -0.6082  0.8084
19796TIP3    H180803   4.720   2.799  14.531 -1.3288  0.9055 -1.4278
19796TIP3    H280804   4.743   2.947  14.553  1.2891  0.4769 -0.9610
19797TIP3   OH280805   6.289   0.085  16.601  0.3393  0.3281  0.4360
19797TIP3    H180806   6.336   0.044  16.673  1.5758  0.9466  0.0125
19797TIP3    H280807   6.310   0.030  16.525 -2.2608 -1.2834  0.7655
19798TIP3   OH280808   3.816   5.638  10.951 -0.6480  0.1490  0.4270
19798TIP3    H180809   3.756   5.609  11.019 -1.6885 -0.6341 -0.7903
19798TIP3    H280810   3.827   5.562  10.894  2.0076  0.0548  0.9267
19799TIP3   OH280811   4.688   1.897   4.922 -0.0396  0.2718  0.1780
19799TIP3    H180812   4.630   1.961   4.883  0.0287  0.4805  0.4173
19799TIP3    H280813   4.674   1.817   4.871 -0.1909  0.4512 -0.0594
19800TIP3   OH280814   2.154   1.115  12.236  0.4075 -0.1833  0.1551
19800TIP3    H180815   2.074   1.067  12.214 -0.3864  0.3001  1.7951
19800TIP3    H280816   2.223   1.049  12.233 -0.2258 -0.8457 -0.2329
19801TIP3   OH280817   4.926   3.287   1.659 -0.2087 -0.3913  0.3666
19801TIP3    H180818   4.911   3.195   1.680  0.1297  0.0631  2.8522
19801TIP3    H280819   4.841   3.330   1.671 -0.2670 -0.2753 -0.3707
19802TIP3   OH280820   3.893   2.906  11.877 -0.2401  0.3627  0.3620
19802TIP3    H180821   3.888   2.854  11.797 -3.0334  1.5956 -0.3824
19802TIP3    H280822   3.857   2.992  11.853 -2.2720  0.4382  3.1297
19803TIP3   OH280823   5.802   0.643  11.970  0.6675 -0.3804 -0.0583
19803TIP3    H180824   5.878   0.676  11.923  1.1426 -1.2030  0.1188
19803TIP3    H280825   5.803   0.549  11.954  0.6728 -0.6431  1.3498
19804TIP3   OH280826   6.219   5.505  12.250  0.1093  0.5656 -0.0706
19804TIP3    H180827   6.132   5.513  12.211 -0.3148  0.8668  0.8896
19804TIP3    H280828   6.205   5.522  12.343  0.9189 -1.0812  0.3929
19805TIP3   OH280829   1.831   6.422  11.737  0.2457 -0.2277 -0.0255
19805TIP3    H180830   1.869   6.506  11.712 -0.5577  0.6754  1.6410
19805TIP3    H280831   1.886   6.392  11.809  0.2803 -0.9399 -0.3432
19806TIP3   OH280832   3.655   2.919   3.135 -0.5618 -0.1202 -0.3809
19806TIP3    H180833   3.575   2.871   3.155 -1.3215  1.1896 -0.1331
19806TIP3    H280834   3.724   2.870   3.179 -1.2417 -1.1647 -0.4361
19807TIP3   OH280835   0.888   4.896   3.625 -0.3349  0.0662  0.3455
19807TIP3    H180836   0.964   4.844   3.596 -0.2972 -0.5567  1.5196
19807TIP3    H280837   0.923   4.984   3.637 -0.2468  0.2462 -0.9829
19808TIP3   OH280838   1.806   2.102   4.646  0.1752 -0.2850 -0.7724
19808TIP3    H180839   1.812   2.090   4.551  0.3478  2.0209 -1.1157
19808TIP3    H280840   1.787   2.014   4.680 -0.7081 -1.0422 -2.9942
19809TIP3   OH280841   2.371   1.202   2.507  0.0120 -0.1793  0.1680
19809TIP3    H180842   2.343   1.265   2.574  1.4338  0.9345 -0.2228
19809TIP3    H280843   2.372   1.253   2.426  0.8338 -0.8054 -0.2236
19810TIP3   OH280844   2.407   0.401   2.970 -0.3679  0.0793  0.0577
19810TIP3    H180845   2.386   0.362   2.885  2.1210 -2.0235  0.2898
19810TIP3    H280846   2.500   0.421   2.965 -0.2923  0.4660  2.1191
19811TIP3   OH280847   0.859   0.250   0.332 -0.2816 -0.7444  0.1217
19811TIP3    H180848   0.929   0.202   0.376 -0.6406 -0.0579  1.4939
19811TIP3    H280849   0.787   0.186   0.326  0.7480 -1.8223 -2.3162
19812TIP3   OH280850   6.632   4.658  14.426  0.6145  0.4722 -0.3668
19812TIP3    H180851   6.544   4.653  14.463  0.8950  0.4933  0.3272
19812TIP3    H280852   6.625   4.616  14.340 -0.0770  0.5187 -0.3365
19813TIP3   OH280853   5.741   0.432   1.519 -0.0530  0.0951  0.6618
19813TIP3    H180854   5.783   0.492   1.580  1.3921 -2.5067  2.4178
19813TIP3    H280855   5.814   0.389   1.474 -1.0560  0.3830 -1.3684
19814TIP3   OH280856   1.656   2.582  10.844 -0.2433  0.1166  0.3396
19814TIP3    H180857   1.735   2.570  10.897 -0.1010 -0.4484  0.0051
19814TIP3    H280858   1.670   2.665  10.798  0.4605 -0.3119 -0.2316
19815TIP3   OH280859   3.915   0.863   0.350 -0.2260 -0.4109  0.2260
19815TIP3    H180860   3.956   0.777   0.339 -0.0155 -0.2776 -0.0109
19815TIP3    H280861   3.985   0.926   0.338 -0.8548 -0.0824 -2.3441
19816TIP3   OH280862   0.688   5.698   1.044  0.1785 -0.1567 -0.0237
19816TIP3    H180863   0.642   5.644   0.980 -0.2637  0.4409 -0.2263
19816TIP3    H280864   0.774   5.712   1.006 -0.4829  1.2255 -1.1264
19817TIP3   OH280865   3.234   2.827  14.717  0.0789 -0.1783  0.3267
19817TIP3    H180866   3.159   2.876  14.683 -0.2960 -1.4058 -0.6998
19817TIP3    H280867   3.305   2.891  14.718 -0.9121  0.9504  1.1067
19818TIP3   OH280868   2.105   2.546  15.283 -0.6047  0.0779  0.0117
19818TIP3    H180869   2.083   2.606  15.211  0.2564 -0.6602 -0.9034
19818TIP3    H280870   2.199   2.534  15.276 -0.8512 -2.0089 -0.3474
19819TIP3   OH280871   6.741   0.050  16.914  0.1123 -0.1741  0.0244
19819TIP3    H180872   6.780  -0.005  16.981 -1.1643  1.4689  2.2710
19819TIP3    H280873   6.778   0.137  16.930 -0.8477  0.4221 -0.8769
19820TIP3   OH280874   5.384   3.452  16.796  0.0490 -0.3712  0.2919
19820TIP3    H180875   5.411   3.378  16.851  0.4619 -0.0543  0.5255
19820TIP3    H280876   5.458   3.464  16.736  0.9105  1.1465  1.5883
19821TIP3   OH280877   6.565   2.849  15.020  0.1644  0.6638 -0.3731
19821TIP3    H180878   6.543   2.940  15.037  0.2942  0.4760  0.9302
19821TIP3    H280879   6.481   2.808  14.996 -0.1300  0.8800  0.2533
19822TIP3   OH280880   3.601   1.566   2.413  0.0911 -0.2318  0.3663
19822TIP3    H180881   3.674   1.542   2.469 -0.0450  0.4554  0.8456
19822TIP3    H280882   3.561   1.482   2.389  1.2655 -0.6401 -0.2321
19823TIP3   OH280883   1.454   5.784  11.704 -0.3002 -0.1974  0.2468
19823TIP3    H180884   1.475   5.698  11.669 -0.4063  0.2223 -0.9011
19823TIP3    H280885   1.497   5.846  11.645 -1.9611  0.5871 -0.2260
19824TIP3   OH280886   3.158   5.373  16.171  0.7055  0.5488 -0.3501
19824TIP3    H180887   3.097   5.321  16.118  0.2090  1.7591 -1.0122
19824TIP3    H280888   3.142   5.344  16.261  0.4791 -0.4610 -0.6994
19825TIP3   OH280889   5.358   6.769   3.299  0.1563  0.9886  0.6141
19825TIP3    H180890   5.427   6.702   3.305 -0.1207  0.5058 -1.1912
19825TIP3    H280891   5.401   6.845   3.259 -0.4732  0.4471 -1.1772
19826TIP3   OH280892   6.274   0.596  12.089  0.4050  0.4130  0.1622
19826TIP3    H180893   6.257   0.690  12.080  1.6455  0.7571  1.0637
19826TIP3    H280894   6.211   0.554  12.030 -2.2154  1.6377  1.8528
19827TIP3   OH280895   2.703   4.384   1.091 -0.3569 -0.3522 -0.2923
19827TIP3    H180896   2.679   4.334   1.170  1.3237 -0.4251  0.2152
19827TIP3    H280897   2.776   4.438   1.119  0.0401 -0.1164 -1.7335
19828TIP3   OH280898   2.901   2.408  12.369  0.2303  0.3008  0.3742
19828TIP3    H180899   2.811   2.408  12.337  0.0620 -1.4309  0.7808
19828TIP3    H280900   2.903   2.341  12.437  1.4122  1.5285  1.6309
19829TIP3   OH280901   1.591   3.075  12.087  0.7141  0.0423 -0.5424
19829TIP3    H180902   1.682   3.047  12.089  0.5851 -0.3662  0.6062
19829TIP3    H280903   1.569   3.093  12.179 -0.2991  0.3333 -0.8191
19830TIP3   OH280904   2.448   2.304   4.073  0.4358  0.5812  0.0361
19830TIP3    H180905   2.520   2.248   4.100 -0.7329 -0.1655  1.7260
19830TIP3    H280906   2.406   2.256   4.001  0.6166  0.2361  0.1605
19831TIP3   OH280907   2.022   5.343   5.574  0.0923  0.6620  0.0089
19831TIP3    H180908   2.079   5.386   5.509  1.7518 -1.6870 -0.1921
19831TIP3    H280909   1.976   5.276   5.524 -1.1573  1.0098  0.6579
19832TIP3   OH280910   0.652   1.729   0.561 -0.4459 -0.2518 -0.1774
19832TIP3    H180911   0.599   1.795   0.516 -0.1691 -0.8779 -1.4769
19832TIP3    H280912   0.639   1.747   0.654 -0.4388  1.5755 -0.4934
19833TIP3   OH280913   5.715   5.785   4.895  0.0704 -0.5388 -0.1398
19833TIP3    H180914   5.735   5.750   4.982  2.2940  1.4907  0.2677
19833TIP3    H280915   5.645   5.849   4.911  1.4326  0.8704  0.4818
19834TIP3   OH280916   0.572   0.113  12.078  0.0407 -1.0981 -0.1193
19834TIP3    H180917   0.538   0.113  12.167 -1.0391  0.8813 -0.4548
19834TIP3    H280918   0.666   0.130  12.087  0.1662 -2.1199  0.6574
19835TIP3   OH280919   4.371   0.654   4.322 -0.2096  0.1719  0.0491
19835TIP3    H180920   4.435   0.678   4.388  0.5991  2.2460 -1.3760
19835TIP3    H280921   4.336   0.738   4.290 -5.5204 -0.7278  2.3926
19836TIP3   OH280922   6.320   1.104   0.270  0.6443 -0.4715 -0.5607
19836TIP3    H180923   6.307   1.196   0.250  1.8596  0.4428  2.3137
19836TIP3    H280924   6.402   1.081   0.226 -0.4154 -0.6750 -2.5196
19837TIP3   OH280925   4.818   3.361  14.860 -0.1257 -0.2002  0.1029
19837TIP3    H180926   4.890   3.335  14.917  0.1422 -1.1344 -0.6294
19837TIP3    H280927   4.749   3.389  14.920  0.1438 -1.1808  0.9074
19838TIP3   OH280928   5.533   0.407   0.549 -0.8263  0.9726  0.4916
19838TIP3    H180929   5.550   0.456   0.469 -1.2298 -1.1688 -0.9553
19838TIP3    H280930   5.597   0.335   0.548 -2.5846 -0.6567  0.6690
19839TIP3   OH280931   0.113   4.885   4.370  0.3803  0.1718  0.1073
19839TIP3    H180932   0.064   4.953   4.416 -2.2343 -1.3750 -0.2129
19839TIP3    H280933   0.123   4.815   4.435 -1.7921 -1.3032 -1.0225
19840TIP3   OH280934   0.231   3.581   4.005 -0.6070  0.5764 -0.0506
19840TIP3    H180935   0.194   3.669   4.004  0.1701  0.9970  2.2128
19840TIP3    H280936   0.177   3.532   4.068  0.1451  0.0208  0.1834
19841TIP3   OH280937   4.982   2.734   1.456  0.8659 -0.4730 -0.4282
19841TIP3    H180938   5.046   2.792   1.413 -1.0741  1.4933 -0.8254
19841TIP3    H280939   5.011   2.731   1.547  1.1754  0.9348 -0.4513
19842TIP3   OH280940   2.498   3.296   3.107 -0.2222 -0.3572 -0.5513
19842TIP3    H180941   2.465   3.367   3.053  0.5508  0.9261  0.6087
19842TIP3    H280942   2.593   3.307   3.106 -0.2189  1.0565  2.7368
19843TIP3   OH280943   1.530   4.848   0.292 -0.0091  0.4052 -0.8730
19843TIP3    H180944   1.532   4.788   0.366 -3.3903  0.8237 -0.2928
19843TIP3    H280945   1.516   4.792   0.216 -0.3378  0.2406 -0.6937
19844TIP3   OH280946   0.912   1.107  15.532 -1.3337  0.2399 -0.3959
19844TIP3    H180947   0.875   1.144  15.452  3.1632  2.0271 -1.9850
19844TIP3    H280948   0.960   1.180  15.572  1.6227 -2.0167  0.5349
19845TIP3   OH280949   4.499   4.093   0.791 -0.1232 -0.3567  0.4360
19845TIP3    H180950   4.569   4.059   0.735 -0.2901 -2.0009  1.1727
19845TIP3    H280951   4.466   4.170   0.744  1.9168  0.2585 -0.1078
19846TIP3   OH280952   1.304   6.528   3.028  0.4780 -0.2781 -0.3156
19846TIP3    H180953   1.296   6.470   2.952  1.9811  1.1216 -1.6145
19846TIP3    H280954   1.314   6.615   2.991 -1.4266  0.8560  1.5847
19847TIP3   OH280955   3.896   4.652  13.879 -0.5071 -0.0872 -0.1628
19847TIP3    H180956   3.931   4.616  13.797 -1.1761 -0.5076 -0.2694
19847TIP3    H280957   3.936   4.598  13.947 -0.0198  0.2049 -0.2148
19848TIP3   OH280958   4.215   0.815  13.521  0.1642 -0.2048  0.3096
19848TIP3    H180959   4.197   0.866  13.442  0.8480  1.1538  0.9922
19848TIP3    H280960   4.310   0.822  13.533  0.1717 -1.0587  0.8179
19849TIP3   OH280961   5.053   3.877  13.726 -0.1776 -0.3106 -0.4020
19849TIP3    H180962   5.142   3.888  13.760 -0.4740  1.1192 -0.0430
19849TIP3    H280963   5.043   3.782  13.716  0.5342 -0.6891  1.8413
19850TIP3   OH280964   1.937   6.736   5.645  0.6950  1.0785  0.2592
19850TIP3    H180965   1.901   6.680   5.576  0.6864  1.7867 -0.3202
19850TIP3    H280966   1.870   6.734   5.714  1.8884 -1.8332  1.4792
19851TIP3   OH280967   5.111   2.796   3.578  0.2229 -0.3849  0.3286
19851TIP3    H180968   5.187   2.738   3.566 -1.4348 -2.3843 -1.2139
19851TIP3    H280969   5.093   2.830   3.491 -0.3915  0.4574  0.7722
19852TIP3   OH280970   3.734   2.249  16.938 -0.2991 -0.3443 -0.6757
19852TIP3    H180971   3.663   2.188  16.918  1.2163 -1.8759 -1.6056
19852TIP3    H280972   3.810   2.193  16.954  0.2126  1.0777  2.8843
19853TIP3   OH280973   3.164   0.583  11.953  0.3258 -0.0139 -0.1512
19853TIP3    H180974   3.168   0.635  11.873  1.3558 -1.1980 -0.9059
19853TIP3    H280975   3.246   0.533  11.954  0.8769  0.7871  2.2373
19854TIP3   OH280976   3.414   0.610  15.760 -0.6087 -0.1833  0.1030
19854TIP3    H180977   3.329   0.570  15.742 -1.5016  1.4415  0.4629
19854TIP3    H280978   3.398   0.704  15.751  1.2245  0.1469 -0.0564
19855TIP3   OH280979   5.741   6.311  13.007 -0.2728  0.5410  0.0731
19855TIP3    H180980   5.660   6.334  13.051 -0.1764 -0.1416  0.6140
19855TIP3    H280981   5.761   6.387  12.952 -1.1720  0.7867  0.0780
19856TIP3   OH280982   1.198   1.413   2.993 -0.2868 -0.3083  0.4540
19856TIP3    H180983   1.167   1.324   3.010  0.1262 -0.8499 -1.4052
19856TIP3    H280984   1.197   1.421   2.898  0.2709  1.4804  0.5595
19857TIP3   OH280985   0.178   3.477   0.920 -0.2274  0.6732 -0.1427
19857TIP3    H180986   0.222   3.550   0.964  1.2798 -0.4559  0.3038
19857TIP3    H280987   0.187   3.404   0.981 -1.2857 -0.0136 -0.7895
19858TIP3   OH280988   1.380   4.553   3.633 -0.7614  0.3417  0.8165
19858TIP3    H180989   1.353   4.607   3.558 -2.4850 -1.7565 -0.1780
19858TIP3    H280990   1.298   4.531   3.677  0.0481 -0.2295  2.0885
19859TIP3   OH280991   0.797   2.072   1.724 -0.3543 -0.3511  0.7798
19859TIP3    H180992   0.763   1.982   1.730  1.4178 -1.3359 -1.7945
19859TIP3    H280993   0.878   2.070   1.775  1.9762 -1.6669 -2.5511
19860TIP3   OH280994   2.432   3.798  15.281 -0.4864  0.4445 -0.2206
19860TIP3    H180995   2.375   3.857  15.331  0.5106  0.5425  0.8471
19860TIP3    H280996   2.516   3.802  15.327  0.0355 -0.6299 -1.0465
19861TIP3   OH280997   5.735   0.103   2.341  0.3187 -0.3146  0.7182
19861TIP3    H180998   5.689   0.027   2.377 -0.2448 -0.7059 -0.7516
19861TIP3    H280999   5.666   0.167   2.325  0.1019 -1.1100 -2.0369
19862TIP3   OH281000   3.382   0.504  16.617  0.1174  0.3292  0.0533
19862TIP3    H181001   3.391   0.461  16.702 -2.4286  0.4467  0.4667
19862TIP3    H281002   3.395   0.434  16.553 -1.6917 -0.6215  0.6672
19863TIP3   OH281003   1.670   5.487   0.985 -0.8317 -0.1133 -0.4257
19863TIP3    H181004   1.756   5.468   1.024 -0.7422  1.0888  0.0161
19863TIP3    H281005   1.667   5.583   0.982 -1.5743 -0.1658 -1.7710
19864TIP3   OH281006   5.653   5.962   0.050  0.0680  0.7357 -0.2132
19864TIP3    H181007   5.589   5.962  -0.021  0.2248 -0.7174 -0.3802
19864TIP3    H281008   5.736   5.985   0.007 -0.0898  1.2897 -0.2313
19865TIP3   OH281009   2.672   2.281   3.631  0.4427  0.0844  0.5415
19865TIP3    H181010   2.725   2.351   3.594  0.4639  0.6576  1.6253
19865TIP3    H281011   2.604   2.265   3.565  1.2358  0.1655 -0.3220
19866TIP3   OH281012   1.120   2.621   2.339  0.4125 -0.6257 -0.3153
19866TIP3    H181013   1.096   2.649   2.427 -4.0748 -0.7616 -1.2726
19866TIP3    H281014   1.147   2.529   2.350  0.9749 -0.3384  0.9748
19867TIP3   OH281015   6.271   4.349  14.164 -0.1733 -0.5552 -0.5736
19867TIP3    H181016   6.186   4.306  14.153  0.8808 -2.4661 -1.7359
19867TIP3    H281017   6.249   4.440  14.187 -2.5127 -1.8063  2.9248
19868TIP3   OH281018   0.601   5.167  15.039  0.7981 -0.2742  0.1610
19868TIP3    H181019   0.571   5.255  15.060  1.8611  0.0990  0.1819
19868TIP3    H281020   0.627   5.130  15.124 -0.4658 -0.9449  0.2793
19869TIP3   OH281021   6.200   3.845   1.645 -0.0451  0.5583 -0.0160
19869TIP3    H181022   6.284   3.852   1.690  0.7208  1.4269 -1.5065
19869TIP3    H281023   6.138   3.889   1.703  1.0771  2.4530 -0.1720
19870TIP3   OH281024   2.217   5.593  16.064  0.5319  0.5934  0.4943
19870TIP3    H181025   2.288   5.552  16.015  0.2240  0.4401  0.1692
19870TIP3    H281026   2.217   5.547  16.148 -1.0733 -1.4912 -0.5596
19871TIP3   OH281027   6.272   3.455  12.759  0.5807 -0.5511 -0.4236
19871TIP3    H181028   6.288   3.369  12.721 -0.5732 -2.0717  2.2542
19871TIP3    H281029   6.304   3.447  12.850  0.5463  1.9001 -0.1243
19872TIP3   OH281030   5.646   1.387   1.757  0.0032  0.6365 -0.1629
19872TIP3    H181031   5.694   1.314   1.718 -0.1156  0.9576 -0.9283
19872TIP3    H281032   5.710   1.459   1.761  0.7639 -0.0813  2.5553
19873TIP3   OH281033   4.862   3.512   0.020  0.5680  0.2678 -0.4650
19873TIP3    H181034   4.865   3.494   0.114  1.5244 -1.3828 -0.7795
19873TIP3    H281035   4.953   3.511  -0.008  0.3263  1.1567 -1.3621
19874TIP3   OH281036   6.014   4.878   4.632  0.1948 -0.0020  0.7120
19874TIP3    H181037   6.001   4.791   4.668 -0.8609  0.7577  2.2871
19874TIP3    H281038   5.993   4.868   4.539  2.8410 -1.9745  0.2092
19875TIP3   OH281039   6.158   1.542  15.874 -0.3787 -0.1160 -0.0342
19875TIP3    H181040   6.233   1.516  15.927 -1.3613 -0.6949  1.1090
19875TIP3    H281041   6.170   1.636  15.861  0.5018 -0.1838  0.1890
19876TIP3   OH281042   4.531   3.858  15.218  0.4954 -0.0717  0.6068
19876TIP3    H181043   4.530   3.946  15.181  0.4122 -1.0700 -1.9438
19876TIP3    H281044   4.604   3.858  15.280  1.1882  1.4605 -0.1753
19877TIP3   OH281045   6.487   3.849  10.839 -0.4933  0.0302  0.0445
19877TIP3    H181046   6.576   3.862  10.806 -0.0990  0.9535  1.4109
19877TIP3    H281047   6.432   3.898  10.777  0.0070 -0.0411 -0.4696
19878TIP3   OH281048   2.694   0.967  12.748  0.3723  0.3479 -0.8017
19878TIP3    H181049   2.680   0.894  12.807 -0.4258 -0.3956 -1.8667
19878TIP3    H281050   2.635   1.035  12.779 -1.2798 -0.6198 -1.6633
19879TIP3   OH281051   4.440   5.400   3.221  0.1552 -0.2096 -0.2007
19879TIP3    H181052   4.425   5.488   3.185  0.8905 -0.3289 -0.8225
19879TIP3    H281053   4.397   5.402   3.307  0.7577  0.9833  0.0928
19880TIP3   OH281054   6.312   1.783   2.630  0.1275  0.0371 -0.3052
19880TIP3    H181055   6.346   1.727   2.560 -1.4529 -1.5920  0.1200
19880TIP3    H281056   6.228   1.815   2.596 -0.1428  0.1120  0.4193
19881TIP3   OH281057   3.479   0.597  11.532  0.1131  0.5716  0.0896
19881TIP3    H181058   3.428   0.572  11.455 -1.0378  0.2711  0.9083
19881TIP3    H281059   3.510   0.685  11.513  1.0629 -0.0323 -1.2911
19882TIP3   OH281060   1.535   5.621   2.535  0.5285  0.0246  0.3340
19882TIP3    H181061   1.487   5.689   2.488  1.1282  0.6679  0.6345
19882TIP3    H281062   1.535   5.649   2.626 -1.9367 -1.9683  1.0733
19883TIP3   OH281063   1.092   2.588  12.295 -0.2618  0.4800 -0.5402
19883TIP3    H181064   1.188   2.593  12.288 -0.0595  2.6818  2.0483
19883TIP3    H281065   1.060   2.628  12.215  1.0995  2.4562 -0.1734
19884TIP3   OH281066   4.436   0.536   4.049 -0.0381 -0.5800  0.3887
19884TIP3    H181067   4.398   0.525   4.136  1.1111  2.3104  1.4033
19884TIP3    H281068   4.530   0.549   4.066 -0.0038  1.6006 -1.0369
19885TIP3   OH281069   2.522   2.153   4.479  0.4600 -0.0461 -0.2316
19885TIP3    H181070   2.462   2.227   4.475 -0.1773 -0.4573  1.0189
19885TIP3    H281071   2.464   2.077   4.489  1.1825 -0.4370  1.1493
19886TIP3   OH281072   2.086   0.825  13.794 -0.1997 -0.0644 -0.0747
19886TIP3    H181073   2.113   0.860  13.709  0.7296  1.7758  0.9164
19886TIP3    H281074   2.049   0.900  13.840  0.2056 -0.7960  1.4943
19887TIP3   OH281075   0.057   5.765  16.797  0.1401  0.6251  0.0916
19887TIP3    H181076  -0.005   5.837  16.800  0.4936  0.9342  0.0282
19887TIP3    H281077   0.011   5.692  16.838 -0.9567  0.3192 -1.5728
19888TIP3   OH281078   6.763   4.417  11.864 -0.7038  0.1205 -0.4944
19888TIP3    H181079   6.813   4.336  11.866 -0.4086  0.3012 -0.4269
19888TIP3    H281080   6.716   4.418  11.948  0.2573  0.6080  0.0673
19889TIP3   OH281081   1.516   4.120  14.225 -0.3068 -0.3329 -0.5493
19889TIP3    H181082   1.509   4.216  14.230  0.3710 -0.2055 -1.8029
19889TIP3    H281083   1.593   4.099  14.277  0.9549  0.0471 -2.2080
19890TIP3   OH281084   4.733   3.752   6.153 -0.0749  0.1329  0.3426
19890TIP3    H181085   4.676   3.820   6.189 -0.6949 -0.5433  0.6777
19890TIP3    H281086   4.681   3.710   6.086  0.0308 -0.4795  0.6346
19891TIP3   OH281087   3.622   2.135  16.096 -0.0091  0.2103 -0.1682
19891TIP3    H181088   3.717   2.141  16.086 -0.0585 -0.2623 -1.0484
19891TIP3    H281089   3.604   2.172  16.182  1.0241 -0.1098  0.1995
19892TIP3   OH281090   1.792   1.595   4.333  0.1410 -0.0718 -0.1021
19892TIP3    H181091   1.702   1.592   4.366  1.5212  0.0994  4.2986
19892TIP3    H281092   1.786   1.642   4.250 -3.8332 -0.4731 -0.2128
19893TIP3   OH281093   2.504   2.771  16.617  0.3973  0.1551 -0.3571
19893TIP3    H181094   2.598   2.757  16.632  0.3735  0.0738 -0.2881
19893TIP3    H281095   2.494   2.765  16.522  0.5644  0.7642 -0.4219
19894TIP3   OH281096   0.887   6.651  13.664  0.0254 -0.4785  0.4008
19894TIP3    H181097   0.924   6.729  13.706  2.0731  0.5535 -2.9611
19894TIP3    H281098   0.953   6.583  13.678 -0.3524 -0.7813  0.7350
19895TIP3   OH281099   3.090   2.267   5.364 -0.2224 -0.3562 -0.2611
19895TIP3    H181100   3.172   2.230   5.331 -0.4164 -0.2359 -0.9092
19895TIP3    H281101   3.112   2.307   5.448  1.0927  2.3423 -1.7498
19896TIP3   OH281102   1.739   4.507   3.272 -0.2829  0.1881  0.1740
19896TIP3    H181103   1.778   4.594   3.274 -1.0651  0.5661 -0.5289
19896TIP3    H281104   1.711   4.491   3.362 -0.2872  0.7371  0.2729
19897TIP3   OH281105   5.105   0.202  15.266  0.7653 -0.0555 -0.0192
19897TIP3    H181106   5.191   0.170  15.239  0.3678 -2.1276  1.0065
19897TIP3    H281107   5.062   0.126  15.304 -1.6303  0.8801 -0.7004
19898TIP3   OH281108   1.387   4.366  13.946  0.5411  0.2235  0.3385
19898TIP3    H181109   1.445   4.441  13.937  0.9447 -0.1650 -0.3833
19898TIP3    H281110   1.431   4.296  13.898 -1.0766  0.2346 -1.2706
19899TIP3   OH281111   1.507   3.322   3.163  0.3488 -0.2631  0.3047
19899TIP3    H181112   1.587   3.368   3.189 -0.9535  2.3047  0.0452
19899TIP3    H281113   1.522   3.298   3.072  0.7061  0.4291  0.1804
19900TIP3   OH281114   5.060   0.959  12.803  0.1799 -0.5828  0.0472
19900TIP3    H181115   5.153   0.951  12.786  0.4151  0.2330  0.8497
19900TIP3    H281116   5.041   0.889  12.866  0.6604  0.3978  1.3230
19901TIP3   OH281117   2.131   4.582   0.915 -0.1037 -0.3921  0.2334
19901TIP3    H181118   2.139   4.604   1.008 -1.0259 -1.0121  0.4808
19901TIP3    H281119   2.220   4.558   0.888  0.5803  1.7279  0.4045
19902TIP3   OH281120   2.617   4.872  11.634 -0.0634  0.5134  0.0751
19902TIP3    H181121   2.572   4.851  11.716  0.1729 -0.2685  0.0099
19902TIP3    H281122   2.592   4.802  11.574 -1.7968  2.0799 -1.1611
19903TIP3   OH281123   2.106   3.133  12.515  0.1933  0.0508 -0.5036
19903TIP3    H181124   2.173   3.131  12.584  0.3673 -1.1996 -0.6989
19903TIP3    H281125   2.058   3.051  12.525  0.1182 -0.0743 -1.7668
19904TIP3   OH281126   4.373   3.927  13.431 -0.1497 -0.0302 -0.2666
19904TIP3    H181127   4.404   4.018  13.434  0.6811 -0.2900 -0.7728
19904TIP3    H281128   4.443   3.879  13.389 -1.0028 -0.7492 -0.9068
19905TIP3   OH281129   5.005   0.071   2.516 -0.1351  0.4777  0.2104
19905TIP3    H181130   5.074   0.027   2.465 -0.7214 -1.0375  0.6480
19905TIP3    H281131   5.051   0.106   2.592  0.0748 -1.3425  0.9904
19906TIP3   OH281132   6.146   1.800  15.586  0.2864  0.3900 -0.0943
19906TIP3    H181133   6.231   1.764  15.611  0.4132 -0.1360 -1.2540
19906TIP3    H281134   6.126   1.760  15.501 -0.2806  1.8923 -0.6986
19907TIP3   OH281135   5.672   0.750   1.199 -0.4084  0.1861  0.0588
19907TIP3    H181136   5.721   0.752   1.117 -0.0140  0.7948  0.2988
19907TIP3    H281137   5.729   0.704   1.260 -0.5706  0.0023  0.0710
19908TIP3   OH281138   0.631   4.675  12.385  0.5957 -0.2546 -0.7965
19908TIP3    H181139   0.613   4.769  12.373 -1.1293 -0.3966  0.4453
19908TIP3    H281140   0.723   4.672  12.410  0.0947  1.3969  1.6412
19909TIP3   OH281141   3.459   5.496  16.952  0.5872 -0.4274  0.4973
19909TIP3    H181142   3.439   5.534  16.867  0.7123 -0.9919  0.2163
19909TIP3    H281143   3.554   5.503  16.960  0.6138 -0.7154  0.4297
19910TIP3   OH281144   0.379   5.456  11.701  0.1508  0.7540 -0.2194
19910TIP3    H181145   0.286   5.477  11.708 -0.0302  0.2152 -0.9371
19910TIP3    H281146   0.393   5.386  11.764 -0.2026 -0.0291 -1.0024
19911TIP3   OH281147   1.034   5.883  17.167  0.6003  0.3384  0.6965
19911TIP3    H181148   0.963   5.901  17.228  0.3260  0.2189  0.4096
19911TIP3    H281149   1.102   5.947  17.190 -0.3212  1.7055 -0.2415
19912TIP3   OH281150   6.178   2.214   0.959  0.3178  0.3448 -0.3785
19912TIP3    H181151   6.253   2.269   0.984 -1.0757  2.0123  0.3160
19912TIP3    H281152   6.207   2.124   0.979  1.1559  1.1437  2.6054
19913TIP3   OH281153   1.293   4.752   1.037 -0.1855 -0.2912 -0.3243
19913TIP3    H181154   1.322   4.804   0.962  4.2176  0.9316  1.8822
19913TIP3    H281155   1.240   4.812   1.089 -1.0231 -0.3267 -1.1053
19914TIP3   OH281156   5.258   3.097   5.440  0.3809  0.5081 -0.5750
19914TIP3    H181157   5.237   3.110   5.348  1.1107 -0.8108 -0.9536
19914TIP3    H281158   5.176   3.068   5.480 -0.4500  2.9079 -0.3615
19915TIP3   OH281159   1.522   4.983   1.614  0.1973  0.3746  0.0234
19915TIP3    H181160   1.440   4.958   1.570  1.1299 -1.6137 -0.6800
19915TIP3    H281161   1.544   5.068   1.576 -0.5020  0.0084 -1.2596
19916TIP3   OH281162   1.528   0.096   2.769  0.4703 -0.3971  0.3369
19916TIP3    H181163   1.565   0.069   2.685 -0.2581 -0.9365  0.1721
19916TIP3    H281164   1.554   0.187   2.779 -0.0836 -0.0823 -0.8511
19917TIP3   OH281165   2.396   1.843   2.331  0.2735 -0.0469 -0.0971
19917TIP3    H181166   2.345   1.842   2.250 -1.5449 -1.7921  0.9760
19917TIP3    H281167   2.465   1.778   2.317  1.3191  1.1980 -0.9769
19918TIP3   OH281168   6.610   4.556   3.716 -0.7062  0.3876 -0.0554
19918TIP3    H181169   6.561   4.523   3.791 -0.9606  0.3792 -0.2219
19918TIP3    H281170   6.701   4.558   3.745 -0.4406 -1.9596 -0.5544
19919TIP3   OH281171   5.750   5.228   0.597 -0.2145 -0.2435 -0.4140
19919TIP3    H181172   5.749   5.310   0.548 -1.3865  0.3778  0.6014
19919TIP3    H281173   5.662   5.192   0.587 -0.1976 -0.5646  0.4823
19920TIP3   OH281174   0.634   3.547  14.632  0.7572 -0.3494  0.1397
19920TIP3    H181175   0.676   3.599  14.700  0.3000 -0.2253  0.3344
19920TIP3    H281176   0.600   3.612  14.570  1.1644 -0.4610 -0.2067
19921TIP3   OH281177   1.431   4.427  14.471  0.2919  0.1719 -0.3408
19921TIP3    H181178   1.443   4.401  14.562 -2.0681 -0.4349 -0.1420
19921TIP3    H281179   1.378   4.507  14.476 -0.4595 -0.2508 -1.1677
19922TIP3   OH281180   2.076   3.880   4.467 -0.6063 -0.3174  0.1664
19922TIP3    H181181   2.060   3.786   4.464 -1.6425 -0.1496 -0.0067
19922TIP3    H281182   2.002   3.916   4.516 -1.1122  0.5801 -1.1905
19923TIP3   OH281183   2.018   2.823  12.571  0.5736  0.0021 -0.3495
19923TIP3    H181184   1.996   2.740  12.614 -1.0547  0.8381  0.5119
19923TIP3    H281185   1.943   2.879  12.589  2.4533  2.3200  0.7734
19924TIP3   OH281186   5.388   1.909  13.033  0.4961  0.3400  0.2107
19924TIP3    H181187   5.427   1.898  13.120  1.4241  1.4303 -0.0404
19924TIP3    H281188   5.428   1.989  12.999 -0.4504  0.3658 -0.9077
19925TIP3   OH281189   2.330   4.330   0.895 -0.8793 -0.1176 -0.2700
19925TIP3    H181190   2.314   4.239   0.870  0.5062  0.0528 -1.9175
19925TIP3    H281191   2.342   4.376   0.812  1.2611  1.0102  0.6050
19926TIP3   OH281192   6.753   1.694  14.235 -0.1891 -0.4027  0.2794
19926TIP3    H181193   6.688   1.753  14.197  0.4198 -0.4129 -0.8108
19926TIP3    H281194   6.829   1.703  14.179  1.4226  0.9371  2.5327
19927TIP3   OH281195   6.530   2.375  15.966  0.6874  0.1097  0.3721
19927TIP3    H181196   6.532   2.284  15.939 -0.9651 -0.2714  1.4043
19927TIP3    H281197   6.480   2.420  15.897  0.1629 -0.0734  0.6238
19928TIP3   OH281198   5.577   4.755  16.694 -0.3092  0.1356 -0.3463
19928TIP3    H181199   5.653   4.698  16.680 -0.6949  0.1458 -2.9120
19928TIP3    H281200   5.536   4.721  16.774  1.7086 -0.6045  0.4368
19929TIP3   OH281201   0.278   5.933   0.607 -0.8111 -0.1537  0.0511
19929TIP3    H181202   0.341   5.900   0.672  0.1000  1.0395 -0.1660
19929TIP3    H281203   0.251   6.018   0.642 -0.5643  0.3552 -0.9521
19930TIP3   OH281204   5.259   3.975   6.785 -0.2257 -0.3652 -0.8690
19930TIP3    H181205   5.224   3.913   6.849 -1.3134 -0.5838 -1.6622
19930TIP3    H281206   5.354   3.958   6.785 -0.2691 -0.7279  0.2719
19931TIP3   OH281207   1.648   1.875  11.301  0.5084  0.0835  0.0445
19931TIP3    H181208   1.692   1.844  11.380 -0.3236 -1.2347  0.0274
19931TIP3    H281209   1.681   1.818  11.231 -0.3031 -0.1258 -0.1768
19932TIP3   OH281210   6.258   5.034  13.946 -0.2840 -0.0247 -0.1856
19932TIP3    H181211   6.193   5.099  13.918  0.6023  0.9027 -0.1494
19932TIP3    H281212   6.340   5.082  13.948  0.4704 -1.2587 -0.5317
19933TIP3   OH281213   0.358   2.574  14.186 -0.1694  0.5478 -0.4734
19933TIP3    H181214   0.359   2.669  14.198  1.6131  0.4170  0.6978
19933TIP3    H281215   0.376   2.562  14.093 -1.0096  1.3433 -0.7576
19934TIP3   OH281216   1.242   3.152   2.760  0.4296  0.0296  0.4702
19934TIP3    H181217   1.215   3.114   2.677 -0.4329  0.1998  0.6684
19934TIP3    H281218   1.312   3.094   2.791  0.3728 -0.3506 -0.0972
19935TIP3   OH281219   0.703   3.511   5.576  0.3964  0.1103 -0.5427
19935TIP3    H181220   0.732   3.562   5.651  2.8078  1.7640 -2.4587
19935TIP3    H281221   0.765   3.438   5.571 -1.1615 -1.3526  0.3448
19936TIP3   OH281222   0.325   6.433   4.993 -0.2736 -0.0818  0.1638
19936TIP3    H181223   0.289   6.379   5.063 -1.0819  0.4003  0.1332
19936TIP3    H281224   0.248   6.470   4.950  0.2556  1.1642  0.2501
19937TIP3   OH281225   6.769   4.176  10.986  0.4338 -0.0957  0.2020
19937TIP3    H181226   6.848   4.201  10.937  1.7742 -0.1102  2.2496
19937TIP3    H281227   6.788   4.201  11.076 -1.5775 -0.9115  0.8970
19938TIP3   OH281228   3.877   3.766  13.811 -0.5925  0.5540 -0.2184
19938TIP3    H181229   3.957   3.748  13.860 -0.4441 -1.4004 -1.0918
19938TIP3    H281230   3.872   3.861  13.807  0.9850  0.7203  0.9760
19939TIP3   OH281231   1.758   1.795  15.513 -0.3424  0.0388  0.2859
19939TIP3    H181232   1.851   1.776  15.504 -0.3607 -1.2099  2.1233
19939TIP3    H281233   1.744   1.804  15.607 -2.3110 -1.3127  0.1987
19940TIP3   OH281234   3.808   6.686   2.482  0.0300 -0.2860 -0.3565
19940TIP3    H181235   3.791   6.702   2.389  2.1558  2.1336 -0.4465
19940TIP3    H281236   3.880   6.745   2.504  1.2061 -2.4824  2.3009
19941TIP3   OH281237   0.611   3.305   5.943 -0.3277 -0.0922  0.4851
19941TIP3    H181238   0.544   3.290   6.009  0.6910  1.4787  1.9815
19941TIP3    H281239   0.610   3.400   5.928 -1.4280 -0.4825 -2.8449
19942TIP3   OH281240   1.576   1.505  17.220  0.5266  0.2970 -0.4112
19942TIP3    H181241   1.519   1.521  17.145 -1.4557 -0.4026  0.8657
19942TIP3    H281242   1.518   1.470  17.287  2.6281 -1.2751  0.6998
19943TIP3   OH281243   2.444   0.119   5.113  0.4287 -0.0816  0.2596
19943TIP3    H181244   2.417   0.037   5.153  0.3086 -0.1987 -0.0595
19943TIP3    H281245   2.540   0.115   5.112  0.4285 -0.1262  0.4308
19944TIP3   OH281246   3.923   4.048  14.355 -0.3216 -0.1779  0.1310
19944TIP3    H181247   3.925   4.114  14.286 -3.1089 -0.4943 -0.3746
19944TIP3    H281248   4.005   3.999  14.344  1.2518  2.3583 -0.2379
19945TIP3   OH281249   4.664   5.258  16.783  0.2354  0.1281  0.4730
19945TIP3    H181250   4.661   5.264  16.878 -0.2486 -1.0033  0.5549
19945TIP3    H281251   4.572   5.247  16.757  0.4785 -0.9186 -0.0007
19946TIP3   OH281252   3.999   0.162  15.198  0.4704 -0.1892 -0.2761
19946TIP3    H181253   4.092   0.182  15.208  0.7085 -0.5568 -1.5475
19946TIP3    H281254   3.981   0.095  15.264  1.0405  0.0677  0.1460
19947TIP3   OH281255   4.801   0.329  15.379 -0.2142 -0.4632 -0.5699
19947TIP3    H181256   4.812   0.235  15.394  0.8970 -0.5979 -1.9515
19947TIP3    H281257   4.727   0.335  15.318 -0.3488 -0.4405 -0.4028
19948TIP3   OH281258   3.659   3.614   6.067  0.0960  0.0564  0.0405
19948TIP3    H181259   3.690   3.694   6.025  0.4350 -0.6727 -1.1261
19948TIP3    H281260   3.665   3.633   6.161 -0.1059  1.4928 -0.2081
19949TIP3   OH281261   0.242   2.776  13.448 -0.1865 -0.0794  0.1555
19949TIP3    H181262   0.288   2.741  13.524 -0.7747 -0.1102  0.5009
19949TIP3    H281263   0.253   2.871  13.454  0.3413 -0.1189 -0.0975
19950TIP3   OH281264   6.137   1.646   5.873  0.3694 -0.3464 -0.6829
19950TIP3    H181265   6.162   1.725   5.922 -0.7967  0.1828 -0.9166
19950TIP3    H281266   6.138   1.673   5.781  1.0589 -0.9242 -0.8565
19951TIP3   OH281267   1.027   6.372   2.078 -0.7196 -0.2044  0.2183
19951TIP3    H181268   0.978   6.454   2.072 -0.6329 -0.0713  1.1831
19951TIP3    H281269   0.967   6.312   2.123 -0.2200 -0.2127  0.8860
19952TIP3   OH281270   4.714   0.498  14.066 -0.5739 -0.7171 -0.0265
19952TIP3    H181271   4.753   0.459  14.144  1.3642  0.4555 -0.3214
19952TIP3    H281272   4.775   0.475  13.996  0.5694  2.5063 -0.2517
19953TIP3   OH281273   6.243   0.467  16.515  0.1183 -0.5197  0.1563
19953TIP3    H181274   6.175   0.401  16.501  1.1648 -1.2924 -1.5680
19953TIP3    H281275   6.249   0.512  16.430  0.9040  0.3735  0.6715
19954TIP3   OH281276   6.781   4.646   5.140 -0.3531  0.5987 -0.0157
19954TIP3    H181277   6.733   4.586   5.084  0.7123 -0.3179  0.0151
19954TIP3    H281278   6.736   4.730   5.129 -0.3608  0.3881 -2.0135
19955TIP3   OH281279   2.681   0.381  14.276 -0.2506  0.2519 -0.3623
19955TIP3    H181280   2.745   0.367  14.345 -2.5687 -1.5357  1.5855
19955TIP3    H281281   2.686   0.302  14.222  0.0219  0.6637 -0.9507
19956TIP3   OH281282   3.587   6.433   5.397 -0.0495 -0.0253  0.3757
19956TIP3    H181283   3.499   6.437   5.435 -0.2333 -0.0235 -0.0464
19956TIP3    H281284   3.638   6.495   5.449 -0.4166  0.3383  0.3135
19957TIP3   OH281285   6.484   1.107   3.270  0.1911  0.6506 -0.7804
19957TIP3    H181286   6.569   1.076   3.238  0.4523  0.7341 -0.1655
19957TIP3    H281287   6.505   1.180   3.328 -0.1232 -0.8286  1.2656
19958TIP3   OH281288   6.526   5.288  15.359 -0.3545 -0.4650  0.3085
19958TIP3    H181289   6.580   5.289  15.280 -0.3450  2.2176  0.2736
19958TIP3    H281290   6.546   5.204  15.401  1.0629 -1.1148 -1.5539
19959TIP3   OH281291   5.486   5.391  13.112 -0.5275  0.5510 -0.1685
19959TIP3    H181292   5.516   5.450  13.042  0.1165  0.9040  0.3887
19959TIP3    H281293   5.510   5.436  13.193  0.9941 -0.9685  0.2873
19960TIP3   OH281294   2.985   6.565   1.853  0.1392 -0.1835 -0.5797
19960TIP3    H181295   2.999   6.659   1.854  0.6019 -0.2478  0.2931
19960TIP3    H281296   2.931   6.549   1.776  2.1452  0.5027 -2.2291
19961TIP3   OH281297   1.536   2.202  15.065 -0.6875 -0.2977 -0.5890
19961TIP3    H181298   1.530   2.151  15.146  0.2445  0.9067  0.2762
19961TIP3    H281299   1.560   2.290  15.094  0.9579 -0.1366 -2.2455
19962TIP3   OH281300   3.031   3.001  16.129  0.3381  0.0112 -0.1349
19962TIP3    H181301   3.081   2.948  16.191  1.7485 -0.2178 -1.3873
19962TIP3    H281302   3.087   3.076  16.110 -1.0519  1.2799  0.5740
19963TIP3   OH281303   6.289   3.686  16.564  0.4372 -0.3466  0.2137
19963TIP3    H181304   6.381   3.699  16.584  0.8095 -0.7645 -1.1576
19963TIP3    H281305   6.264   3.764  16.515 -0.1200  0.0486  1.0870
19964TIP3   OH281306   3.737   4.919  13.562  0.2044 -0.5786 -0.5054
19964TIP3    H181307   3.696   4.993  13.516 -0.6866 -0.3979  0.5366
19964TIP3    H281308   3.825   4.950  13.583  0.8805 -0.9048 -2.6280
19965TIP3   OH281309   4.251   5.186  15.360  0.2271  0.3165  0.2925
19965TIP3    H181310   4.294   5.141  15.287  1.0142  0.1351  0.8616
19965TIP3    H281311   4.243   5.277  15.330  0.9721  0.3464  0.1562
19966TIP3   OH281312   5.338   3.347  14.771 -0.0624  0.4194 -0.6348
19966TIP3    H181313   5.340   3.267  14.823 -1.0495  0.9360  0.2314
19966TIP3    H281314   5.379   3.323  14.688 -0.7386 -1.0890 -0.5557
19967TIP3   OH281315   2.573   0.930   2.064 -0.0560  0.0684 -0.4860
19967TIP3    H181316   2.514   0.993   2.104  1.0649  0.5942  0.3942
19967TIP3    H281317   2.633   0.982   2.011  0.4392 -0.3177 -0.3188
19968TIP3   OH281318   4.902   1.206  16.892  0.1123  0.2228  0.8977
19968TIP3    H181319   4.960   1.138  16.857 -2.3758 -1.5475 -0.0395
19968TIP3    H281320   4.921   1.209  16.986  2.5186  0.6178  0.4718
19969TIP3   OH281321   6.314   0.212  12.391 -0.5183 -0.3775  0.3929
19969TIP3    H181322   6.324   0.159  12.312 -2.3665 -0.8047  0.3959
19969TIP3    H281323   6.399   0.253  12.404  0.4477 -1.9707 -0.6058
19970TIP3   OH281324   3.662   6.250   0.534 -0.4317  0.2912  0.1060
19970TIP3    H181325   3.608   6.240   0.456 -1.9076  0.0769  1.1275
19970TIP3    H281326   3.627   6.187   0.597  1.1496 -0.0187  0.7439
19971TIP3   OH281327   5.014   3.478   0.601  0.4227  0.0287  0.1806
19971TIP3    H181328   5.038   3.386   0.592 -1.3074 -0.4102 -0.4213
19971TIP3    H281329   4.935   3.477   0.654  0.8876  1.2624  0.9285
19972TIP3   OH281330   3.941   1.938  16.100  0.0298  0.2360  0.5235
19972TIP3    H181331   3.971   2.028  16.110 -0.8214  0.7722 -1.4258
19972TIP3    H281332   3.992   1.903  16.027  0.4532 -0.9336  1.3480
19973TIP3   OH281333   5.803   4.966  16.181  0.1997 -0.5224 -0.0201
19973TIP3    H181334   5.778   4.939  16.270  1.4582 -2.4185 -0.1751
19973TIP3    H281335   5.816   5.060  16.187 -0.5565 -0.4910  1.6120
19974LIG     O181336   5.224   5.367  16.485 -0.2818  0.1113 -0.4049
19974LIG     O281337   4.969   5.055  16.278  0.1833 -0.2366 -0.3327
19974LIG     N181338   4.951   5.061  16.503 -0.3269 -0.2585  0.3461
19974LIG     N281339   5.137   5.239  16.750  0.2484 -0.2392  0.3311
19974LIG     N381340   5.078   5.226  16.382  0.3185 -0.0139 -0.1023
19974LIG     N481341   4.990   5.073  16.748 -0.9303  0.4314  0.8745
19974LIG     C181342   5.103   5.220  16.619 -0.4320 -0.1618 -0.1391
19974LIG     C281343   5.012   5.118  16.618  0.2423  0.2923 -0.0736
19974LIG     C381344   5.144   5.276  16.498  0.2371 -0.0123 -0.1615
19974LIG     C481345   4.999   5.113  16.382 -0.4652  0.3899 -0.2118
19974LIG     C581346   5.061   5.151  16.823 -0.0268 -0.2096 -0.0252
19974LIG     C681347   4.890   4.925  16.504  0.0882  0.5501  0.1409
19974LIG     C781348   5.218   5.351  16.802  0.3618  0.2062  0.2712
19974LIG     C881349   5.111   5.270  16.242  0.6066  0.4189 -0.2187
19974LIG     H181350   5.048   5.161  16.931  0.1891 -1.2495  0.1068
19974LIG     H281351   4.805   4.917  16.574 -0.2010 -1.2802 -0.3602
19974LIG     H381352   4.967   4.848  16.528 -0.5083 -0.0136  0.2584
19974LIG     H481353   4.851   4.894  16.405 -3.8766 -0.9373  1.9820
19974LIG     H581354   5.161   5.445  16.816  1.0803  0.5207  1.2134
19974LIG     H681355   5.306   5.377  16.739  0.3707  0.6125  0.4460
19974LIG     H781356   5.269   5.332  16.899  1.2418  2.2986  0.2742
19974LIG     H881357   5.184   5.202  16.195 -0.1230 -1.2622  0.9915
19974LIG     H981358   5.165   5.367  16.247  0.3712  0.5452 -0.0855
19974LIG    H1081359   5.015   5.275  16.187 -0.1360  1.3221  1.0972
   6.79372   6.79372  17.23459
